                               Psi4 1.3.2 release

  ==> Input File <==

--------------------------------------------------------------------------
#psi4
#
memory 32 gb

molecule  {
0 1
  O        1.1620153    -0.3149989    -0.0000376
  O       -1.0848130    -0.4327500    -0.0000360
  O        0.0000000     1.5813200     0.0000210
  C        2.3404510     0.2903800     0.0000000
  C       -2.3404490     0.2903790     0.0000040
  C        3.4330320    -0.7534130     0.0000320
  C       -3.4330330    -0.7534120     0.0000290
  C        0.0000010     0.3626890    -0.0000340
  H        2.3799910     0.9319240    -0.8843590
  H        2.3799380     0.9319250     0.8843600
  H       -2.3799400     0.9319200     0.8843670
  H       -2.3799890     0.9319290    -0.8843510
  H        4.4117640    -0.2654940     0.0000570
  H        3.3582860    -1.3857500     0.8869440
  H        3.3583340    -1.3857540    -0.8868810
  H       -4.4117630    -0.2654900     0.0000540
  H       -3.3583340    -1.3857510    -0.8868860
  H       -3.3582920    -1.3857530     0.8869380
units angstrom
no_reorient  #important for SAPT in psi4, default
symmetry c1  #important for SAPT in psi4, default
}

set PROPERTIES_ORIGIN ["COM"]
properties('MP2/aug-cc-pvtz', properties = ['dipole'])
--------------------------------------------------------------------------

    Molecular point group: c1
  Charge       = 0
  Multiplicity = 1
  Basis Set: AUG-CC-PVTZ
    Blend: AUG-CC-PVTZ
  Basis Set: (AUG-CC-PVTZ AUX)
    Blend: AUG-CC-PVTZ-JKFIT

    Orbital Energies [Eh]
    ---------------------

    Doubly Occupied:

       1A    -20.617696     2A    -20.601984     3A    -20.542589
       4A    -11.436122     5A    -11.298168     6A    -11.279063
       7A    -11.229627     8A    -11.220874     9A     -1.509982
      10A     -1.421949    11A     -1.357958    12A     -1.063120
      13A     -1.027909    14A     -0.908672    15A     -0.851344
      16A     -0.789882    17A     -0.763244    18A     -0.719787
      19A     -0.691533    20A     -0.673066    21A     -0.613608
      22A     -0.598471    23A     -0.596393    24A     -0.554692
      25A     -0.546661    26A     -0.546603    27A     -0.522631
      28A     -0.508733    29A     -0.498990    30A     -0.470068
      31A     -0.465447    32A     -0.448979

  @DF-RHF Final Energy:  -419.92687309370143

   => Energetics <=

    Nuclear Repulsion Energy =            393.7238669513329228
    One-Electron Energy =               -1354.5497883059917967
    Two-Electron Energy =                 540.8990482609574428
    Total Energy =                       -419.9268730937014880
  Basis Set: (AUG-CC-PVTZ AUX)
    Blend: AUG-CC-PVTZ-RI
    Molecular point group: c1

    Geometry (in Angstrom), charge = 0, multiplicity = 1:

       Center              X                  Y                   Z               Mass
    ------------   -----------------  -----------------  -----------------  -----------------
         O            1.151555941703    -0.350638524227    -0.000035699057    15.994914619570
         O           -1.095272358297    -0.468389624227    -0.000034099057    15.994914619570
         O           -0.010459358297     1.545680375773     0.000022900943    15.994914619570
         C            2.329991641703     0.254740375773     0.000001900943    12.000000000000
         C           -2.350908358297     0.254739375773     0.000005900943    12.000000000000
         C            3.422572641703    -0.789052624227     0.000033900943    12.000000000000
         C           -3.443492358297    -0.789051624227     0.000030900943    12.000000000000
         C           -0.010458358297     0.327049375773    -0.000032099057    12.000000000000
         H            2.369531641703     0.896284375773    -0.884357099057     1.007825032230
         H            2.369478641703     0.896285375773     0.884361900943     1.007825032230
         H           -2.390399358297     0.896280375773     0.884368900943     1.007825032230
         H           -2.390448358297     0.896289375773    -0.884349099057     1.007825032230
         H            4.401304641703    -0.301133624227     0.000058900943     1.007825032230
         H            3.347826641703    -1.421389624227     0.886945900943     1.007825032230
         H            3.347874641703    -1.421393624227    -0.886879099057     1.007825032230
         H           -4.422222358297    -0.301129624227     0.000055900943     1.007825032230
         H           -3.368793358297    -1.421390624227    -0.886884099057     1.007825032230
         H           -3.368751358297    -1.421392624227     0.886939900943     1.007825032230

  Basis Set: AUG-CC-PVTZ
    Blend: AUG-CC-PVTZ
  Basis Set: (AUG-CC-PVTZ AUX)
    Blend: AUG-CC-PVTZ-JKFIT
	 Reference Energy          =    -419.9268730937014311 [Eh]
	 Singles Energy            =      -0.0000000000000000 [Eh]
	 Same-Spin Energy          =      -0.4052165145279919 [Eh]
	 Opposite-Spin Energy      =      -1.3096479501833875 [Eh]
	 Correlation Energy        =      -1.7148644647113795 [Eh]
	 Total Energy              =    -421.6417375584127853 [Eh]

	 ================> DF-SCS-MP2 Energies <==================
	-----------------------------------------------------------
	 SCS Same-Spin Scale       =       0.3333333333333333 [-]
	 SCS Opposite-Spin Scale   =       1.2000000000000000 [-]
	 SCS Same-Spin Energy      =      -0.1350721715093306 [Eh]
	 SCS Opposite-Spin Energy  =      -1.5715775402200649 [Eh]
	 SCS Correlation Energy    =      -1.7066497117293955 [Eh]
	 SCS Total Energy          =    -421.6335228054308004 [Eh]
	-----------------------------------------------------------

  Dipole Moment: [D]
     X:    -0.5699      Y:    -0.7838      Z:     0.0000     Total:     0.9691

*** Psi4 exiting successfully. Buy a developer a beer!
