                               Psi4 1.3.2 release

  ==> Input File <==

--------------------------------------------------------------------------
#psi4
#
memory 32 gb

molecule  {
0 1
  O        1.0161029    -0.2975386    -0.0000400
  O       -1.0848130    -0.4327500    -0.0000360
  O        0.0000000     1.5813200     0.0000210
  C        2.3404510     0.2903800     0.0000000
  C       -2.3404490     0.2903790     0.0000040
  C        3.4330320    -0.7534130     0.0000320
  C       -3.4330330    -0.7534120     0.0000290
  C        0.0000010     0.3626890    -0.0000340
  H        2.3799910     0.9319240    -0.8843590
  H        2.3799380     0.9319250     0.8843600
  H       -2.3799400     0.9319200     0.8843670
  H       -2.3799890     0.9319290    -0.8843510
  H        4.4117640    -0.2654940     0.0000570
  H        3.3582860    -1.3857500     0.8869440
  H        3.3583340    -1.3857540    -0.8868810
  H       -4.4117630    -0.2654900     0.0000540
  H       -3.3583340    -1.3857510    -0.8868860
  H       -3.3582920    -1.3857530     0.8869380
units angstrom
no_reorient  #important for SAPT in psi4, default
symmetry c1  #important for SAPT in psi4, default
}

set PROPERTIES_ORIGIN ["COM"]
properties('MP2/aug-cc-pvtz', properties = ['dipole'])
--------------------------------------------------------------------------

    Molecular point group: c1
  Charge       = 0
  Multiplicity = 1
  Basis Set: AUG-CC-PVTZ
    Blend: AUG-CC-PVTZ
  Basis Set: (AUG-CC-PVTZ AUX)
    Blend: AUG-CC-PVTZ-JKFIT

    Orbital Energies [Eh]
    ---------------------

    Doubly Occupied:

       1A    -20.606795     2A    -20.596104     3A    -20.515988
       4A    -11.407983     5A    -11.305391     6A    -11.285250
       7A    -11.236751     8A    -11.221236     9A     -1.535640
      10A     -1.404623    11A     -1.340175    12A     -1.071642
      13A     -1.028523    14A     -0.913313    15A     -0.846881
      16A     -0.789258    17A     -0.757170    18A     -0.724897
      19A     -0.687165    20A     -0.662033    21A     -0.606763
      22A     -0.600354    23A     -0.586245    24A     -0.565484
      25A     -0.544143    26A     -0.542002    27A     -0.517849
      28A     -0.508360    29A     -0.506477    30A     -0.462790
      31A     -0.453504    32A     -0.452787

  @DF-RHF Final Energy:  -419.92758926580530

   => Energetics <=

    Nuclear Repulsion Energy =            395.4171338590094251
    One-Electron Energy =               -1358.1222889089847286
    Two-Electron Energy =                 542.7775657841699513
    Total Energy =                       -419.9275892658052953
  Basis Set: (AUG-CC-PVTZ AUX)
    Blend: AUG-CC-PVTZ-RI
    Molecular point group: c1

    Geometry (in Angstrom), charge = 0, multiplicity = 1:

       Center              X                  Y                   Z               Mass
    ------------   -----------------  -----------------  -----------------  -----------------
         O            1.025411432532    -0.335543707244    -0.000037773910    15.994914619570
         O           -1.075504467468    -0.470755107244    -0.000033773910    15.994914619570
         O            0.009308532532     1.543314892756     0.000023226090    15.994914619570
         C            2.349759532532     0.252374892756     0.000002226090    12.000000000000
         C           -2.331140467468     0.252373892756     0.000006226090    12.000000000000
         C            3.442340532532    -0.791418107244     0.000034226090    12.000000000000
         C           -3.423724467468    -0.791417107244     0.000031226090    12.000000000000
         C            0.009309532532     0.324683892756    -0.000031773910    12.000000000000
         H            2.389299532532     0.893918892756    -0.884356773910     1.007825032230
         H            2.389246532532     0.893919892756     0.884362226090     1.007825032230
         H           -2.370631467468     0.893914892756     0.884369226090     1.007825032230
         H           -2.370680467468     0.893923892756    -0.884348773910     1.007825032230
         H            4.421072532532    -0.303499107244     0.000059226090     1.007825032230
         H            3.367594532532    -1.423755107244     0.886946226090     1.007825032230
         H            3.367642532532    -1.423759107244    -0.886878773910     1.007825032230
         H           -4.402454467468    -0.303495107244     0.000056226090     1.007825032230
         H           -3.349025467468    -1.423756107244    -0.886883773910     1.007825032230
         H           -3.348983467468    -1.423758107244     0.886940226090     1.007825032230

  Basis Set: AUG-CC-PVTZ
    Blend: AUG-CC-PVTZ
  Basis Set: (AUG-CC-PVTZ AUX)
    Blend: AUG-CC-PVTZ-JKFIT
	 Reference Energy          =    -419.9275892658052953 [Eh]
	 Singles Energy            =      -0.0000000000000000 [Eh]
	 Same-Spin Energy          =      -0.4036160052576746 [Eh]
	 Opposite-Spin Energy      =      -1.3064837777587874 [Eh]
	 Correlation Energy        =      -1.7100997830164619 [Eh]
	 Total Energy              =    -421.6376890488217555 [Eh]

	 ================> DF-SCS-MP2 Energies <==================
	-----------------------------------------------------------
	 SCS Same-Spin Scale       =       0.3333333333333333 [-]
	 SCS Opposite-Spin Scale   =       1.2000000000000000 [-]
	 SCS Same-Spin Energy      =      -0.1345386684192248 [Eh]
	 SCS Opposite-Spin Energy  =      -1.5677805333105448 [Eh]
	 SCS Correlation Energy    =      -1.7023192017297697 [Eh]
	 SCS Total Energy          =    -421.6299084675350741 [Eh]
	-----------------------------------------------------------

  Dipole Moment: [D]
     X:     0.9605      Y:    -1.0661      Z:     0.0000     Total:     1.4349

*** Psi4 exiting successfully. Buy a developer a beer!
