                               Psi4 1.3.2 release

  ==> Input File <==

--------------------------------------------------------------------------
#psi4
#
memory 32 gb

molecule  {
0 1
  O        1.0848120    -0.4327500    -0.0000380
  O       -1.0848130    -0.4327500    -0.0000360
  O        0.0000000     1.5813200     0.0000210
  C        2.3404510     0.2903800     0.0000000
  C       -2.3404490     0.2903790     0.0000040
  C        3.4330320    -0.7534130     0.0000320
  C       -3.4330330    -0.7534120     0.0000290
  C       -0.1612863     0.4809531    -0.0000334
  H        2.3799910     0.9319240    -0.8843590
  H        2.3799380     0.9319250     0.8843600
  H       -2.3799400     0.9319200     0.8843670
  H       -2.3799890     0.9319290    -0.8843510
  H        4.4117640    -0.2654940     0.0000570
  H        3.3582860    -1.3857500     0.8869440
  H        3.3583340    -1.3857540    -0.8868810
  H       -4.4117630    -0.2654900     0.0000540
  H       -3.3583340    -1.3857510    -0.8868860
  H       -3.3582920    -1.3857530     0.8869380
units angstrom
no_reorient  #important for SAPT in psi4, default
symmetry c1  #important for SAPT in psi4, default
}

set PROPERTIES_ORIGIN ["COM"]
properties('MP2/aug-cc-pvtz', properties = ['dipole'])
--------------------------------------------------------------------------

    Molecular point group: c1
  Charge       = 0
  Multiplicity = 1
  Basis Set: AUG-CC-PVTZ
    Blend: AUG-CC-PVTZ
  Basis Set: (AUG-CC-PVTZ AUX)
    Blend: AUG-CC-PVTZ-JKFIT

    Orbital Energies [Eh]
    ---------------------

    Doubly Occupied:

       1A    -20.633610     2A    -20.581219     3A    -20.549427
       4A    -11.430019     5A    -11.308271     6A    -11.263112
       7A    -11.236361     8A    -11.206879     9A     -1.532341
      10A     -1.448455    11A     -1.316970    12A     -1.059452
      13A     -1.001553    14A     -0.888877    15A     -0.832842
      16A     -0.801551    17A     -0.736166    18A     -0.724803
      19A     -0.719079    20A     -0.645780    21A     -0.612618
      22A     -0.610621    23A     -0.580101    24A     -0.557362
      25A     -0.545176    26A     -0.538900    27A     -0.523826
      28A     -0.510883    29A     -0.503662    30A     -0.496226
      31A     -0.445701    32A     -0.430091

  @DF-RHF Final Energy:  -419.89002416865281

   => Energetics <=

    Nuclear Repulsion Energy =            392.0860982007209827
    One-Electron Energy =               -1351.4083760196542698
    Two-Electron Energy =                 539.4322536502805860
    Total Energy =                       -419.8900241686527579
  Basis Set: (AUG-CC-PVTZ AUX)
    Blend: AUG-CC-PVTZ-RI
    Molecular point group: c1

    Geometry (in Angstrom), charge = 0, multiplicity = 1:

       Center              X                  Y                   Z               Mass
    ------------   -----------------  -----------------  -----------------  -----------------
         O            1.101205321612    -0.464457404871    -0.000036105850    15.994914619570
         O           -1.068419678388    -0.464457404871    -0.000034105850    15.994914619570
         O            0.016393321612     1.549612595129     0.000022894150    15.994914619570
         C            2.356844321612     0.258672595129     0.000001894150    12.000000000000
         C           -2.324055678388     0.258671595129     0.000005894150    12.000000000000
         C            3.449425321612    -0.785120404871     0.000033894150    12.000000000000
         C           -3.416639678388    -0.785119404871     0.000030894150    12.000000000000
         C           -0.144892978388     0.449245695129    -0.000031505850    12.000000000000
         H            2.396384321612     0.900216595129    -0.884357105850     1.007825032230
         H            2.396331321612     0.900217595129     0.884361894150     1.007825032230
         H           -2.363546678388     0.900212595129     0.884368894150     1.007825032230
         H           -2.363595678388     0.900221595129    -0.884349105850     1.007825032230
         H            4.428157321612    -0.297201404871     0.000058894150     1.007825032230
         H            3.374679321612    -1.417457404871     0.886945894150     1.007825032230
         H            3.374727321612    -1.417461404871    -0.886879105850     1.007825032230
         H           -4.395369678388    -0.297197404871     0.000055894150     1.007825032230
         H           -3.341940678388    -1.417458404871    -0.886884105850     1.007825032230
         H           -3.341898678388    -1.417460404871     0.886939894150     1.007825032230

  Basis Set: AUG-CC-PVTZ
    Blend: AUG-CC-PVTZ
  Basis Set: (AUG-CC-PVTZ AUX)
    Blend: AUG-CC-PVTZ-JKFIT
	 Reference Energy          =    -419.8900241686528148 [Eh]
	 Singles Energy            =      -0.0000000000000000 [Eh]
	 Same-Spin Energy          =      -0.4067810944110054 [Eh]
	 Opposite-Spin Energy      =      -1.3155602071795580 [Eh]
	 Correlation Energy        =      -1.7223413015905633 [Eh]
	 Total Energy              =    -421.6123654702433896 [Eh]

	 ================> DF-SCS-MP2 Energies <==================
	-----------------------------------------------------------
	 SCS Same-Spin Scale       =       0.3333333333333333 [-]
	 SCS Opposite-Spin Scale   =       1.2000000000000000 [-]
	 SCS Same-Spin Energy      =      -0.1355936981370018 [Eh]
	 SCS Opposite-Spin Energy  =      -1.5786722486154696 [Eh]
	 SCS Correlation Energy    =      -1.7142659467524715 [Eh]
	 SCS Total Energy          =    -421.6042901154052629 [Eh]
	-----------------------------------------------------------

  Dipole Moment: [D]
     X:    -2.1139      Y:     0.4671      Z:     0.0000     Total:     2.1649

*** Psi4 exiting successfully. Buy a developer a beer!
