                               Psi4 1.4a3.dev225

  ==> Input File <==

--------------------------------------------------------------------------
#psi4
#
memory 32 gb

molecule  {
0 1
  O        1.0848250    -0.4328680    -0.0000110
  O       -1.0848250    -0.4328670    -0.0000100
  O        0.0000000     1.5811570     0.0000070
  C        2.3837945     0.3154807    -0.0000038
  C       -2.3404700     0.2905210    -0.0000020
  C        3.4331290    -0.7532350     0.0000100
  C       -3.4331290    -0.7532350     0.0000090
  C        0.0000000     0.3625560    -0.0000030
  H        2.3799590     0.9318790    -0.8844210
  H        2.3799440     0.9318880     0.8844070
  H       -2.3799450     0.9318860     0.8844110
  H       -2.3799580     0.9318810    -0.8844170
  H        4.4117970    -0.2652620     0.0000140
  H        3.3585260    -1.3857810     0.8868320
  H        3.3585390    -1.3857920    -0.8868050
  H       -4.4117970    -0.2652620     0.0000130
  H       -3.3585380    -1.3857890    -0.8868080
  H       -3.3585270    -1.3857830     0.8868290
units angstrom
no_reorient  #important for SAPT in psi4, default
symmetry c1  #important for SAPT in psi4, default
}

set PROPERTIES_ORIGIN ["COM"]
properties('MP2/aug-cc-pvtz', properties = ['dipole'])
--------------------------------------------------------------------------

    Molecular point group: c1
  Charge       = 0
  Multiplicity = 1
  Basis Set: AUG-CC-PVTZ
    Blend: AUG-CC-PVTZ
  Basis Set: (AUG-CC-PVTZ AUX)
    Blend: AUG-CC-PVTZ-JKFIT

    Orbital Energies [Eh]
    ---------------------

    Doubly Occupied:

       1A    -20.604383     2A    -20.600760     3A    -20.541645
       4A    -11.425469     5A    -11.294061     6A    -11.290186
       7A    -11.227487     8A    -11.224320     9A     -1.489844
      10A     -1.384277    11A     -1.352279    12A     -1.057341
      13A     -1.028333    14A     -0.889180    15A     -0.846723
      16A     -0.788900    17A     -0.737348    18A     -0.703488
      19A     -0.687142    20A     -0.662723    21A     -0.599348
      22A     -0.595483    23A     -0.586528    24A     -0.554736
      25A     -0.539995    26A     -0.533433    27A     -0.525446
      28A     -0.514990    29A     -0.509551    30A     -0.467499
      31A     -0.466109    32A     -0.464356

  @DF-RHF Final Energy:  -419.93438084189131

   => Energetics <=

    Nuclear Repulsion Energy =            391.1252538380230703
    One-Electron Energy =               -1349.7325377217589448
    Two-Electron Energy =                 538.6729030418445063
    Total Energy =                       -419.9343808418913113
  Basis Set: (AUG-CC-PVTZ AUX)
    Blend: AUG-CC-PVTZ-RI
    Molecular point group: c1

    Geometry (in Angstrom), charge = 0, multiplicity = 1:

       Center              X                  Y                   Z               Mass
    ------------   -----------------  -----------------  -----------------  -----------------
         O            1.080421469464    -0.455090650232    -0.000010609544    15.994914619570
         O           -1.089228530536    -0.455089650232    -0.000009609544    15.994914619570
         O           -0.004403530536     1.558934349768     0.000007390456    15.994914619570
         C            2.379390969464     0.293258049768    -0.000003409544    12.000000000000
         C           -2.344873530536     0.268298349768    -0.000001609544    12.000000000000
         C            3.428725469464    -0.775457650232     0.000010390456    12.000000000000
         C           -3.437532530536    -0.775457650232     0.000009390456    12.000000000000
         C           -0.004403530536     0.340333349768    -0.000002609544    12.000000000000
         H            2.375555469464     0.909656349768    -0.884420609544     1.007825032230
         H            2.375540469464     0.909665349768     0.884407390456     1.007825032230
         H           -2.384348530536     0.909663349768     0.884411390456     1.007825032230
         H           -2.384361530536     0.909658349768    -0.884416609544     1.007825032230
         H            4.407393469464    -0.287484650232     0.000014390456     1.007825032230
         H            3.354122469464    -1.408003650232     0.886832390456     1.007825032230
         H            3.354135469464    -1.408014650232    -0.886804609544     1.007825032230
         H           -4.416200530536    -0.287484650232     0.000013390456     1.007825032230
         H           -3.362941530536    -1.408011650232    -0.886807609544     1.007825032230
         H           -3.362930530536    -1.408005650232     0.886829390456     1.007825032230

  Basis Set: AUG-CC-PVTZ
    Blend: AUG-CC-PVTZ
  Basis Set: (AUG-CC-PVTZ AUX)
    Blend: AUG-CC-PVTZ-JKFIT
	 Reference Energy          =    -419.9343808418913113 [Eh]
	 Singles Energy            =      -0.0000000000000000 [Eh]
	 Same-Spin Energy          =      -0.4058828059511013 [Eh]
	 Opposite-Spin Energy      =      -1.3131702506514418 [Eh]
	 Correlation Energy        =      -1.7190530566025430 [Eh]
	 Total Energy              =    -421.6534338984938586 [Eh]

	 ================> DF-SCS-MP2 Energies <==================
	-----------------------------------------------------------
	 SCS Same-Spin Scale       =       0.3333333333333333 [-]
	 SCS Opposite-Spin Scale   =       1.2000000000000000 [-]
	 SCS Same-Spin Energy      =      -0.1352942686503671 [Eh]
	 SCS Opposite-Spin Energy  =      -1.5758043007817302 [Eh]
	 SCS Correlation Energy    =      -1.7110985694320973 [Eh]
	 SCS Total Energy          =    -421.6454794113234357 [Eh]
	-----------------------------------------------------------

  Dipole Moment: [D]
     X:     0.2390      Y:    -0.4915      Z:     0.0000     Total:     0.5466

*** Psi4 exiting successfully. Buy a developer a beer!
