                               Psi4 1.3.2 release

  ==> Input File <==

--------------------------------------------------------------------------
#psi4
#
memory 32 gb

molecule  {
0 1
  O        1.0723829    -0.4107259    -0.0000384
  O       -1.0848130    -0.4327500    -0.0000360
  O        0.0000000     1.5813200     0.0000210
  C        2.3404510     0.2903800     0.0000000
  C       -2.3404490     0.2903790     0.0000040
  C        3.4330320    -0.7534130     0.0000320
  C       -3.4330330    -0.7534120     0.0000290
  C        0.0000010     0.3626890    -0.0000340
  H        2.3799910     0.9319240    -0.8843590
  H        2.3799380     0.9319250     0.8843600
  H       -2.3799400     0.9319200     0.8843670
  H       -2.3799890     0.9319290    -0.8843510
  H        4.4117640    -0.2654940     0.0000570
  H        3.3582860    -1.3857500     0.8869440
  H        3.3583340    -1.3857540    -0.8868810
  H       -4.4117630    -0.2654900     0.0000540
  H       -3.3583340    -1.3857510    -0.8868860
  H       -3.3582920    -1.3857530     0.8869380
units angstrom
no_reorient  #important for SAPT in psi4, default
symmetry c1  #important for SAPT in psi4, default
}

set PROPERTIES_ORIGIN ["COM"]
properties('MP2/aug-cc-pvtz', properties = ['dipole'])
--------------------------------------------------------------------------

    Molecular point group: c1
  Charge       = 0
  Multiplicity = 1
  Basis Set: AUG-CC-PVTZ
    Blend: AUG-CC-PVTZ
  Basis Set: (AUG-CC-PVTZ AUX)
    Blend: AUG-CC-PVTZ-JKFIT

    Orbital Energies [Eh]
    ---------------------

    Doubly Occupied:

       1A    -20.607146     2A    -20.605292     3A    -20.540565
       4A    -11.426102     5A    -11.293933     6A    -11.290899
       7A    -11.227344     8A    -11.224894     9A     -1.501134
      10A     -1.397028    11A     -1.354805    12A     -1.058440
      13A     -1.027131    14A     -0.895615    15A     -0.845720
      16A     -0.790662    17A     -0.747029    18A     -0.709272
      19A     -0.690207    20A     -0.662509    21A     -0.598903
      22A     -0.598816    23A     -0.590591    24A     -0.556362
      25A     -0.542426    26A     -0.538713    27A     -0.519074
      28A     -0.514742    29A     -0.506939    30A     -0.467424
      31A     -0.465930    32A     -0.464051

  @DF-RHF Final Energy:  -419.93858011085672

   => Energetics <=

    Nuclear Repulsion Energy =            392.4786085528279500
    One-Electron Energy =               -1352.3149752565011568
    Two-Electron Energy =                 539.8977865928164874
    Total Energy =                       -419.9385801108567193
  Basis Set: (AUG-CC-PVTZ AUX)
    Blend: AUG-CC-PVTZ-RI
    Molecular point group: c1

    Geometry (in Angstrom), charge = 0, multiplicity = 1:

       Center              X                  Y                   Z               Mass
    ------------   -----------------  -----------------  -----------------  -----------------
         O            1.074066741992    -0.433396640942    -0.000036390675    15.994914619570
         O           -1.083129158008    -0.455420740942    -0.000033990675    15.994914619570
         O            0.001683841992     1.558649259058     0.000023009325    15.994914619570
         C            2.342134841992     0.267709259058     0.000002009325    12.000000000000
         C           -2.338765158008     0.267708259058     0.000006009325    12.000000000000
         C            3.434715841992    -0.776083740942     0.000034009325    12.000000000000
         C           -3.431349158008    -0.776082740942     0.000031009325    12.000000000000
         C            0.001684841992     0.340018259058    -0.000031990675    12.000000000000
         H            2.381674841992     0.909253259058    -0.884356990675     1.007825032230
         H            2.381621841992     0.909254259058     0.884362009325     1.007825032230
         H           -2.378256158008     0.909249259058     0.884369009325     1.007825032230
         H           -2.378305158008     0.909258259058    -0.884348990675     1.007825032230
         H            4.413447841992    -0.288164740942     0.000059009325     1.007825032230
         H            3.359969841992    -1.408420740942     0.886946009325     1.007825032230
         H            3.360017841992    -1.408424740942    -0.886878990675     1.007825032230
         H           -4.410079158008    -0.288160740942     0.000056009325     1.007825032230
         H           -3.356650158008    -1.408421740942    -0.886883990675     1.007825032230
         H           -3.356608158008    -1.408423740942     0.886940009325     1.007825032230

  Basis Set: AUG-CC-PVTZ
    Blend: AUG-CC-PVTZ
  Basis Set: (AUG-CC-PVTZ AUX)
    Blend: AUG-CC-PVTZ-JKFIT
	 Reference Energy          =    -419.9385801108567193 [Eh]
	 Singles Energy            =      -0.0000000000000000 [Eh]
	 Same-Spin Energy          =      -0.4053518552009173 [Eh]
	 Opposite-Spin Energy      =      -1.3114382520608650 [Eh]
	 Correlation Energy        =      -1.7167901072617822 [Eh]
	 Total Energy              =    -421.6553702181184917 [Eh]

	 ================> DF-SCS-MP2 Energies <==================
	-----------------------------------------------------------
	 SCS Same-Spin Scale       =       0.3333333333333333 [-]
	 SCS Opposite-Spin Scale   =       1.2000000000000000 [-]
	 SCS Same-Spin Energy      =      -0.1351172850669724 [Eh]
	 SCS Opposite-Spin Energy  =      -1.5737259024730379 [Eh]
	 SCS Correlation Energy    =      -1.7088431875400103 [Eh]
	 SCS Total Energy          =    -421.6474232983967454 [Eh]
	-----------------------------------------------------------

  Dipole Moment: [D]
     X:     0.1550      Y:    -0.6025      Z:     0.0000     Total:     0.6221

*** Psi4 exiting successfully. Buy a developer a beer!
