                               Psi4 1.4a3.dev225

  ==> Input File <==

--------------------------------------------------------------------------
#psi4
#
memory 32 gb

molecule  {
0 1
  O        1.0848250    -0.4328680    -0.0000110
  O       -1.0848250    -0.4328670    -0.0000100
  O        0.0000000     1.5811570     0.0000070
  C        2.3577998     0.3005049    -0.0000039
  C       -2.3404700     0.2905210    -0.0000020
  C        3.4331290    -0.7532350     0.0000100
  C       -3.4331290    -0.7532350     0.0000090
  C        0.0000000     0.3625560    -0.0000030
  H        2.3799590     0.9318790    -0.8844210
  H        2.3799440     0.9318880     0.8844070
  H       -2.3799450     0.9318860     0.8844110
  H       -2.3799580     0.9318810    -0.8844170
  H        4.4117970    -0.2652620     0.0000140
  H        3.3585260    -1.3857810     0.8868320
  H        3.3585390    -1.3857920    -0.8868050
  H       -4.4117970    -0.2652620     0.0000130
  H       -3.3585380    -1.3857890    -0.8868080
  H       -3.3585270    -1.3857830     0.8868290
units angstrom
no_reorient  #important for SAPT in psi4, default
symmetry c1  #important for SAPT in psi4, default
}

set PROPERTIES_ORIGIN ["COM"]
properties('MP2/aug-cc-pvtz', properties = ['dipole'])
--------------------------------------------------------------------------

    Molecular point group: c1
  Charge       = 0
  Multiplicity = 1
  Basis Set: AUG-CC-PVTZ
    Blend: AUG-CC-PVTZ
  Basis Set: (AUG-CC-PVTZ AUX)
    Blend: AUG-CC-PVTZ-JKFIT

    Orbital Energies [Eh]
    ---------------------

    Doubly Occupied:

       1A    -20.605997     2A    -20.604598     3A    -20.543631
       4A    -11.427802     5A    -11.292684     6A    -11.291258
       7A    -11.226306     8A    -11.225083     9A     -1.493754
      10A     -1.390192    11A     -1.355300    12A     -1.056794
      13A     -1.027155    14A     -0.891386    15A     -0.845727
      16A     -0.790414    17A     -0.741604    18A     -0.705605
      19A     -0.689462    20A     -0.662318    21A     -0.598536
      22A     -0.597259    23A     -0.589014    24A     -0.555168
      25A     -0.540993    26A     -0.535219    27A     -0.522134
      28A     -0.515912    29A     -0.507956    30A     -0.468188
      31A     -0.467542    32A     -0.464753

  @DF-RHF Final Energy:  -419.93637453406279

   => Energetics <=

    Nuclear Repulsion Energy =            391.5937083220892418
    One-Electron Energy =               -1350.6006833464120973
    Two-Electron Energy =                 539.0706004902600625
    Total Energy =                       -419.9363745340627929
  Basis Set: (AUG-CC-PVTZ AUX)
    Blend: AUG-CC-PVTZ-RI
    Molecular point group: c1

    Geometry (in Angstrom), charge = 0, multiplicity = 1:

       Center              X                  Y                   Z               Mass
    ------------   -----------------  -----------------  -----------------  -----------------
         O            1.083063587786    -0.453568500118    -0.000010599380    15.994914619570
         O           -1.086586412214    -0.453567500118    -0.000009599380    15.994914619570
         O           -0.001761412214     1.560456499882     0.000007400620    15.994914619570
         C            2.356038387786     0.279804399882    -0.000003499380    12.000000000000
         C           -2.342231412214     0.269820499882    -0.000001599380    12.000000000000
         C            3.431367587786    -0.773935500118     0.000010400620    12.000000000000
         C           -3.434890412214    -0.773935500118     0.000009400620    12.000000000000
         C           -0.001761412214     0.341855499882    -0.000002599380    12.000000000000
         H            2.378197587786     0.911178499882    -0.884420599380     1.007825032230
         H            2.378182587786     0.911187499882     0.884407400620     1.007825032230
         H           -2.381706412214     0.911185499882     0.884411400620     1.007825032230
         H           -2.381719412214     0.911180499882    -0.884416599380     1.007825032230
         H            4.410035587786    -0.285962500118     0.000014400620     1.007825032230
         H            3.356764587786    -1.406481500118     0.886832400620     1.007825032230
         H            3.356777587786    -1.406492500118    -0.886804599380     1.007825032230
         H           -4.413558412214    -0.285962500118     0.000013400620     1.007825032230
         H           -3.360299412214    -1.406489500118    -0.886807599380     1.007825032230
         H           -3.360288412214    -1.406483500118     0.886829400620     1.007825032230

  Basis Set: AUG-CC-PVTZ
    Blend: AUG-CC-PVTZ
  Basis Set: (AUG-CC-PVTZ AUX)
    Blend: AUG-CC-PVTZ-JKFIT
	 Reference Energy          =    -419.9363745340627929 [Eh]
	 Singles Energy            =      -0.0000000000000000 [Eh]
	 Same-Spin Energy          =      -0.4057975878651149 [Eh]
	 Opposite-Spin Energy      =      -1.3128040789814444 [Eh]
	 Correlation Energy        =      -1.7186016668465594 [Eh]
	 Total Energy              =    -421.6549762009093456 [Eh]

	 ================> DF-SCS-MP2 Energies <==================
	-----------------------------------------------------------
	 SCS Same-Spin Scale       =       0.3333333333333333 [-]
	 SCS Opposite-Spin Scale   =       1.2000000000000000 [-]
	 SCS Same-Spin Energy      =      -0.1352658626217050 [Eh]
	 SCS Opposite-Spin Energy  =      -1.5753648947777332 [Eh]
	 SCS Correlation Energy    =      -1.7106307573994382 [Eh]
	 SCS Total Energy          =    -421.6470052914622215 [Eh]
	-----------------------------------------------------------

  Dipole Moment: [D]
     X:     0.0960      Y:    -0.5052      Z:     0.0000     Total:     0.5142

*** Psi4 exiting successfully. Buy a developer a beer!
