                               Psi4 1.3.2 release

  ==> Input File <==

--------------------------------------------------------------------------
#psi4
#
memory 32 gb

molecule  {
0 1
  O        1.1383137    -0.5185774    -0.0000365
  O       -1.0848130    -0.4327500    -0.0000360
  O        0.0000000     1.5813200     0.0000210
  C        2.3404510     0.2903800     0.0000000
  C       -2.3404490     0.2903790     0.0000040
  C        3.4330320    -0.7534130     0.0000320
  C       -3.4330330    -0.7534120     0.0000290
  C        0.0000010     0.3626890    -0.0000340
  H        2.3799910     0.9319240    -0.8843590
  H        2.3799380     0.9319250     0.8843600
  H       -2.3799400     0.9319200     0.8843670
  H       -2.3799890     0.9319290    -0.8843510
  H        4.4117640    -0.2654940     0.0000570
  H        3.3582860    -1.3857500     0.8869440
  H        3.3583340    -1.3857540    -0.8868810
  H       -4.4117630    -0.2654900     0.0000540
  H       -3.3583340    -1.3857510    -0.8868860
  H       -3.3582920    -1.3857530     0.8869380
units angstrom
no_reorient  #important for SAPT in psi4, default
symmetry c1  #important for SAPT in psi4, default
}

set PROPERTIES_ORIGIN ["COM"]
properties('MP2/aug-cc-pvtz', properties = ['dipole'])
--------------------------------------------------------------------------

    Molecular point group: c1
  Charge       = 0
  Multiplicity = 1
  Basis Set: AUG-CC-PVTZ
    Blend: AUG-CC-PVTZ
  Basis Set: (AUG-CC-PVTZ AUX)
    Blend: AUG-CC-PVTZ-JKFIT

    Orbital Energies [Eh]
    ---------------------

    Doubly Occupied:

       1A    -20.613874     2A    -20.606476     3A    -20.560850
       4A    -11.440913     5A    -11.295889     6A    -11.285153
       7A    -11.228163     8A    -11.219022     9A     -1.485516
      10A     -1.383572    11A     -1.362946    12A     -1.052820
      13A     -1.020264    14A     -0.886362    15A     -0.842000
      16A     -0.794794    17A     -0.733088    18A     -0.701706
      19A     -0.694718    20A     -0.660512    21A     -0.600126
      22A     -0.595539    23A     -0.589890    24A     -0.554840
      25A     -0.538236    26A     -0.532074    27A     -0.521485
      28A     -0.512732    29A     -0.508963    30A     -0.474461
      31A     -0.474166    32A     -0.463541

  @DF-RHF Final Energy:  -419.92114201102845

   => Energetics <=

    Nuclear Repulsion Energy =            389.7564745702399023
    One-Electron Energy =               -1346.8858509088411211
    Two-Electron Energy =                 537.2082343275727681
    Total Energy =                       -419.9211420110284507
  Basis Set: (AUG-CC-PVTZ AUX)
    Blend: AUG-CC-PVTZ-RI
    Molecular point group: c1

    Geometry (in Angstrom), charge = 0, multiplicity = 1:

       Center              X                  Y                   Z               Mass
    ------------   -----------------  -----------------  -----------------  -----------------
         O            1.131065382308    -0.526636657080    -0.000034748083    15.994914619570
         O           -1.092061317692    -0.440809257080    -0.000034248083    15.994914619570
         O           -0.007248317692     1.573260742920     0.000022751917    15.994914619570
         C            2.333202682308     0.282320742920     0.000001751917    12.000000000000
         C           -2.347697317692     0.282319742920     0.000005751917    12.000000000000
         C            3.425783682308    -0.761472257080     0.000033751917    12.000000000000
         C           -3.440281317692    -0.761471257080     0.000030751917    12.000000000000
         C           -0.007247317692     0.354629742920    -0.000032248083    12.000000000000
         H            2.372742682308     0.923864742920    -0.884357248083     1.007825032230
         H            2.372689682308     0.923865742920     0.884361751917     1.007825032230
         H           -2.387188317692     0.923860742920     0.884368751917     1.007825032230
         H           -2.387237317692     0.923869742920    -0.884349248083     1.007825032230
         H            4.404515682308    -0.273553257080     0.000058751917     1.007825032230
         H            3.351037682308    -1.393809257080     0.886945751917     1.007825032230
         H            3.351085682308    -1.393813257080    -0.886879248083     1.007825032230
         H           -4.419011317692    -0.273549257080     0.000055751917     1.007825032230
         H           -3.365582317692    -1.393810257080    -0.886884248083     1.007825032230
         H           -3.365540317692    -1.393812257080     0.886939751917     1.007825032230

  Basis Set: AUG-CC-PVTZ
    Blend: AUG-CC-PVTZ
  Basis Set: (AUG-CC-PVTZ AUX)
    Blend: AUG-CC-PVTZ-JKFIT
	 Reference Energy          =    -419.9211420110284507 [Eh]
	 Singles Energy            =      -0.0000000000000000 [Eh]
	 Same-Spin Energy          =      -0.4076453155552284 [Eh]
	 Opposite-Spin Energy      =      -1.3177558569004613 [Eh]
	 Correlation Energy        =      -1.7254011724556897 [Eh]
	 Total Energy              =    -421.6465431834841411 [Eh]

	 ================> DF-SCS-MP2 Energies <==================
	-----------------------------------------------------------
	 SCS Same-Spin Scale       =       0.3333333333333333 [-]
	 SCS Opposite-Spin Scale   =       1.2000000000000000 [-]
	 SCS Same-Spin Energy      =      -0.1358817718517428 [Eh]
	 SCS Opposite-Spin Energy  =      -1.5813070282805535 [Eh]
	 SCS Correlation Energy    =      -1.7171888001322964 [Eh]
	 SCS Total Energy          =    -421.6383308111607562 [Eh]
	-----------------------------------------------------------

  Dipole Moment: [D]
     X:    -0.5969      Y:    -0.1897      Z:     0.0000     Total:     0.6263

*** Psi4 exiting successfully. Buy a developer a beer!
