                               Psi4 1.4a3.dev225

  ==> Input File <==

--------------------------------------------------------------------------
#psi4
#
memory 32 gb

molecule  {
0 1
  O        1.0848250    -0.4328680    -0.0000110
  O       -1.0848250    -0.4328670    -0.0000100
  O        0.0000000     1.5811570     0.0000070
  C        2.3404700     0.2905210    -0.0000040
  C       -2.3404700     0.2905210    -0.0000020
  C        3.4331290    -0.7532350     0.0000100
  C       -3.4331290    -0.7532350     0.0000090
  C        0.0000000     0.3125560    -0.0000034
  H        2.3799590     0.9318790    -0.8844210
  H        2.3799440     0.9318880     0.8844070
  H       -2.3799450     0.9318860     0.8844110
  H       -2.3799580     0.9318810    -0.8844170
  H        4.4117970    -0.2652620     0.0000140
  H        3.3585260    -1.3857810     0.8868320
  H        3.3585390    -1.3857920    -0.8868050
  H       -4.4117970    -0.2652620     0.0000130
  H       -3.3585380    -1.3857890    -0.8868080
  H       -3.3585270    -1.3857830     0.8868290
units angstrom
no_reorient  #important for SAPT in psi4, default
symmetry c1  #important for SAPT in psi4, default
}

set PROPERTIES_ORIGIN ["COM"]
properties('MP2/aug-cc-pvtz', properties = ['dipole'])
--------------------------------------------------------------------------

    Molecular point group: c1
  Charge       = 0
  Multiplicity = 1
  Basis Set: AUG-CC-PVTZ
    Blend: AUG-CC-PVTZ
  Basis Set: (AUG-CC-PVTZ AUX)
    Blend: AUG-CC-PVTZ-JKFIT

    Orbital Energies [Eh]
    ---------------------

    Doubly Occupied:

       1A    -20.612577     2A    -20.612552     3A    -20.530485
       4A    -11.430621     5A    -11.294920     6A    -11.294919
       7A    -11.227250     8A    -11.227250     9A     -1.504160
      10A     -1.408543    11A     -1.322796    12A     -1.062737
      13A     -1.030856    14A     -0.899844    15A     -0.849272
      16A     -0.793536    17A     -0.751719    18A     -0.711580
      19A     -0.684175    20A     -0.665117    21A     -0.602645
      22A     -0.598119    23A     -0.583336    24A     -0.556571
      25A     -0.544950    26A     -0.542168    27A     -0.521051
      28A     -0.514152    29A     -0.504728    30A     -0.468387
      31A     -0.457172    32A     -0.453647

  @DF-RHF Final Energy:  -419.93245121672669

   => Energetics <=

    Nuclear Repulsion Energy =            391.9713377467948021
    One-Electron Energy =               -1351.2839066911587906
    Two-Electron Energy =                 539.3801177276372982
    Total Energy =                       -419.9324512167266903
  Basis Set: (AUG-CC-PVTZ AUX)
    Blend: AUG-CC-PVTZ-RI
    Molecular point group: c1

    Geometry (in Angstrom), charge = 0, multiplicity = 1:

       Center              X                  Y                   Z               Mass
    ------------   -----------------  -----------------  -----------------  -----------------
         O            1.084825000000    -0.447471697263    -0.000010548559    15.994914619570
         O           -1.084825000000    -0.447470697263    -0.000009548559    15.994914619570
         O            0.000000000000     1.566553302737     0.000007451441    15.994914619570
         C            2.340470000000     0.275917302737    -0.000003548559    12.000000000000
         C           -2.340470000000     0.275917302737    -0.000001548559    12.000000000000
         C            3.433129000000    -0.767838697263     0.000010451441    12.000000000000
         C           -3.433129000000    -0.767838697263     0.000009451441    12.000000000000
         C            0.000000000000     0.297952302737    -0.000002948559    12.000000000000
         H            2.379959000000     0.917275302737    -0.884420548559     1.007825032230
         H            2.379944000000     0.917284302737     0.884407451441     1.007825032230
         H           -2.379945000000     0.917282302737     0.884411451441     1.007825032230
         H           -2.379958000000     0.917277302737    -0.884416548559     1.007825032230
         H            4.411797000000    -0.279865697263     0.000014451441     1.007825032230
         H            3.358526000000    -1.400384697263     0.886832451441     1.007825032230
         H            3.358539000000    -1.400395697263    -0.886804548559     1.007825032230
         H           -4.411797000000    -0.279865697263     0.000013451441     1.007825032230
         H           -3.358538000000    -1.400392697263    -0.886807548559     1.007825032230
         H           -3.358527000000    -1.400386697263     0.886829451441     1.007825032230

  Basis Set: AUG-CC-PVTZ
    Blend: AUG-CC-PVTZ
  Basis Set: (AUG-CC-PVTZ AUX)
    Blend: AUG-CC-PVTZ-JKFIT
	 Reference Energy          =    -419.9324512167266903 [Eh]
	 Singles Energy            =      -0.0000000000000000 [Eh]
	 Same-Spin Energy          =      -0.4058966638249975 [Eh]
	 Opposite-Spin Energy      =      -1.3124816584493393 [Eh]
	 Correlation Energy        =      -1.7183783222743367 [Eh]
	 Total Energy              =    -421.6508295390010517 [Eh]

	 ================> DF-SCS-MP2 Energies <==================
	-----------------------------------------------------------
	 SCS Same-Spin Scale       =       0.3333333333333333 [-]
	 SCS Opposite-Spin Scale   =       1.2000000000000000 [-]
	 SCS Same-Spin Energy      =      -0.1352988879416658 [Eh]
	 SCS Opposite-Spin Energy  =      -1.5749779901392071 [Eh]
	 SCS Correlation Energy    =      -1.7102768780808730 [Eh]
	 SCS Total Energy          =    -421.6427280948075804 [Eh]
	-----------------------------------------------------------

  Dipole Moment: [D]
     X:    -0.0000      Y:    -0.9118      Z:     0.0000     Total:     0.9118

*** Psi4 exiting successfully. Buy a developer a beer!
