                               Psi4 1.3.2 release

  ==> Input File <==

--------------------------------------------------------------------------
#psi4
#
memory 32 gb

molecule  {
0 1
  O        1.0915459    -0.4440017     0.0215860
  O       -1.0848130    -0.4327500    -0.0000360
  O        0.0000000     1.5813200     0.0000210
  C        2.3404510     0.2903800     0.0000000
  C       -2.3404490     0.2903790     0.0000040
  C        3.4330320    -0.7534130     0.0000320
  C       -3.4330330    -0.7534120     0.0000290
  C        0.0000010     0.3626890    -0.0000340
  H        2.3799910     0.9319240    -0.8843590
  H        2.3799380     0.9319250     0.8843600
  H       -2.3799400     0.9319200     0.8843670
  H       -2.3799890     0.9319290    -0.8843510
  H        4.4117640    -0.2654940     0.0000570
  H        3.3582860    -1.3857500     0.8869440
  H        3.3583340    -1.3857540    -0.8868810
  H       -4.4117630    -0.2654900     0.0000540
  H       -3.3583340    -1.3857510    -0.8868860
  H       -3.3582920    -1.3857530     0.8869380
units angstrom
no_reorient  #important for SAPT in psi4, default
symmetry c1  #important for SAPT in psi4, default
}

set PROPERTIES_ORIGIN ["COM"]
properties('MP2/aug-cc-pvtz', properties = ['dipole'])
--------------------------------------------------------------------------

    Molecular point group: c1
  Charge       = 0
  Multiplicity = 1
  Basis Set: AUG-CC-PVTZ
    Blend: AUG-CC-PVTZ
  Basis Set: (AUG-CC-PVTZ AUX)
    Blend: AUG-CC-PVTZ-JKFIT

    Orbital Energies [Eh]
    ---------------------

    Doubly Occupied:

       1A    -20.608011     2A    -20.606997     3A    -20.547220
       4A    -11.431030     5A    -11.292509     6A    -11.290953
       7A    -11.225943     8A    -11.224673     9A     -1.494515
      10A     -1.392961    11A     -1.358316    12A     -1.055902
      13A     -1.025626    14A     -0.891857    15A     -0.844828
      16A     -0.791747    17A     -0.743037    18A     -0.706163
      19A     -0.691480    20A     -0.662140    21A     -0.599240
      22A     -0.597026    23A     -0.591033    24A     -0.555039
      25A     -0.541389    26A     -0.536604    27A     -0.519188
      28A     -0.515882    29A     -0.507274    30A     -0.470574
      31A     -0.468770    32A     -0.464051

  @DF-RHF Final Energy:  -419.93560477845915

   => Energetics <=

    Nuclear Repulsion Energy =            391.6206206899432232
    One-Electron Energy =               -1350.6084972496107639
    Two-Electron Energy =                 539.0522717812083329
    Total Energy =                       -419.9356047784591510
  Basis Set: (AUG-CC-PVTZ AUX)
    Blend: AUG-CC-PVTZ-RI
    Molecular point group: c1

    Geometry (in Angstrom), charge = 0, multiplicity = 1:

       Center              X                  Y                   Z               Mass
    ------------   -----------------  -----------------  -----------------  -----------------
         O            1.090633580926    -0.462164308791     0.018658383204    15.994914619570
         O           -1.085725319074    -0.450912608791    -0.002963616796    15.994914619570
         O           -0.000912319074     1.563157391209    -0.002906616796    15.994914619570
         C            2.339538680926     0.272217391209    -0.002927616796    12.000000000000
         C           -2.341361319074     0.272216391209    -0.002923616796    12.000000000000
         C            3.432119680926    -0.771575608791    -0.002895616796    12.000000000000
         C           -3.433945319074    -0.771574608791    -0.002898616796    12.000000000000
         C           -0.000911319074     0.344526391209    -0.002961616796    12.000000000000
         H            2.379078680926     0.913761391209    -0.887286616796     1.007825032230
         H            2.379025680926     0.913762391209     0.881432383204     1.007825032230
         H           -2.380852319074     0.913757391209     0.881439383204     1.007825032230
         H           -2.380901319074     0.913766391209    -0.887278616796     1.007825032230
         H            4.410851680926    -0.283656608791    -0.002870616796     1.007825032230
         H            3.357373680926    -1.403912608791     0.884016383204     1.007825032230
         H            3.357421680926    -1.403916608791    -0.889808616796     1.007825032230
         H           -4.412675319074    -0.283652608791    -0.002873616796     1.007825032230
         H           -3.359246319074    -1.403913608791    -0.889813616796     1.007825032230
         H           -3.359204319074    -1.403915608791     0.884010383204     1.007825032230

  Basis Set: AUG-CC-PVTZ
    Blend: AUG-CC-PVTZ
  Basis Set: (AUG-CC-PVTZ AUX)
    Blend: AUG-CC-PVTZ-JKFIT
	 Reference Energy          =    -419.9356047784591510 [Eh]
	 Singles Energy            =      -0.0000000000000000 [Eh]
	 Same-Spin Energy          =      -0.4059961409703398 [Eh]
	 Opposite-Spin Energy      =      -1.3132331297213842 [Eh]
	 Correlation Energy        =      -1.7192292706917240 [Eh]
	 Total Energy              =    -421.6548340491508498 [Eh]

	 ================> DF-SCS-MP2 Energies <==================
	-----------------------------------------------------------
	 SCS Same-Spin Scale       =       0.3333333333333333 [-]
	 SCS Opposite-Spin Scale   =       1.2000000000000000 [-]
	 SCS Same-Spin Energy      =      -0.1353320469901133 [Eh]
	 SCS Opposite-Spin Energy  =      -1.5758797556656610 [Eh]
	 SCS Correlation Energy    =      -1.7112118026557743 [Eh]
	 SCS Total Energy          =    -421.6468165811149333 [Eh]
	-----------------------------------------------------------

  Dipole Moment: [D]
     X:    -0.0813      Y:    -0.4714      Z:    -0.0268     Total:     0.4791

*** Psi4 exiting successfully. Buy a developer a beer!
