                               Psi4 1.3.2 release

  ==> Input File <==

--------------------------------------------------------------------------
#psi4
#
memory 32 gb

molecule  {
0 1
  O        1.1672782    -0.5600386    -0.0000356
  O       -1.0848130    -0.4327500    -0.0000360
  O        0.0000000     1.5813200     0.0000210
  C        2.3404510     0.2903800     0.0000000
  C       -2.3404490     0.2903790     0.0000040
  C        3.4330320    -0.7534130     0.0000320
  C       -3.4330330    -0.7534120     0.0000290
  C        0.0000010     0.3626890    -0.0000340
  H        2.3799910     0.9319240    -0.8843590
  H        2.3799380     0.9319250     0.8843600
  H       -2.3799400     0.9319200     0.8843670
  H       -2.3799890     0.9319290    -0.8843510
  H        4.4117640    -0.2654940     0.0000570
  H        3.3582860    -1.3857500     0.8869440
  H        3.3583340    -1.3857540    -0.8868810
  H       -4.4117630    -0.2654900     0.0000540
  H       -3.3583340    -1.3857510    -0.8868860
  H       -3.3582920    -1.3857530     0.8869380
units angstrom
no_reorient  #important for SAPT in psi4, default
symmetry c1  #important for SAPT in psi4, default
}

set PROPERTIES_ORIGIN ["COM"]
properties('MP2/aug-cc-pvtz', properties = ['dipole'])
--------------------------------------------------------------------------

    Molecular point group: c1
  Charge       = 0
  Multiplicity = 1
  Basis Set: AUG-CC-PVTZ
    Blend: AUG-CC-PVTZ
  Basis Set: (AUG-CC-PVTZ AUX)
    Blend: AUG-CC-PVTZ-JKFIT

    Orbital Energies [Eh]
    ---------------------

    Doubly Occupied:

       1A    -20.617059     2A    -20.606087     3A    -20.567770
       4A    -11.445748     5A    -11.297669     6A    -11.282391
       7A    -11.229345     8A    -11.216052     9A     -1.483146
      10A     -1.381244    11A     -1.361335    12A     -1.052287
      13A     -1.016373    14A     -0.884813    15A     -0.840197
      16A     -0.796691    17A     -0.727230    18A     -0.700445
      19A     -0.696625    20A     -0.659216    21A     -0.601154
      22A     -0.595336    23A     -0.588381    24A     -0.555697
      25A     -0.536215    26A     -0.530677    27A     -0.523012
      28A     -0.510088    29A     -0.509271    30A     -0.476656
      31A     -0.473743    32A     -0.463097

  @DF-RHF Final Energy:  -419.90887215419440

   => Energetics <=

    Nuclear Repulsion Energy =            388.7380208766492160
    One-Electron Energy =               -1344.8436845466319483
    Two-Electron Energy =                 536.1967915157882771
    Total Energy =                       -419.9088721541944551
  Basis Set: (AUG-CC-PVTZ AUX)
    Blend: AUG-CC-PVTZ-RI
    Molecular point group: c1

    Geometry (in Angstrom), charge = 0, multiplicity = 1:

       Center              X                  Y                   Z               Mass
    ------------   -----------------  -----------------  -----------------  -----------------
         O            1.156105835593    -0.562480784952    -0.000033970013    15.994914619570
         O           -1.095985364407    -0.435192184952    -0.000034370013    15.994914619570
         O           -0.011172364407     1.578877815048     0.000022629987    15.994914619570
         C            2.329278635593     0.287937815048     0.000001629987    12.000000000000
         C           -2.351621364407     0.287936815048     0.000005629987    12.000000000000
         C            3.421859635593    -0.755855184952     0.000033629987    12.000000000000
         C           -3.444205364407    -0.755854184952     0.000030629987    12.000000000000
         C           -0.011171364407     0.360246815048    -0.000032370013    12.000000000000
         H            2.368818635593     0.929481815048    -0.884357370013     1.007825032230
         H            2.368765635593     0.929482815048     0.884361629987     1.007825032230
         H           -2.391112364407     0.929477815048     0.884368629987     1.007825032230
         H           -2.391161364407     0.929486815048    -0.884349370013     1.007825032230
         H            4.400591635593    -0.267936184952     0.000058629987     1.007825032230
         H            3.347113635593    -1.388192184952     0.886945629987     1.007825032230
         H            3.347161635593    -1.388196184952    -0.886879370013     1.007825032230
         H           -4.422935364407    -0.267932184952     0.000055629987     1.007825032230
         H           -3.369506364407    -1.388193184952    -0.886884370013     1.007825032230
         H           -3.369464364407    -1.388195184952     0.886939629987     1.007825032230

  Basis Set: AUG-CC-PVTZ
    Blend: AUG-CC-PVTZ
  Basis Set: (AUG-CC-PVTZ AUX)
    Blend: AUG-CC-PVTZ-JKFIT
	 Reference Energy          =    -419.9088721541943983 [Eh]
	 Singles Energy            =      -0.0000000000000000 [Eh]
	 Same-Spin Energy          =      -0.4087125449310471 [Eh]
	 Opposite-Spin Energy      =      -1.3206398401351109 [Eh]
	 Correlation Energy        =      -1.7293523850661581 [Eh]
	 Total Energy              =    -421.6382245392605341 [Eh]

	 ================> DF-SCS-MP2 Energies <==================
	-----------------------------------------------------------
	 SCS Same-Spin Scale       =       0.3333333333333333 [-]
	 SCS Opposite-Spin Scale   =       1.2000000000000000 [-]
	 SCS Same-Spin Energy      =      -0.1362375149770157 [Eh]
	 SCS Opposite-Spin Energy  =      -1.5847678081621330 [Eh]
	 SCS Correlation Energy    =      -1.7210053231391487 [Eh]
	 SCS Total Energy          =    -421.6298774773335367 [Eh]
	-----------------------------------------------------------

  Dipole Moment: [D]
     X:    -0.8813      Y:    -0.0381      Z:     0.0000     Total:     0.8821

*** Psi4 exiting successfully. Buy a developer a beer!
