                               Psi4 1.3.2 release

  ==> Input File <==

--------------------------------------------------------------------------
#psi4
#
memory 32 gb

molecule  {
0 1
  O        1.0563907    -0.4701248    -0.0000381
  O       -1.0848130    -0.4327500    -0.0000360
  O        0.0000000     1.5813200     0.0000210
  C        2.3404510     0.2903800     0.0000000
  C       -2.3404490     0.2903790     0.0000040
  C        3.4330320    -0.7534130     0.0000320
  C       -3.4330330    -0.7534120     0.0000290
  C        0.0000010     0.3626890    -0.0000340
  H        2.3799910     0.9319240    -0.8843590
  H        2.3799380     0.9319250     0.8843600
  H       -2.3799400     0.9319200     0.8843670
  H       -2.3799890     0.9319290    -0.8843510
  H        4.4117640    -0.2654940     0.0000570
  H        3.3582860    -1.3857500     0.8869440
  H        3.3583340    -1.3857540    -0.8868810
  H       -4.4117630    -0.2654900     0.0000540
  H       -3.3583340    -1.3857510    -0.8868860
  H       -3.3582920    -1.3857530     0.8869380
units angstrom
no_reorient  #important for SAPT in psi4, default
symmetry c1  #important for SAPT in psi4, default
}

set PROPERTIES_ORIGIN ["COM"]
properties('MP2/aug-cc-pvtz', properties = ['dipole'])
--------------------------------------------------------------------------

    Molecular point group: c1
  Charge       = 0
  Multiplicity = 1
  Basis Set: AUG-CC-PVTZ
    Blend: AUG-CC-PVTZ
  Basis Set: (AUG-CC-PVTZ AUX)
    Blend: AUG-CC-PVTZ-JKFIT

    Orbital Energies [Eh]
    ---------------------

    Doubly Occupied:

       1A    -20.607854     2A    -20.603489     3A    -20.545813
       4A    -11.427641     5A    -11.296659     6A    -11.289820
       7A    -11.227185     8A    -11.224225     9A     -1.493603
      10A     -1.385469    11A     -1.357337    12A     -1.055005
      13A     -1.025935    14A     -0.888748    15A     -0.844404
      16A     -0.790868    17A     -0.737831    18A     -0.703941
      19A     -0.690853    20A     -0.659279    21A     -0.598611
      22A     -0.595503    23A     -0.588476    24A     -0.555613
      25A     -0.539885    26A     -0.532327    27A     -0.522792
      28A     -0.515751    29A     -0.507234    30A     -0.470741
      31A     -0.469771    32A     -0.463718

  @DF-RHF Final Energy:  -419.93312067926064

   => Energetics <=

    Nuclear Repulsion Energy =            391.3757385595187088
    One-Electron Energy =               -1350.1849530450488146
    Two-Electron Energy =                 538.8760938062695232
    Total Energy =                       -419.9331206792605826
  Basis Set: (AUG-CC-PVTZ AUX)
    Blend: AUG-CC-PVTZ-RI
    Molecular point group: c1

    Geometry (in Angstrom), charge = 0, multiplicity = 1:

       Center              X                  Y                   Z               Mass
    ------------   -----------------  -----------------  -----------------  -----------------
         O            1.060241130053    -0.484748308694    -0.000036131318    15.994914619570
         O           -1.080962569947    -0.447373508694    -0.000034031318    15.994914619570
         O            0.003850430053     1.566696491306     0.000022968682    15.994914619570
         C            2.344301430053     0.275756491306     0.000001968682    12.000000000000
         C           -2.336598569947     0.275755491306     0.000005968682    12.000000000000
         C            3.436882430053    -0.768036508694     0.000033968682    12.000000000000
         C           -3.429182569947    -0.768035508694     0.000030968682    12.000000000000
         C            0.003851430053     0.348065491306    -0.000032031318    12.000000000000
         H            2.383841430053     0.917300491306    -0.884357031318     1.007825032230
         H            2.383788430053     0.917301491306     0.884361968682     1.007825032230
         H           -2.376089569947     0.917296491306     0.884368968682     1.007825032230
         H           -2.376138569947     0.917305491306    -0.884349031318     1.007825032230
         H            4.415614430053    -0.280117508694     0.000058968682     1.007825032230
         H            3.362136430053    -1.400373508694     0.886945968682     1.007825032230
         H            3.362184430053    -1.400377508694    -0.886879031318     1.007825032230
         H           -4.407912569947    -0.280113508694     0.000055968682     1.007825032230
         H           -3.354483569947    -1.400374508694    -0.886884031318     1.007825032230
         H           -3.354441569947    -1.400376508694     0.886939968682     1.007825032230

  Basis Set: AUG-CC-PVTZ
    Blend: AUG-CC-PVTZ
  Basis Set: (AUG-CC-PVTZ AUX)
    Blend: AUG-CC-PVTZ-JKFIT
	 Reference Energy          =    -419.9331206792606395 [Eh]
	 Singles Energy            =      -0.0000000000000000 [Eh]
	 Same-Spin Energy          =      -0.4061979990907661 [Eh]
	 Opposite-Spin Energy      =      -1.3140635949969373 [Eh]
	 Correlation Energy        =      -1.7202615940877033 [Eh]
	 Total Energy              =    -421.6533822733483703 [Eh]

	 ================> DF-SCS-MP2 Energies <==================
	-----------------------------------------------------------
	 SCS Same-Spin Scale       =       0.3333333333333333 [-]
	 SCS Opposite-Spin Scale   =       1.2000000000000000 [-]
	 SCS Same-Spin Energy      =      -0.1353993330302554 [Eh]
	 SCS Opposite-Spin Energy  =      -1.5768763139963247 [Eh]
	 SCS Correlation Energy    =      -1.7122756470265801 [Eh]
	 SCS Total Energy          =    -421.6453963262871980 [Eh]
	-----------------------------------------------------------

  Dipole Moment: [D]
     X:     0.1787      Y:    -0.4388      Z:     0.0000     Total:     0.4737

*** Psi4 exiting successfully. Buy a developer a beer!
