                               Psi4 1.3.2 release

  ==> Input File <==

--------------------------------------------------------------------------
#psi4
#
memory 32 gb

molecule  {
0 1
  O        1.0848120    -0.4327500    -0.0000380
  O       -1.0848130    -0.4327500    -0.0000360
  O        0.0000000     1.5813200     0.0000210
  C        2.3404510     0.2903800     0.0000000
  C       -2.3144473     0.3337596     0.0000047
  C        3.4330320    -0.7534130     0.0000320
  C       -3.4330330    -0.7534120     0.0000290
  C        0.0000010     0.3626890    -0.0000340
  H        2.3799910     0.9319240    -0.8843590
  H        2.3799380     0.9319250     0.8843600
  H       -2.3799400     0.9319200     0.8843670
  H       -2.3799890     0.9319290    -0.8843510
  H        4.4117640    -0.2654940     0.0000570
  H        3.3582860    -1.3857500     0.8869440
  H        3.3583340    -1.3857540    -0.8868810
  H       -4.4117630    -0.2654900     0.0000540
  H       -3.3583340    -1.3857510    -0.8868860
  H       -3.3582920    -1.3857530     0.8869380
units angstrom
no_reorient  #important for SAPT in psi4, default
symmetry c1  #important for SAPT in psi4, default
}

set PROPERTIES_ORIGIN ["COM"]
properties('MP2/aug-cc-pvtz', properties = ['dipole'])
--------------------------------------------------------------------------

    Molecular point group: c1
  Charge       = 0
  Multiplicity = 1
  Basis Set: AUG-CC-PVTZ
    Blend: AUG-CC-PVTZ
  Basis Set: (AUG-CC-PVTZ AUX)
    Blend: AUG-CC-PVTZ-JKFIT

    Orbital Energies [Eh]
    ---------------------

    Doubly Occupied:

       1A    -20.608984     2A    -20.607258     3A    -20.545619
       4A    -11.429283     5A    -11.292128     6A    -11.290055
       7A    -11.226093     8A    -11.225724     9A     -1.497813
      10A     -1.395435    11A     -1.357895    12A     -1.053246
      13A     -1.020295    14A     -0.892174    15A     -0.848154
      16A     -0.793392    17A     -0.744040    18A     -0.709201
      19A     -0.692313    20A     -0.664793    21A     -0.598645
      22A     -0.597880    23A     -0.589391    24A     -0.553478
      25A     -0.541695    26A     -0.536239    27A     -0.517636
      28A     -0.511451    29A     -0.506053    30A     -0.471837
      31A     -0.470399    32A     -0.466574

  @DF-RHF Final Energy:  -419.93434816675818

   => Energetics <=

    Nuclear Repulsion Energy =            391.8922883043237562
    One-Electron Energy =               -1351.1429281343978346
    Two-Electron Energy =                 539.3162916633159512
    Total Energy =                       -419.9343481667581273
  Basis Set: (AUG-CC-PVTZ AUX)
    Blend: AUG-CC-PVTZ-RI
    Molecular point group: c1

    Geometry (in Angstrom), charge = 0, multiplicity = 1:

       Center              X                  Y                   Z               Mass
    ------------   -----------------  -----------------  -----------------  -----------------
         O            1.082169145072    -0.456846196921    -0.000036116014    15.994914619570
         O           -1.087455854928    -0.456846196921    -0.000034116014    15.994914619570
         O           -0.002642854928     1.557223803079     0.000022883986    15.994914619570
         C            2.337808145072     0.266283803079     0.000001883986    12.000000000000
         C           -2.317090154928     0.309663403079     0.000006583986    12.000000000000
         C            3.430389145072    -0.777509196921     0.000033883986    12.000000000000
         C           -3.435675854928    -0.777508196921     0.000030883986    12.000000000000
         C           -0.002641854928     0.338592803079    -0.000032116014    12.000000000000
         H            2.377348145072     0.907827803079    -0.884357116014     1.007825032230
         H            2.377295145072     0.907828803079     0.884361883986     1.007825032230
         H           -2.382582854928     0.907823803079     0.884368883986     1.007825032230
         H           -2.382631854928     0.907832803079    -0.884349116014     1.007825032230
         H            4.409121145072    -0.289590196921     0.000058883986     1.007825032230
         H            3.355643145072    -1.409846196921     0.886945883986     1.007825032230
         H            3.355691145072    -1.409850196921    -0.886879116014     1.007825032230
         H           -4.414405854928    -0.289586196921     0.000055883986     1.007825032230
         H           -3.360976854928    -1.409847196921    -0.886884116014     1.007825032230
         H           -3.360934854928    -1.409849196921     0.886939883986     1.007825032230

  Basis Set: AUG-CC-PVTZ
    Blend: AUG-CC-PVTZ
  Basis Set: (AUG-CC-PVTZ AUX)
    Blend: AUG-CC-PVTZ-JKFIT
	 Reference Energy          =    -419.9343481667581841 [Eh]
	 Singles Energy            =      -0.0000000000000000 [Eh]
	 Same-Spin Energy          =      -0.4056445062396984 [Eh]
	 Opposite-Spin Energy      =      -1.3127836454207140 [Eh]
	 Correlation Energy        =      -1.7184281516604125 [Eh]
	 Total Energy              =    -421.6527763184186028 [Eh]

	 ================> DF-SCS-MP2 Energies <==================
	-----------------------------------------------------------
	 SCS Same-Spin Scale       =       0.3333333333333333 [-]
	 SCS Opposite-Spin Scale   =       1.2000000000000000 [-]
	 SCS Same-Spin Energy      =      -0.1352148354132328 [Eh]
	 SCS Opposite-Spin Energy  =      -1.5753403745048569 [Eh]
	 SCS Correlation Energy    =      -1.7105552099180896 [Eh]
	 SCS Total Energy          =    -421.6449033766762682 [Eh]
	-----------------------------------------------------------

  Dipole Moment: [D]
     X:     0.0819      Y:    -0.4526      Z:     0.0000     Total:     0.4599

*** Psi4 exiting successfully. Buy a developer a beer!
