                               Psi4 1.4a3.dev225

  ==> Input File <==

--------------------------------------------------------------------------
#psi4
#
memory 32 gb

molecule  {
0 1
  O        1.0848250    -0.4328680    -0.0000110
  O       -1.0848250    -0.4328670    -0.0000100
  O        0.0000000     1.5811570     0.0000070
  C        2.3404700     0.2905210    -0.0000040
  C       -2.3404700     0.2905210    -0.0000020
  C        3.4331290    -0.7532350     0.0000100
  C       -3.4331290    -0.7532350     0.0000090
  C        0.0000000     0.3425560    -0.0000032
  H        2.3799590     0.9318790    -0.8844210
  H        2.3799440     0.9318880     0.8844070
  H       -2.3799450     0.9318860     0.8844110
  H       -2.3799580     0.9318810    -0.8844170
  H        4.4117970    -0.2652620     0.0000140
  H        3.3585260    -1.3857810     0.8868320
  H        3.3585390    -1.3857920    -0.8868050
  H       -4.4117970    -0.2652620     0.0000130
  H       -3.3585380    -1.3857890    -0.8868080
  H       -3.3585270    -1.3857830     0.8868290
units angstrom
no_reorient  #important for SAPT in psi4, default
symmetry c1  #important for SAPT in psi4, default
}

set PROPERTIES_ORIGIN ["COM"]
properties('MP2/aug-cc-pvtz', properties = ['dipole'])
--------------------------------------------------------------------------

    Molecular point group: c1
  Charge       = 0
  Multiplicity = 1
  Basis Set: AUG-CC-PVTZ
    Blend: AUG-CC-PVTZ
  Basis Set: (AUG-CC-PVTZ AUX)
    Blend: AUG-CC-PVTZ-JKFIT

    Orbital Energies [Eh]
    ---------------------

    Doubly Occupied:

       1A    -20.609320     2A    -20.609296     3A    -20.539184
       4A    -11.429979     5A    -11.293146     6A    -11.293145
       7A    -11.226257     8A    -11.226256     9A     -1.498933
      10A     -1.399997    11A     -1.343784    12A     -1.059102
      13A     -1.028037    14A     -0.895787    15A     -0.846738
      16A     -0.792243    17A     -0.747106    18A     -0.708758
      19A     -0.687729    20A     -0.663434    21A     -0.600266
      22A     -0.597668    23A     -0.588250    24A     -0.555963
      25A     -0.543010    26A     -0.539241    27A     -0.519751
      28A     -0.515275    29A     -0.505668    30A     -0.465856
      31A     -0.465070    32A     -0.462804

  @DF-RHF Final Energy:  -419.93606292891167

   => Energetics <=

    Nuclear Repulsion Energy =            391.9285581494737016
    One-Electron Energy =               -1351.2151375952855688
    Two-Electron Energy =                 539.3505165169001430
    Total Energy =                       -419.9360629289117242
  Basis Set: (AUG-CC-PVTZ AUX)
    Blend: AUG-CC-PVTZ-RI
    Molecular point group: c1

    Geometry (in Angstrom), charge = 0, multiplicity = 1:

       Center              X                  Y                   Z               Mass
    ------------   -----------------  -----------------  -----------------  -----------------
         O            1.084825000000    -0.450520916898    -0.000010568888    15.994914619570
         O           -1.084825000000    -0.450519916898    -0.000009568888    15.994914619570
         O            0.000000000000     1.563504083102     0.000007431112    15.994914619570
         C            2.340470000000     0.272868083102    -0.000003568888    12.000000000000
         C           -2.340470000000     0.272868083102    -0.000001568888    12.000000000000
         C            3.433129000000    -0.770887916898     0.000010431112    12.000000000000
         C           -3.433129000000    -0.770887916898     0.000009431112    12.000000000000
         C            0.000000000000     0.324903083102    -0.000002768888    12.000000000000
         H            2.379959000000     0.914226083102    -0.884420568888     1.007825032230
         H            2.379944000000     0.914235083102     0.884407431112     1.007825032230
         H           -2.379945000000     0.914233083102     0.884411431112     1.007825032230
         H           -2.379958000000     0.914228083102    -0.884416568888     1.007825032230
         H            4.411797000000    -0.282914916898     0.000014431112     1.007825032230
         H            3.358526000000    -1.403433916898     0.886832431112     1.007825032230
         H            3.358539000000    -1.403444916898    -0.886804568888     1.007825032230
         H           -4.411797000000    -0.282914916898     0.000013431112     1.007825032230
         H           -3.358538000000    -1.403441916898    -0.886807568888     1.007825032230
         H           -3.358527000000    -1.403435916898     0.886829431112     1.007825032230

  Basis Set: AUG-CC-PVTZ
    Blend: AUG-CC-PVTZ
  Basis Set: (AUG-CC-PVTZ AUX)
    Blend: AUG-CC-PVTZ-JKFIT
	 Reference Energy          =    -419.9360629289116673 [Eh]
	 Singles Energy            =      -0.0000000000000000 [Eh]
	 Same-Spin Energy          =      -0.4058237798182454 [Eh]
	 Opposite-Spin Energy      =      -1.3125506565787743 [Eh]
	 Correlation Energy        =      -1.7183744363970197 [Eh]
	 Total Energy              =    -421.6544373653086950 [Eh]

	 ================> DF-SCS-MP2 Energies <==================
	-----------------------------------------------------------
	 SCS Same-Spin Scale       =       0.3333333333333333 [-]
	 SCS Opposite-Spin Scale   =       1.2000000000000000 [-]
	 SCS Same-Spin Energy      =      -0.1352745932727485 [Eh]
	 SCS Opposite-Spin Energy  =      -1.5750607878945291 [Eh]
	 SCS Correlation Energy    =      -1.7103353811672775 [Eh]
	 SCS Total Energy          =    -421.6463983100789505 [Eh]
	-----------------------------------------------------------

  Dipole Moment: [D]
     X:    -0.0000      Y:    -0.6746      Z:     0.0000     Total:     0.6746

*** Psi4 exiting successfully. Buy a developer a beer!
