                               Psi4 1.3.2 release

  ==> Input File <==

--------------------------------------------------------------------------
#psi4
#
memory 32 gb

molecule  {
0 1
  O        1.0266824    -0.5064849    -0.0000382
  O       -1.0848130    -0.4327500    -0.0000360
  O        0.0000000     1.5813200     0.0000210
  C        2.3404510     0.2903800     0.0000000
  C       -2.3404490     0.2903790     0.0000040
  C        3.4330320    -0.7534130     0.0000320
  C       -3.4330330    -0.7534120     0.0000290
  C        0.0000010     0.3626890    -0.0000340
  H        2.3799910     0.9319240    -0.8843590
  H        2.3799380     0.9319250     0.8843600
  H       -2.3799400     0.9319200     0.8843670
  H       -2.3799890     0.9319290    -0.8843510
  H        4.4117640    -0.2654940     0.0000570
  H        3.3582860    -1.3857500     0.8869440
  H        3.3583340    -1.3857540    -0.8868810
  H       -4.4117630    -0.2654900     0.0000540
  H       -3.3583340    -1.3857510    -0.8868860
  H       -3.3582920    -1.3857530     0.8869380
units angstrom
no_reorient  #important for SAPT in psi4, default
symmetry c1  #important for SAPT in psi4, default
}

set PROPERTIES_ORIGIN ["COM"]
properties('MP2/aug-cc-pvtz', properties = ['dipole'])
--------------------------------------------------------------------------

    Molecular point group: c1
  Charge       = 0
  Multiplicity = 1
  Basis Set: AUG-CC-PVTZ
    Blend: AUG-CC-PVTZ
  Basis Set: (AUG-CC-PVTZ AUX)
    Blend: AUG-CC-PVTZ-JKFIT

    Orbital Energies [Eh]
    ---------------------

    Doubly Occupied:

       1A    -20.608131     2A    -20.599879     3A    -20.546659
       4A    -11.426117     5A    -11.301467     6A    -11.287633
       7A    -11.228847     8A    -11.222856     9A     -1.491129
      10A     -1.376776    11A     -1.357613    12A     -1.053618
      13A     -1.025694    14A     -0.884870    15A     -0.844298
      16A     -0.789927    17A     -0.731205    18A     -0.701077
      19A     -0.690649    20A     -0.656658    21A     -0.599384
      22A     -0.592881    23A     -0.586509    24A     -0.555545
      25A     -0.537950    26A     -0.529120    27A     -0.524532
      28A     -0.514392    29A     -0.507710    30A     -0.473730
      31A     -0.469679    32A     -0.462277

  @DF-RHF Final Energy:  -419.92642185250645

   => Energetics <=

    Nuclear Repulsion Energy =            390.8718731359782055
    One-Electron Energy =               -1349.2389676526875064
    Two-Electron Energy =                 538.4406726642029071
    Total Energy =                       -419.9264218525064507
  Basis Set: (AUG-CC-PVTZ AUX)
    Blend: AUG-CC-PVTZ-RI
    Molecular point group: c1

    Geometry (in Angstrom), charge = 0, multiplicity = 1:

       Center              X                  Y                   Z               Mass
    ------------   -----------------  -----------------  -----------------  -----------------
         O            1.034557645155    -0.516182422367    -0.000036217770    15.994914619570
         O           -1.076937754845    -0.442447522367    -0.000034017770    15.994914619570
         O            0.007875245155     1.571622477633     0.000022982230    15.994914619570
         C            2.348326245155     0.280682477633     0.000001982230    12.000000000000
         C           -2.332573754845     0.280681477633     0.000005982230    12.000000000000
         C            3.440907245155    -0.763110522367     0.000033982230    12.000000000000
         C           -3.425157754845    -0.763109522367     0.000030982230    12.000000000000
         C            0.007876245155     0.352991477633    -0.000032017770    12.000000000000
         H            2.387866245155     0.922226477633    -0.884357017770     1.007825032230
         H            2.387813245155     0.922227477633     0.884361982230     1.007825032230
         H           -2.372064754845     0.922222477633     0.884368982230     1.007825032230
         H           -2.372113754845     0.922231477633    -0.884349017770     1.007825032230
         H            4.419639245155    -0.275191522367     0.000058982230     1.007825032230
         H            3.366161245155    -1.395447522367     0.886945982230     1.007825032230
         H            3.366209245155    -1.395451522367    -0.886879017770     1.007825032230
         H           -4.403887754845    -0.275187522367     0.000055982230     1.007825032230
         H           -3.350458754845    -1.395448522367    -0.886884017770     1.007825032230
         H           -3.350416754845    -1.395450522367     0.886939982230     1.007825032230

  Basis Set: AUG-CC-PVTZ
    Blend: AUG-CC-PVTZ
  Basis Set: (AUG-CC-PVTZ AUX)
    Blend: AUG-CC-PVTZ-JKFIT
	 Reference Energy          =    -419.9264218525064507 [Eh]
	 Singles Energy            =      -0.0000000000000000 [Eh]
	 Same-Spin Energy          =      -0.4067403787073966 [Eh]
	 Opposite-Spin Energy      =      -1.3157421368833302 [Eh]
	 Correlation Energy        =      -1.7224825155907268 [Eh]
	 Total Energy              =    -421.6489043680971918 [Eh]

	 ================> DF-SCS-MP2 Energies <==================
	-----------------------------------------------------------
	 SCS Same-Spin Scale       =       0.3333333333333333 [-]
	 SCS Opposite-Spin Scale   =       1.2000000000000000 [-]
	 SCS Same-Spin Energy      =      -0.1355801262357988 [Eh]
	 SCS Opposite-Spin Energy  =      -1.5788905642599962 [Eh]
	 SCS Correlation Energy    =      -1.7144706904957951 [Eh]
	 SCS Total Energy          =    -421.6408925430022236 [Eh]
	-----------------------------------------------------------

  Dipole Moment: [D]
     X:     0.3519      Y:    -0.3679      Z:     0.0000     Total:     0.5091

*** Psi4 exiting successfully. Buy a developer a beer!
