                               Psi4 1.3.2 release

  ==> Input File <==

--------------------------------------------------------------------------
#psi4
#
memory 32 gb

molecule  {
0 1
  O        1.1108138    -0.4761307    -0.0000373
  O       -1.0848130    -0.4327500    -0.0000360
  O        0.0000000     1.5813200     0.0000210
  C        2.3404510     0.2903800     0.0000000
  C       -2.3404490     0.2903790     0.0000040
  C        3.4330320    -0.7534130     0.0000320
  C       -3.4330330    -0.7534120     0.0000290
  C        0.0000010     0.3626890    -0.0000340
  H        2.3799910     0.9319240    -0.8843590
  H        2.3799380     0.9319250     0.8843600
  H       -2.3799400     0.9319200     0.8843670
  H       -2.3799890     0.9319290    -0.8843510
  H        4.4117640    -0.2654940     0.0000570
  H        3.3582860    -1.3857500     0.8869440
  H        3.3583340    -1.3857540    -0.8868810
  H       -4.4117630    -0.2654900     0.0000540
  H       -3.3583340    -1.3857510    -0.8868860
  H       -3.3582920    -1.3857530     0.8869380
units angstrom
no_reorient  #important for SAPT in psi4, default
symmetry c1  #important for SAPT in psi4, default
}

set PROPERTIES_ORIGIN ["COM"]
properties('MP2/aug-cc-pvtz', properties = ['dipole'])
--------------------------------------------------------------------------

    Molecular point group: c1
  Charge       = 0
  Multiplicity = 1
  Basis Set: AUG-CC-PVTZ
    Blend: AUG-CC-PVTZ
  Basis Set: (AUG-CC-PVTZ AUX)
    Blend: AUG-CC-PVTZ-JKFIT

    Orbital Energies [Eh]
    ---------------------

    Doubly Occupied:

       1A    -20.610539     2A    -20.606819     3A    -20.553259
       4A    -11.435448     5A    -11.293984     6A    -11.288337
       7A    -11.226908     8A    -11.222202     9A     -1.489784
      10A     -1.388696    11A     -1.361053    12A     -1.054184
      13A     -1.023641    14A     -0.889031    15A     -0.843728
      16A     -0.792973    17A     -0.738916    18A     -0.703873
      19A     -0.692816    20A     -0.661584    21A     -0.599252
      22A     -0.596346    23A     -0.590867    24A     -0.554570
      25A     -0.540145    26A     -0.534442    27A     -0.519913
      28A     -0.515398    29A     -0.507894    30A     -0.472860
      31A     -0.471265    32A     -0.463909

  @DF-RHF Final Energy:  -419.93071669863497

   => Energetics <=

    Nuclear Repulsion Energy =            390.8162250127472817
    One-Electron Energy =               -1349.0046037695590257
    Two-Electron Energy =                 538.2576620581767202
    Total Energy =                       -419.9307166986350239
  Basis Set: (AUG-CC-PVTZ AUX)
    Blend: AUG-CC-PVTZ-RI
    Molecular point group: c1

    Geometry (in Angstrom), charge = 0, multiplicity = 1:

       Center              X                  Y                   Z               Mass
    ------------   -----------------  -----------------  -----------------  -----------------
         O            1.107291108239    -0.489940542580    -0.000035439700    15.994914619570
         O           -1.088335691761    -0.446559842580    -0.000034139700    15.994914619570
         O           -0.003522691761     1.567510157420     0.000022860300    15.994914619570
         C            2.336928308239     0.276570157420     0.000001860300    12.000000000000
         C           -2.343971691761     0.276569157420     0.000005860300    12.000000000000
         C            3.429509308239    -0.767222842580     0.000033860300    12.000000000000
         C           -3.436555691761    -0.767221842580     0.000030860300    12.000000000000
         C           -0.003521691761     0.348879157420    -0.000032139700    12.000000000000
         H            2.376468308239     0.918114157420    -0.884357139700     1.007825032230
         H            2.376415308239     0.918115157420     0.884361860300     1.007825032230
         H           -2.383462691761     0.918110157420     0.884368860300     1.007825032230
         H           -2.383511691761     0.918119157420    -0.884349139700     1.007825032230
         H            4.408241308239    -0.279303842580     0.000058860300     1.007825032230
         H            3.354763308239    -1.399559842580     0.886945860300     1.007825032230
         H            3.354811308239    -1.399563842580    -0.886879139700     1.007825032230
         H           -4.415285691761    -0.279299842580     0.000055860300     1.007825032230
         H           -3.361856691761    -1.399560842580    -0.886884139700     1.007825032230
         H           -3.361814691761    -1.399562842580     0.886939860300     1.007825032230

  Basis Set: AUG-CC-PVTZ
    Blend: AUG-CC-PVTZ
  Basis Set: (AUG-CC-PVTZ AUX)
    Blend: AUG-CC-PVTZ-JKFIT
	 Reference Energy          =    -419.9307166986349671 [Eh]
	 Singles Energy            =      -0.0000000000000000 [Eh]
	 Same-Spin Energy          =      -0.4066628566823874 [Eh]
	 Opposite-Spin Energy      =      -1.3150729626579682 [Eh]
	 Correlation Energy        =      -1.7217358193403558 [Eh]
	 Total Energy              =    -421.6524525179753482 [Eh]

	 ================> DF-SCS-MP2 Energies <==================
	-----------------------------------------------------------
	 SCS Same-Spin Scale       =       0.3333333333333333 [-]
	 SCS Opposite-Spin Scale   =       1.2000000000000000 [-]
	 SCS Same-Spin Energy      =      -0.1355542855607958 [Eh]
	 SCS Opposite-Spin Energy  =      -1.5780875551895619 [Eh]
	 SCS Correlation Energy    =      -1.7136418407503577 [Eh]
	 SCS Total Energy          =    -421.6443585393853368 [Eh]
	-----------------------------------------------------------

  Dipole Moment: [D]
     X:    -0.3031      Y:    -0.3488      Z:     0.0000     Total:     0.4621

*** Psi4 exiting successfully. Buy a developer a beer!
