                               Psi4 1.3.2 release

  ==> Input File <==

--------------------------------------------------------------------------
#psi4
#
memory 32 gb

molecule  {
0 1
  O        1.0848120    -0.4327500    -0.0000380
  O       -1.0848130    -0.4327500    -0.0000360
  O        0.0000000     1.5813200     0.0000210
  C        2.3404510     0.2903800     0.0000000
  C       -2.3404490     0.2903790     0.0000040
  C        3.4330320    -0.7534130     0.0000320
  C       -3.4330330    -0.7534120     0.0000290
  C        0.0000011     0.2626890    -0.0000385
  H        2.3799910     0.9319240    -0.8843590
  H        2.3799380     0.9319250     0.8843600
  H       -2.3799400     0.9319200     0.8843670
  H       -2.3799890     0.9319290    -0.8843510
  H        4.4117640    -0.2654940     0.0000570
  H        3.3582860    -1.3857500     0.8869440
  H        3.3583340    -1.3857540    -0.8868810
  H       -4.4117630    -0.2654900     0.0000540
  H       -3.3583340    -1.3857510    -0.8868860
  H       -3.3582920    -1.3857530     0.8869380
units angstrom
no_reorient  #important for SAPT in psi4, default
symmetry c1  #important for SAPT in psi4, default
}

set PROPERTIES_ORIGIN ["COM"]
properties('MP2/aug-cc-pvtz', properties = ['dipole'])
--------------------------------------------------------------------------

    Molecular point group: c1
  Charge       = 0
  Multiplicity = 1
  Basis Set: AUG-CC-PVTZ
    Blend: AUG-CC-PVTZ
  Basis Set: (AUG-CC-PVTZ AUX)
    Blend: AUG-CC-PVTZ-JKFIT

    Orbital Energies [Eh]
    ---------------------

    Doubly Occupied:

       1A    -20.617691     2A    -20.617667     3A    -20.515985
       4A    -11.430870     5A    -11.297851     6A    -11.297849
       7A    -11.228856     8A    -11.228855     9A     -1.515293
      10A     -1.423103    11A     -1.287476    12A     -1.068754
      13A     -1.035746    14A     -0.906361    15A     -0.854042
      16A     -0.795503    17A     -0.760305    18A     -0.717137
      19A     -0.681761    20A     -0.667879    21A     -0.607005
      22A     -0.600163    23A     -0.574571    24A     -0.556265
      25A     -0.548219    26A     -0.546981    27A     -0.523551
      28A     -0.509933    29A     -0.505119    30A     -0.472369
      31A     -0.442242    32A     -0.436351

  @DF-RHF Final Energy:  -419.92105141203348

   => Energetics <=

    Nuclear Repulsion Energy =            392.0849678931638778
    One-Electron Energy =               -1351.4685295226047401
    Two-Electron Energy =                 539.4625102174073845
    Total Energy =                       -419.9210514120335347
  Basis Set: (AUG-CC-PVTZ AUX)
    Blend: AUG-CC-PVTZ-RI
    Molecular point group: c1

    Geometry (in Angstrom), charge = 0, multiplicity = 1:

       Center              X                  Y                   Z               Mass
    ------------   -----------------  -----------------  -----------------  -----------------
         O            1.084811964714    -0.442272898895    -0.000035587483    15.994914619570
         O           -1.084813035286    -0.442272898895    -0.000033587483    15.994914619570
         O           -0.000000035286     1.571797101105     0.000023412517    15.994914619570
         C            2.340450964714     0.280857101105     0.000002412517    12.000000000000
         C           -2.340449035286     0.280856101105     0.000006412517    12.000000000000
         C            3.433031964714    -0.762935898895     0.000034412517    12.000000000000
         C           -3.433033035286    -0.762934898895     0.000031412517    12.000000000000
         C            0.000001064714     0.253166101105    -0.000036087483    12.000000000000
         H            2.379990964714     0.922401101105    -0.884356587483     1.007825032230
         H            2.379937964714     0.922402101105     0.884362412517     1.007825032230
         H           -2.379940035286     0.922397101105     0.884369412517     1.007825032230
         H           -2.379989035286     0.922406101105    -0.884348587483     1.007825032230
         H            4.411763964714    -0.275016898895     0.000059412517     1.007825032230
         H            3.358285964714    -1.395272898895     0.886946412517     1.007825032230
         H            3.358333964714    -1.395276898895    -0.886878587483     1.007825032230
         H           -4.411763035286    -0.275012898895     0.000056412517     1.007825032230
         H           -3.358334035286    -1.395273898895    -0.886883587483     1.007825032230
         H           -3.358292035286    -1.395275898895     0.886940412517     1.007825032230

  Basis Set: AUG-CC-PVTZ
    Blend: AUG-CC-PVTZ
  Basis Set: (AUG-CC-PVTZ AUX)
    Blend: AUG-CC-PVTZ-JKFIT
	 Reference Energy          =    -419.9210514120334778 [Eh]
	 Singles Energy            =      -0.0000000000000000 [Eh]
	 Same-Spin Energy          =      -0.4059710566483833 [Eh]
	 Opposite-Spin Energy      =      -1.3123692479476738 [Eh]
	 Correlation Energy        =      -1.7183403045960572 [Eh]
	 Total Energy              =    -421.6393917166295182 [Eh]

	 ================> DF-SCS-MP2 Energies <==================
	-----------------------------------------------------------
	 SCS Same-Spin Scale       =       0.3333333333333333 [-]
	 SCS Opposite-Spin Scale   =       1.2000000000000000 [-]
	 SCS Same-Spin Energy      =      -0.1353236855494611 [Eh]
	 SCS Opposite-Spin Energy  =      -1.5748430975372085 [Eh]
	 SCS Correlation Energy    =      -1.7101667830866696 [Eh]
	 SCS Total Energy          =    -421.6312181951201410 [Eh]
	-----------------------------------------------------------

  Dipole Moment: [D]
     X:     0.0000      Y:    -1.3056      Z:     0.0000     Total:     1.3056

*** Psi4 exiting successfully. Buy a developer a beer!
