                               Psi4 1.3.2 release

  ==> Input File <==

--------------------------------------------------------------------------
#psi4
#
memory 32 gb

molecule  {
0 1
  O        1.1119116    -0.3944061    -0.0000355
  O       -1.0848130    -0.4327500    -0.0000360
  O        0.0000000     1.5813200     0.0000210
  C        2.3404510     0.2903800     0.0000000
  C       -2.3404490     0.2903790     0.0000040
  C        3.4330320    -0.7534130     0.0000320
  C       -3.4330330    -0.7534120     0.0000290
  C        0.0000010     0.3626890    -0.0000340
  H        2.3799910     0.9319240    -0.8843590
  H        2.3799380     0.9319250     0.8843600
  H       -2.3799400     0.9319200     0.8843670
  H       -2.3799890     0.9319290    -0.8843510
  H        4.4117640    -0.2654940     0.0000570
  H        3.3582860    -1.3857500     0.8869440
  H        3.3583340    -1.3857540    -0.8868810
  H       -4.4117630    -0.2654900     0.0000540
  H       -3.3583340    -1.3857510    -0.8868860
  H       -3.3582920    -1.3857530     0.8869380
units angstrom
no_reorient  #important for SAPT in psi4, default
symmetry c1  #important for SAPT in psi4, default
}

set PROPERTIES_ORIGIN ["COM"]
properties('MP2/aug-cc-pvtz', properties = ['dipole'])
--------------------------------------------------------------------------

    Molecular point group: c1
  Charge       = 0
  Multiplicity = 1
  Basis Set: AUG-CC-PVTZ
    Blend: AUG-CC-PVTZ
  Basis Set: (AUG-CC-PVTZ AUX)
    Blend: AUG-CC-PVTZ-JKFIT

    Orbital Energies [Eh]
    ---------------------

    Doubly Occupied:

       1A    -20.610626     2A    -20.605798     3A    -20.544146
       4A    -11.431327     5A    -11.294054     6A    -11.287417
       7A    -11.226931     8A    -11.224018     9A     -1.500225
      10A     -1.403568    11A     -1.357204    12A     -1.058633
      13A     -1.026593    14A     -0.897820    15A     -0.846613
      16A     -0.791327    17A     -0.750947    18A     -0.710808
      19A     -0.691190    20A     -0.665667    21A     -0.602956
      22A     -0.597203    23A     -0.593593    24A     -0.554972
      25A     -0.543537    26A     -0.541511    27A     -0.519657
      28A     -0.510759    29A     -0.507386    30A     -0.468949
      31A     -0.467763    32A     -0.460707

  @DF-RHF Final Energy:  -419.93748682838157

   => Energetics <=

    Nuclear Repulsion Energy =            392.4881656249532398
    One-Electron Energy =               -1352.2634950666886198
    Two-Electron Energy =                 539.8378426133538142
    Total Energy =                       -419.9374868283815658
  Basis Set: (AUG-CC-PVTZ AUX)
    Blend: AUG-CC-PVTZ-RI
    Molecular point group: c1

    Geometry (in Angstrom), charge = 0, multiplicity = 1:

       Center              X                  Y                   Z               Mass
    ------------   -----------------  -----------------  -----------------  -----------------
         O            1.108240180711    -0.419287811529    -0.000033883560    15.994914619570
         O           -1.088484419289    -0.457631711529    -0.000034383560    15.994914619570
         O           -0.003671419289     1.556438288471     0.000022616440    15.994914619570
         C            2.336779580711     0.265498288471     0.000001616440    12.000000000000
         C           -2.344120419289     0.265497288471     0.000005616440    12.000000000000
         C            3.429360580711    -0.778294711529     0.000033616440    12.000000000000
         C           -3.436704419289    -0.778293711529     0.000030616440    12.000000000000
         C           -0.003670419289     0.337807288471    -0.000032383560    12.000000000000
         H            2.376319580711     0.907042288471    -0.884357383560     1.007825032230
         H            2.376266580711     0.907043288471     0.884361616440     1.007825032230
         H           -2.383611419289     0.907038288471     0.884368616440     1.007825032230
         H           -2.383660419289     0.907047288471    -0.884349383560     1.007825032230
         H            4.408092580711    -0.290375711529     0.000058616440     1.007825032230
         H            3.354614580711    -1.410631711529     0.886945616440     1.007825032230
         H            3.354662580711    -1.410635711529    -0.886879383560     1.007825032230
         H           -4.415434419289    -0.290371711529     0.000055616440     1.007825032230
         H           -3.362005419289    -1.410632711529    -0.886884383560     1.007825032230
         H           -3.361963419289    -1.410634711529     0.886939616440     1.007825032230

  Basis Set: AUG-CC-PVTZ
    Blend: AUG-CC-PVTZ
  Basis Set: (AUG-CC-PVTZ AUX)
    Blend: AUG-CC-PVTZ-JKFIT
	 Reference Energy          =    -419.9374868283815658 [Eh]
	 Singles Energy            =      -0.0000000000000000 [Eh]
	 Same-Spin Energy          =      -0.4054548523834456 [Eh]
	 Opposite-Spin Energy      =      -1.3113597969893789 [Eh]
	 Correlation Energy        =      -1.7168146493728245 [Eh]
	 Total Energy              =    -421.6543014777544158 [Eh]

	 ================> DF-SCS-MP2 Energies <==================
	-----------------------------------------------------------
	 SCS Same-Spin Scale       =       0.3333333333333333 [-]
	 SCS Opposite-Spin Scale   =       1.2000000000000000 [-]
	 SCS Same-Spin Energy      =      -0.1351516174611485 [Eh]
	 SCS Opposite-Spin Energy  =      -1.5736317563872546 [Eh]
	 SCS Correlation Energy    =      -1.7087833738484031 [Eh]
	 SCS Total Energy          =    -421.6462702022299709 [Eh]
	-----------------------------------------------------------

  Dipole Moment: [D]
     X:    -0.1839      Y:    -0.5992      Z:     0.0000     Total:     0.6268

*** Psi4 exiting successfully. Buy a developer a beer!
