                               Psi4 1.3.2 release

  ==> Input File <==

--------------------------------------------------------------------------
#psi4
#
memory 32 gb

molecule  {
0 1
  O        1.0848120    -0.4327500    -0.0000380
  O       -1.0848130    -0.4327500    -0.0000360
  O        0.0000000     1.5813200     0.0000210
  C        2.3404510     0.2903800     0.0000000
  C       -2.3404490     0.2903790     0.0000040
  C        3.4330320    -0.7534130     0.0000320
  C       -3.4330330    -0.7534120     0.0000290
  C        0.1612883     0.2444249    -0.0000346
  H        2.3799910     0.9319240    -0.8843590
  H        2.3799380     0.9319250     0.8843600
  H       -2.3799400     0.9319200     0.8843670
  H       -2.3799890     0.9319290    -0.8843510
  H        4.4117640    -0.2654940     0.0000570
  H        3.3582860    -1.3857500     0.8869440
  H        3.3583340    -1.3857540    -0.8868810
  H       -4.4117630    -0.2654900     0.0000540
  H       -3.3583340    -1.3857510    -0.8868860
  H       -3.3582920    -1.3857530     0.8869380
units angstrom
no_reorient  #important for SAPT in psi4, default
symmetry c1  #important for SAPT in psi4, default
}

set PROPERTIES_ORIGIN ["COM"]
properties('MP2/aug-cc-pvtz', properties = ['dipole'])
--------------------------------------------------------------------------

    Molecular point group: c1
  Charge       = 0
  Multiplicity = 1
  Basis Set: AUG-CC-PVTZ
    Blend: AUG-CC-PVTZ
  Basis Set: (AUG-CC-PVTZ AUX)
    Blend: AUG-CC-PVTZ-JKFIT

    Orbital Energies [Eh]
    ---------------------

    Doubly Occupied:

       1A    -20.660220     2A    -20.577711     3A    -20.508944
       4A    -11.430690     5A    -11.324124     6A    -11.275406
       7A    -11.245755     8A    -11.213999     9A     -1.590593
      10A     -1.380747    11A     -1.267107    12A     -1.093291
      13A     -1.019461    14A     -0.924355    15A     -0.844952
      16A     -0.826867    17A     -0.751978    18A     -0.741600
      19A     -0.696161    20A     -0.652409    21A     -0.616242
      22A     -0.593807    23A     -0.575439    24A     -0.561007
      25A     -0.549296    26A     -0.538840    27A     -0.529299
      28A     -0.517323    29A     -0.484241    30A     -0.457787
      31A     -0.426201    32A     -0.425536

  @DF-RHF Final Energy:  -419.86892432051638

   => Energetics <=

    Nuclear Repulsion Energy =            392.4792121817528141
    One-Electron Energy =               -1352.0934946529184799
    Two-Electron Energy =                 539.7453581506492810
    Total Energy =                       -419.8689243205163848
  Basis Set: (AUG-CC-PVTZ AUX)
    Blend: AUG-CC-PVTZ-RI
    Molecular point group: c1

    Geometry (in Angstrom), charge = 0, multiplicity = 1:

       Center              X                  Y                   Z               Mass
    ------------   -----------------  -----------------  -----------------  -----------------
         O            1.068418628145    -0.440416523817    -0.000035983881    15.994914619570
         O           -1.101206371855    -0.440416523817    -0.000033983881    15.994914619570
         O           -0.016393371855     1.573653476183     0.000023016119    15.994914619570
         C            2.324057628145     0.282713476183     0.000002016119    12.000000000000
         C           -2.356842371855     0.282712476183     0.000006016119    12.000000000000
         C            3.416638628145    -0.761079523817     0.000034016119    12.000000000000
         C           -3.449426371855    -0.761078523817     0.000031016119    12.000000000000
         C            0.144894928145     0.236758376183    -0.000032583881    12.000000000000
         H            2.363597628145     0.924257476183    -0.884356983881     1.007825032230
         H            2.363544628145     0.924258476183     0.884362016119     1.007825032230
         H           -2.396333371855     0.924253476183     0.884369016119     1.007825032230
         H           -2.396382371855     0.924262476183    -0.884348983881     1.007825032230
         H            4.395370628145    -0.273160523817     0.000059016119     1.007825032230
         H            3.341892628145    -1.393416523817     0.886946016119     1.007825032230
         H            3.341940628145    -1.393420523817    -0.886878983881     1.007825032230
         H           -4.428156371855    -0.273156523817     0.000056016119     1.007825032230
         H           -3.374727371855    -1.393417523817    -0.886883983881     1.007825032230
         H           -3.374685371855    -1.393419523817     0.886940016119     1.007825032230

  Basis Set: AUG-CC-PVTZ
    Blend: AUG-CC-PVTZ
  Basis Set: (AUG-CC-PVTZ AUX)
    Blend: AUG-CC-PVTZ-JKFIT
	 Reference Energy          =    -419.8689243205163848 [Eh]
	 Singles Energy            =      -0.0000000000000000 [Eh]
	 Same-Spin Energy          =      -0.4066586401229967 [Eh]
	 Opposite-Spin Energy      =      -1.3139363928632801 [Eh]
	 Correlation Energy        =      -1.7205950329862769 [Eh]
	 Total Energy              =    -421.5895193535026806 [Eh]

	 ================> DF-SCS-MP2 Energies <==================
	-----------------------------------------------------------
	 SCS Same-Spin Scale       =       0.3333333333333333 [-]
	 SCS Opposite-Spin Scale   =       1.2000000000000000 [-]
	 SCS Same-Spin Energy      =      -0.1355528800409989 [Eh]
	 SCS Opposite-Spin Energy  =      -1.5767236714359361 [Eh]
	 SCS Correlation Energy    =      -1.7122765514769349 [Eh]
	 SCS Total Energy          =    -421.5812008719933033 [Eh]
	-----------------------------------------------------------

  Dipole Moment: [D]
     X:     2.2034      Y:    -1.4901      Z:     0.0000     Total:     2.6600

*** Psi4 exiting successfully. Buy a developer a beer!
