                               Psi4 1.3.2 release

  ==> Input File <==

--------------------------------------------------------------------------
#psi4
#
memory 32 gb

molecule  {
0 1
  O        1.0848120    -0.4327500    -0.0000380
  O       -1.0848130    -0.4327500    -0.0000360
  O        0.0000000     1.5813200     0.0000210
  C        2.3404510     0.2903800     0.0000000
  C       -2.4091581     0.1551679     0.0000017
  C        3.4330320    -0.7534130     0.0000320
  C       -3.4330330    -0.7534120     0.0000290
  C        0.0000010     0.3626890    -0.0000340
  H        2.3799910     0.9319240    -0.8843590
  H        2.3799380     0.9319250     0.8843600
  H       -2.3799400     0.9319200     0.8843670
  H       -2.3799890     0.9319290    -0.8843510
  H        4.4117640    -0.2654940     0.0000570
  H        3.3582860    -1.3857500     0.8869440
  H        3.3583340    -1.3857540    -0.8868810
  H       -4.4117630    -0.2654900     0.0000540
  H       -3.3583340    -1.3857510    -0.8868860
  H       -3.3582920    -1.3857530     0.8869380
units angstrom
no_reorient  #important for SAPT in psi4, default
symmetry c1  #important for SAPT in psi4, default
}

set PROPERTIES_ORIGIN ["COM"]
properties('MP2/aug-cc-pvtz', properties = ['dipole'])
--------------------------------------------------------------------------

    Molecular point group: c1
  Charge       = 0
  Multiplicity = 1
  Basis Set: AUG-CC-PVTZ
    Blend: AUG-CC-PVTZ
  Basis Set: (AUG-CC-PVTZ AUX)
    Blend: AUG-CC-PVTZ-JKFIT

    Orbital Energies [Eh]
    ---------------------

    Doubly Occupied:

       1A    -20.606922     2A    -20.602505     3A    -20.543783
       4A    -11.430663     5A    -11.301312     6A    -11.291705
       7A    -11.225358     8A    -11.223049     9A     -1.493920
      10A     -1.392150    11A     -1.355846    12A     -1.082789
      13A     -1.037267    14A     -0.896146    15A     -0.837628
      16A     -0.782307    17A     -0.745732    18A     -0.703659
      19A     -0.688481    20A     -0.658826    21A     -0.611254
      22A     -0.601639    23A     -0.601332    24A     -0.569896
      25A     -0.548568    26A     -0.541550    27A     -0.517645
      28A     -0.510211    29A     -0.497280    30A     -0.467864
      31A     -0.465975    32A     -0.435941

  @DF-RHF Final Energy:  -419.90748635722809

   => Energetics <=

    Nuclear Repulsion Energy =            392.1888294643824793
    One-Electron Energy =               -1351.6542228286282352
    Two-Electron Energy =                 539.5579070070176613
    Total Energy =                       -419.9074863572280947
  Basis Set: (AUG-CC-PVTZ AUX)
    Blend: AUG-CC-PVTZ-RI
    Molecular point group: c1

    Geometry (in Angstrom), charge = 0, multiplicity = 1:

       Center              X                  Y                   Z               Mass
    ------------   -----------------  -----------------  -----------------  -----------------
         O            1.091795612772    -0.438694019645    -0.000035811092    15.994914619570
         O           -1.077829387228    -0.438694019645    -0.000033811092    15.994914619570
         O            0.006983612772     1.575375980355     0.000023188908    15.994914619570
         C            2.347434612772     0.284435980355     0.000002188908    12.000000000000
         C           -2.402174487228     0.149223880355     0.000003888908    12.000000000000
         C            3.440015612772    -0.759357019645     0.000034188908    12.000000000000
         C           -3.426049387228    -0.759356019645     0.000031188908    12.000000000000
         C            0.006984612772     0.356744980355    -0.000031811092    12.000000000000
         H            2.386974612772     0.925979980355    -0.884356811092     1.007825032230
         H            2.386921612772     0.925980980355     0.884362188908     1.007825032230
         H           -2.372956387228     0.925975980355     0.884369188908     1.007825032230
         H           -2.373005387228     0.925984980355    -0.884348811092     1.007825032230
         H            4.418747612772    -0.271438019645     0.000059188908     1.007825032230
         H            3.365269612772    -1.391694019645     0.886946188908     1.007825032230
         H            3.365317612772    -1.391698019645    -0.886878811092     1.007825032230
         H           -4.404779387228    -0.271434019645     0.000056188908     1.007825032230
         H           -3.351350387228    -1.391695019645    -0.886883811092     1.007825032230
         H           -3.351308387228    -1.391697019645     0.886940188908     1.007825032230

  Basis Set: AUG-CC-PVTZ
    Blend: AUG-CC-PVTZ
  Basis Set: (AUG-CC-PVTZ AUX)
    Blend: AUG-CC-PVTZ-JKFIT
	 Reference Energy          =    -419.9074863572280947 [Eh]
	 Singles Energy            =      -0.0000000000000000 [Eh]
	 Same-Spin Energy          =      -0.4074064809001885 [Eh]
	 Opposite-Spin Energy      =      -1.3144252602240378 [Eh]
	 Correlation Energy        =      -1.7218317411242263 [Eh]
	 Total Energy              =    -421.6293180983523143 [Eh]

	 ================> DF-SCS-MP2 Energies <==================
	-----------------------------------------------------------
	 SCS Same-Spin Scale       =       0.3333333333333333 [-]
	 SCS Opposite-Spin Scale   =       1.2000000000000000 [-]
	 SCS Same-Spin Energy      =      -0.1358021603000628 [Eh]
	 SCS Opposite-Spin Energy  =      -1.5773103122688454 [Eh]
	 SCS Correlation Energy    =      -1.7131124725689082 [Eh]
	 SCS Total Energy          =    -421.6205988297970180 [Eh]
	-----------------------------------------------------------

  Dipole Moment: [D]
     X:    -0.2205      Y:    -0.7434      Z:     0.0000     Total:     0.7754

*** Psi4 exiting successfully. Buy a developer a beer!
