                               Psi4 1.3.2 release

  ==> Input File <==

--------------------------------------------------------------------------
#psi4
#
memory 32 gb

molecule  {
0 1
  O        1.0848120    -0.4327500    -0.0000380
  O       -1.0848130    -0.4327500    -0.0000360
  O        0.0000000     1.5813200     0.0000210
  C        2.3404510     0.2903800     0.0000000
  C       -2.3649209     0.2461174     0.0000033
  C        3.4330320    -0.7534130     0.0000320
  C       -3.4330330    -0.7534120     0.0000290
  C        0.0000010     0.3626890    -0.0000340
  H        2.3799910     0.9319240    -0.8843590
  H        2.3799380     0.9319250     0.8843600
  H       -2.3799400     0.9319200     0.8843670
  H       -2.3799890     0.9319290    -0.8843510
  H        4.4117640    -0.2654940     0.0000570
  H        3.3582860    -1.3857500     0.8869440
  H        3.3583340    -1.3857540    -0.8868810
  H       -4.4117630    -0.2654900     0.0000540
  H       -3.3583340    -1.3857510    -0.8868860
  H       -3.3582920    -1.3857530     0.8869380
units angstrom
no_reorient  #important for SAPT in psi4, default
symmetry c1  #important for SAPT in psi4, default
}

set PROPERTIES_ORIGIN ["COM"]
properties('MP2/aug-cc-pvtz', properties = ['dipole'])
--------------------------------------------------------------------------

    Molecular point group: c1
  Charge       = 0
  Multiplicity = 1
  Basis Set: AUG-CC-PVTZ
    Blend: AUG-CC-PVTZ
  Basis Set: (AUG-CC-PVTZ AUX)
    Blend: AUG-CC-PVTZ-JKFIT

    Orbital Energies [Eh]
    ---------------------

    Doubly Occupied:

       1A    -20.606960     2A    -20.605353     3A    -20.544467
       4A    -11.429635     5A    -11.294517     6A    -11.291836
       7A    -11.225478     8A    -11.224856     9A     -1.495559
      10A     -1.393552    11A     -1.356615    12A     -1.062501
      13A     -1.031251    14A     -0.894006    15A     -0.842314
      16A     -0.788820    17A     -0.744897    18A     -0.705595
      19A     -0.689947    20A     -0.660377    21A     -0.599652
      22A     -0.598504    23A     -0.594384    24A     -0.558876
      25A     -0.542493    26A     -0.541736    27A     -0.520846
      28A     -0.516063    29A     -0.503193    30A     -0.468885
      31A     -0.466722    32A     -0.457012

  @DF-RHF Final Energy:  -419.93377590494077

   => Energetics <=

    Nuclear Repulsion Energy =            391.9712232376135148
    One-Electron Energy =               -1351.2961971069516949
    Two-Electron Energy =                 539.3911979643974064
    Total Energy =                       -419.9337759049408305
  Basis Set: (AUG-CC-PVTZ AUX)
    Blend: AUG-CC-PVTZ-RI
    Molecular point group: c1

    Geometry (in Angstrom), charge = 0, multiplicity = 1:

       Center              X                  Y                   Z               Mass
    ------------   -----------------  -----------------  -----------------  -----------------
         O            1.087299314811    -0.447938186351    -0.000035973717    15.994914619570
         O           -1.082325685189    -0.447938186351    -0.000033973717    15.994914619570
         O            0.002487314811     1.566131813649     0.000023026283    15.994914619570
         C            2.342938314811     0.275191813649     0.000002026283    12.000000000000
         C           -2.362433585189     0.230929213649     0.000005326283    12.000000000000
         C            3.435519314811    -0.768601186351     0.000034026283    12.000000000000
         C           -3.430545685189    -0.768600186351     0.000031026283    12.000000000000
         C            0.002488314811     0.347500813649    -0.000031973717    12.000000000000
         H            2.382478314811     0.916735813649    -0.884356973717     1.007825032230
         H            2.382425314811     0.916736813649     0.884362026283     1.007825032230
         H           -2.377452685189     0.916731813649     0.884369026283     1.007825032230
         H           -2.377501685189     0.916740813649    -0.884348973717     1.007825032230
         H            4.414251314811    -0.280682186351     0.000059026283     1.007825032230
         H            3.360773314811    -1.400938186351     0.886946026283     1.007825032230
         H            3.360821314811    -1.400942186351    -0.886878973717     1.007825032230
         H           -4.409275685189    -0.280678186351     0.000056026283     1.007825032230
         H           -3.355846685189    -1.400939186351    -0.886883973717     1.007825032230
         H           -3.355804685189    -1.400941186351     0.886940026283     1.007825032230

  Basis Set: AUG-CC-PVTZ
    Blend: AUG-CC-PVTZ
  Basis Set: (AUG-CC-PVTZ AUX)
    Blend: AUG-CC-PVTZ-JKFIT
	 Reference Energy          =    -419.9337759049407737 [Eh]
	 Singles Energy            =      -0.0000000000000000 [Eh]
	 Same-Spin Energy          =      -0.4060997217049602 [Eh]
	 Opposite-Spin Energy      =      -1.3128056005884525 [Eh]
	 Correlation Energy        =      -1.7189053222934128 [Eh]
	 Total Energy              =    -421.6526812272342113 [Eh]

	 ================> DF-SCS-MP2 Energies <==================
	-----------------------------------------------------------
	 SCS Same-Spin Scale       =       0.3333333333333333 [-]
	 SCS Opposite-Spin Scale   =       1.2000000000000000 [-]
	 SCS Same-Spin Energy      =      -0.1353665739016534 [Eh]
	 SCS Opposite-Spin Energy  =      -1.5753667207061430 [Eh]
	 SCS Correlation Energy    =      -1.7107332946077964 [Eh]
	 SCS Total Energy          =    -421.6445091995485654 [Eh]
	-----------------------------------------------------------

  Dipole Moment: [D]
     X:    -0.0768      Y:    -0.5846      Z:     0.0000     Total:     0.5896

*** Psi4 exiting successfully. Buy a developer a beer!
