                               Psi4 1.3.2 release

  ==> Input File <==

--------------------------------------------------------------------------
#psi4
#
memory 32 gb

molecule  {
0 1
  O        1.0985291    -0.4136963    -0.0000367
  O       -1.0848130    -0.4327500    -0.0000360
  O        0.0000000     1.5813200     0.0000210
  C        2.3404510     0.2903800     0.0000000
  C       -2.3404490     0.2903790     0.0000040
  C        3.4330320    -0.7534130     0.0000320
  C       -3.4330330    -0.7534120     0.0000290
  C        0.0000010     0.3626890    -0.0000340
  H        2.3799910     0.9319240    -0.8843590
  H        2.3799380     0.9319250     0.8843600
  H       -2.3799400     0.9319200     0.8843670
  H       -2.3799890     0.9319290    -0.8843510
  H        4.4117640    -0.2654940     0.0000570
  H        3.3582860    -1.3857500     0.8869440
  H        3.3583340    -1.3857540    -0.8868810
  H       -4.4117630    -0.2654900     0.0000540
  H       -3.3583340    -1.3857510    -0.8868860
  H       -3.3582920    -1.3857530     0.8869380
units angstrom
no_reorient  #important for SAPT in psi4, default
symmetry c1  #important for SAPT in psi4, default
}

set PROPERTIES_ORIGIN ["COM"]
properties('MP2/aug-cc-pvtz', properties = ['dipole'])
--------------------------------------------------------------------------

    Molecular point group: c1
  Charge       = 0
  Multiplicity = 1
  Basis Set: AUG-CC-PVTZ
    Blend: AUG-CC-PVTZ
  Basis Set: (AUG-CC-PVTZ AUX)
    Blend: AUG-CC-PVTZ-JKFIT

    Orbital Energies [Eh]
    ---------------------

    Doubly Occupied:

       1A    -20.608851     2A    -20.606494     3A    -20.544557
       4A    -11.430314     5A    -11.293009     6A    -11.289663
       7A    -11.226257     8A    -11.224797     9A     -1.498325
      10A     -1.398981    11A     -1.357167    12A     -1.057634
      13A     -1.026384    14A     -0.895380    15A     -0.845802
      16A     -0.791404    17A     -0.747720    18A     -0.708924
      19A     -0.691110    20A     -0.663949    21A     -0.600770
      22A     -0.597517    23A     -0.592278    24A     -0.555188
      25A     -0.542667    26A     -0.539562    27A     -0.519103
      28A     -0.513516    29A     -0.507219    30A     -0.469322
      31A     -0.467475    32A     -0.462840

  @DF-RHF Final Energy:  -419.93765701381290

   => Energetics <=

    Nuclear Repulsion Energy =            392.1976470738121634
    One-Electron Energy =               -1351.7222547136818775
    Two-Electron Energy =                 539.5869506260568187
    Total Energy =                       -419.9376570138128955
  Basis Set: (AUG-CC-PVTZ AUX)
    Blend: AUG-CC-PVTZ-RI
    Molecular point group: c1

    Geometry (in Angstrom), charge = 0, multiplicity = 1:

       Center              X                  Y                   Z               Mass
    ------------   -----------------  -----------------  -----------------  -----------------
         O            1.096670712359    -0.435964617687    -0.000034920987    15.994914619570
         O           -1.086671387641    -0.455018317687    -0.000034220987    15.994914619570
         O           -0.001858387641     1.559051682313     0.000022779013    15.994914619570
         C            2.338592612359     0.268111682313     0.000001779013    12.000000000000
         C           -2.342307387641     0.268110682313     0.000005779013    12.000000000000
         C            3.431173612359    -0.775681317687     0.000033779013    12.000000000000
         C           -3.434891387641    -0.775680317687     0.000030779013    12.000000000000
         C           -0.001857387641     0.340420682313    -0.000032220987    12.000000000000
         H            2.378132612359     0.909655682313    -0.884357220987     1.007825032230
         H            2.378079612359     0.909656682313     0.884361779013     1.007825032230
         H           -2.381798387641     0.909651682313     0.884368779013     1.007825032230
         H           -2.381847387641     0.909660682313    -0.884349220987     1.007825032230
         H            4.409905612359    -0.287762317687     0.000058779013     1.007825032230
         H            3.356427612359    -1.408018317687     0.886945779013     1.007825032230
         H            3.356475612359    -1.408022317687    -0.886879220987     1.007825032230
         H           -4.413621387641    -0.287758317687     0.000055779013     1.007825032230
         H           -3.360192387641    -1.408019317687    -0.886884220987     1.007825032230
         H           -3.360150387641    -1.408021317687     0.886939779013     1.007825032230

  Basis Set: AUG-CC-PVTZ
    Blend: AUG-CC-PVTZ
  Basis Set: (AUG-CC-PVTZ AUX)
    Blend: AUG-CC-PVTZ-JKFIT
	 Reference Energy          =    -419.9376570138128955 [Eh]
	 Singles Energy            =      -0.0000000000000000 [Eh]
	 Same-Spin Energy          =      -0.4055954936073313 [Eh]
	 Opposite-Spin Energy      =      -1.3119482734465679 [Eh]
	 Correlation Energy        =      -1.7175437670538991 [Eh]
	 Total Energy              =    -421.6552007808667781 [Eh]

	 ================> DF-SCS-MP2 Energies <==================
	-----------------------------------------------------------
	 SCS Same-Spin Scale       =       0.3333333333333333 [-]
	 SCS Opposite-Spin Scale   =       1.2000000000000000 [-]
	 SCS Same-Spin Energy      =      -0.1351984978691104 [Eh]
	 SCS Opposite-Spin Energy  =      -1.5743379281358816 [Eh]
	 SCS Correlation Energy    =      -1.7095364260049921 [Eh]
	 SCS Total Energy          =    -421.6471934398178973 [Eh]
	-----------------------------------------------------------

  Dipole Moment: [D]
     X:    -0.0913      Y:    -0.5568      Z:     0.0000     Total:     0.5642

*** Psi4 exiting successfully. Buy a developer a beer!
