                               Psi4 1.3.2 release

  ==> Input File <==

--------------------------------------------------------------------------
#psi4
#
memory 32 gb

molecule  {
0 1
  O        1.0784606    -0.4212780    -0.0216620
  O       -1.0848130    -0.4327500    -0.0000360
  O        0.0000000     1.5813200     0.0000210
  C        2.3404510     0.2903800     0.0000000
  C       -2.3404490     0.2903790     0.0000040
  C        3.4330320    -0.7534130     0.0000320
  C       -3.4330330    -0.7534120     0.0000290
  C        0.0000010     0.3626890    -0.0000340
  H        2.3799910     0.9319240    -0.8843590
  H        2.3799380     0.9319250     0.8843600
  H       -2.3799400     0.9319200     0.8843670
  H       -2.3799890     0.9319290    -0.8843510
  H        4.4117640    -0.2654940     0.0000570
  H        3.3582860    -1.3857500     0.8869440
  H        3.3583340    -1.3857540    -0.8868810
  H       -4.4117630    -0.2654900     0.0000540
  H       -3.3583340    -1.3857510    -0.8868860
  H       -3.3582920    -1.3857530     0.8869380
units angstrom
no_reorient  #important for SAPT in psi4, default
symmetry c1  #important for SAPT in psi4, default
}

set PROPERTIES_ORIGIN ["COM"]
properties('MP2/aug-cc-pvtz', properties = ['dipole'])
--------------------------------------------------------------------------

    Molecular point group: c1
  Charge       = 0
  Multiplicity = 1
  Basis Set: AUG-CC-PVTZ
    Blend: AUG-CC-PVTZ
  Basis Set: (AUG-CC-PVTZ AUX)
    Blend: AUG-CC-PVTZ-JKFIT

    Orbital Energies [Eh]
    ---------------------

    Doubly Occupied:

       1A    -20.607094     2A    -20.606182     3A    -20.542744
       4A    -11.427724     5A    -11.292943     6A    -11.291429
       7A    -11.226474     8A    -11.225238     9A     -1.498801
      10A     -1.395790    11A     -1.355987    12A     -1.057534
      13A     -1.026713    14A     -0.894316    15A     -0.845467
      16A     -0.790982    17A     -0.745786    18A     -0.708182
      19A     -0.690600    20A     -0.662409    21A     -0.599451
      22A     -0.597718    23A     -0.590801    24A     -0.555838
      25A     -0.542132    26A     -0.538080    27A     -0.519086
      28A     -0.515242    29A     -0.506997    30A     -0.468517
      31A     -0.466847    32A     -0.464072

  @DF-RHF Final Energy:  -419.93784507376461

   => Energetics <=

    Nuclear Repulsion Energy =            392.1998273312161700
    One-Electron Energy =               -1351.7609926036209345
    Two-Electron Energy =                 539.6233201986401582
    Total Energy =                       -419.9378450737646062
  Basis Set: (AUG-CC-PVTZ AUX)
    Blend: AUG-CC-PVTZ-RI
    Molecular point group: c1

    Geometry (in Angstrom), charge = 0, multiplicity = 1:

       Center              X                  Y                   Z               Mass
    ------------   -----------------  -----------------  -----------------  -----------------
         O            1.079321048572    -0.442519165657    -0.018730472936    15.994914619570
         O           -1.083952551428    -0.453991165657     0.002895527064    15.994914619570
         O            0.000860448572     1.560078834343     0.002952527064    15.994914619570
         C            2.341311448572     0.269138834343     0.002931527064    12.000000000000
         C           -2.339588551428     0.269137834343     0.002935527064    12.000000000000
         C            3.433892448572    -0.774654165657     0.002963527064    12.000000000000
         C           -3.432172551428    -0.774653165657     0.002960527064    12.000000000000
         C            0.000861448572     0.341447834343     0.002897527064    12.000000000000
         H            2.380851448572     0.910682834343    -0.881427472936     1.007825032230
         H            2.380798448572     0.910683834343     0.887291527064     1.007825032230
         H           -2.379079551428     0.910678834343     0.887298527064     1.007825032230
         H           -2.379128551428     0.910687834343    -0.881419472936     1.007825032230
         H            4.412624448572    -0.286735165657     0.002988527064     1.007825032230
         H            3.359146448572    -1.406991165657     0.889875527064     1.007825032230
         H            3.359194448572    -1.406995165657    -0.883949472936     1.007825032230
         H           -4.410902551428    -0.286731165657     0.002985527064     1.007825032230
         H           -3.357473551428    -1.406992165657    -0.883954472936     1.007825032230
         H           -3.357431551428    -1.406994165657     0.889869527064     1.007825032230

  Basis Set: AUG-CC-PVTZ
    Blend: AUG-CC-PVTZ
  Basis Set: (AUG-CC-PVTZ AUX)
    Blend: AUG-CC-PVTZ-JKFIT
	 Reference Energy          =    -419.9378450737646062 [Eh]
	 Singles Energy            =      -0.0000000000000000 [Eh]
	 Same-Spin Energy          =      -0.4055543870704350 [Eh]
	 Opposite-Spin Energy      =      -1.3120041920754919 [Eh]
	 Correlation Energy        =      -1.7175585791459269 [Eh]
	 Total Energy              =    -421.6554036529105360 [Eh]

	 ================> DF-SCS-MP2 Energies <==================
	-----------------------------------------------------------
	 SCS Same-Spin Scale       =       0.3333333333333333 [-]
	 SCS Opposite-Spin Scale   =       1.2000000000000000 [-]
	 SCS Same-Spin Energy      =      -0.1351847956901450 [Eh]
	 SCS Opposite-Spin Energy  =      -1.5744050304905903 [Eh]
	 SCS Correlation Energy    =      -1.7095898261807354 [Eh]
	 SCS Total Energy          =    -421.6474348999453241 [Eh]
	-----------------------------------------------------------

  Dipole Moment: [D]
     X:     0.0781      Y:    -0.5600      Z:     0.0262     Total:     0.5661

*** Psi4 exiting successfully. Buy a developer a beer!
