                               Psi4 1.4a3.dev225

  ==> Input File <==

--------------------------------------------------------------------------
#psi4
#
memory 32 gb

molecule  {
0 1
  O        1.0848250    -0.4328680    -0.0000110
  O       -1.0848250    -0.4328670    -0.0000100
  O        0.0000000     1.5811570     0.0000070
  C        2.3404700     0.2905210    -0.0000040
  C       -2.3404700     0.2905210    -0.0000020
  C        3.4331290    -0.7532350     0.0000100
  C       -3.4331290    -0.7532350     0.0000090
  C        0.0403223     0.3329906    -0.0000033
  H        2.3799590     0.9318790    -0.8844210
  H        2.3799440     0.9318880     0.8844070
  H       -2.3799450     0.9318860     0.8844110
  H       -2.3799580     0.9318810    -0.8844170
  H        4.4117970    -0.2652620     0.0000140
  H        3.3585260    -1.3857810     0.8868320
  H        3.3585390    -1.3857920    -0.8868050
  H       -4.4117970    -0.2652620     0.0000130
  H       -3.3585380    -1.3857890    -0.8868080
  H       -3.3585270    -1.3857830     0.8868290
units angstrom
no_reorient  #important for SAPT in psi4, default
symmetry c1  #important for SAPT in psi4, default
}

set PROPERTIES_ORIGIN ["COM"]
properties('MP2/aug-cc-pvtz', properties = ['dipole'])
--------------------------------------------------------------------------

    Molecular point group: c1
  Charge       = 0
  Multiplicity = 1
  Basis Set: AUG-CC-PVTZ
    Blend: AUG-CC-PVTZ
  Basis Set: (AUG-CC-PVTZ AUX)
    Blend: AUG-CC-PVTZ-JKFIT

    Orbital Energies [Eh]
    ---------------------

    Doubly Occupied:

       1A    -20.620274     2A    -20.600392     3A    -20.536360
       4A    -11.430391     5A    -11.299452     6A    -11.288074
       7A    -11.230286     8A    -11.222914     9A     -1.504838
      10A     -1.400371    11A     -1.335889    12A     -1.062027
      13A     -1.027390    14A     -0.898150    15A     -0.846736
      16A     -0.795077    17A     -0.746486    18A     -0.711821
      19A     -0.687209    20A     -0.662501    21A     -0.601200
      22A     -0.598668    23A     -0.585679    24A     -0.557329
      25A     -0.542941    26A     -0.538953    27A     -0.524866
      28A     -0.510543    29A     -0.505833    30A     -0.467967
      31A     -0.461556    32A     -0.457694

  @DF-RHF Final Energy:  -419.93300642988754

   => Energetics <=

    Nuclear Repulsion Energy =            391.9543454603038413
    One-Electron Energy =               -1351.2549683377703786
    Two-Electron Energy =                 539.3676164475790529
    Total Energy =                       -419.9330064298875413
  Basis Set: (AUG-CC-PVTZ AUX)
    Blend: AUG-CC-PVTZ-RI
    Molecular point group: c1

    Geometry (in Angstrom), charge = 0, multiplicity = 1:

       Center              X                  Y                   Z               Mass
    ------------   -----------------  -----------------  -----------------  -----------------
         O            1.080726615037    -0.449548683381    -0.000010558723    15.994914619570
         O           -1.088923384963    -0.449547683381    -0.000009558723    15.994914619570
         O           -0.004098384963     1.564476316619     0.000007441277    15.994914619570
         C            2.336371615037     0.273840316619    -0.000003558723    12.000000000000
         C           -2.344568384963     0.273840316619    -0.000001558723    12.000000000000
         C            3.429030615037    -0.769915683381     0.000010441277    12.000000000000
         C           -3.437227384963    -0.769915683381     0.000009441277    12.000000000000
         C            0.036223915037     0.316309916619    -0.000002858723    12.000000000000
         H            2.375860615037     0.915198316619    -0.884420558723     1.007825032230
         H            2.375845615037     0.915207316619     0.884407441277     1.007825032230
         H           -2.384043384963     0.915205316619     0.884411441277     1.007825032230
         H           -2.384056384963     0.915200316619    -0.884416558723     1.007825032230
         H            4.407698615037    -0.281942683381     0.000014441277     1.007825032230
         H            3.354427615037    -1.402461683381     0.886832441277     1.007825032230
         H            3.354440615037    -1.402472683381    -0.886804558723     1.007825032230
         H           -4.415895384963    -0.281942683381     0.000013441277     1.007825032230
         H           -3.362636384963    -1.402469683381    -0.886807558723     1.007825032230
         H           -3.362625384963    -1.402463683381     0.886829441277     1.007825032230

  Basis Set: AUG-CC-PVTZ
    Blend: AUG-CC-PVTZ
  Basis Set: (AUG-CC-PVTZ AUX)
    Blend: AUG-CC-PVTZ-JKFIT
	 Reference Energy          =    -419.9330064298875413 [Eh]
	 Singles Energy            =      -0.0000000000000000 [Eh]
	 Same-Spin Energy          =      -0.4059189875443712 [Eh]
	 Opposite-Spin Energy      =      -1.3126750293464751 [Eh]
	 Correlation Energy        =      -1.7185940168908462 [Eh]
	 Total Energy              =    -421.6516004467783887 [Eh]

	 ================> DF-SCS-MP2 Energies <==================
	-----------------------------------------------------------
	 SCS Same-Spin Scale       =       0.3333333333333333 [-]
	 SCS Opposite-Spin Scale   =       1.2000000000000000 [-]
	 SCS Same-Spin Energy      =      -0.1353063291814570 [Eh]
	 SCS Opposite-Spin Energy  =      -1.5752100352157701 [Eh]
	 SCS Correlation Energy    =      -1.7105163643972272 [Eh]
	 SCS Total Energy          =    -421.6435227942847632 [Eh]
	-----------------------------------------------------------

  Dipole Moment: [D]
     X:     0.5296      Y:    -0.7516      Z:     0.0000     Total:     0.9194

*** Psi4 exiting successfully. Buy a developer a beer!
