                               Psi4 1.3.2 release

  ==> Input File <==

--------------------------------------------------------------------------
#psi4
#
memory 32 gb

molecule  {
0 1
  O        1.0848120    -0.4327500    -0.0000380
  O       -1.0848130    -0.4327500    -0.0000360
  O        0.0000000     1.5813200     0.0000210
  C        2.3404510     0.2903800     0.0000000
  C       -2.3878333     0.2010288     0.0000025
  C        3.4330320    -0.7534130     0.0000320
  C       -3.4330330    -0.7534120     0.0000290
  C        0.0000010     0.3626890    -0.0000340
  H        2.3799910     0.9319240    -0.8843590
  H        2.3799380     0.9319250     0.8843600
  H       -2.3799400     0.9319200     0.8843670
  H       -2.3799890     0.9319290    -0.8843510
  H        4.4117640    -0.2654940     0.0000570
  H        3.3582860    -1.3857500     0.8869440
  H        3.3583340    -1.3857540    -0.8868810
  H       -4.4117630    -0.2654900     0.0000540
  H       -3.3583340    -1.3857510    -0.8868860
  H       -3.3582920    -1.3857530     0.8869380
units angstrom
no_reorient  #important for SAPT in psi4, default
symmetry c1  #important for SAPT in psi4, default
}

set PROPERTIES_ORIGIN ["COM"]
properties('MP2/aug-cc-pvtz', properties = ['dipole'])
--------------------------------------------------------------------------

    Molecular point group: c1
  Charge       = 0
  Multiplicity = 1
  Basis Set: AUG-CC-PVTZ
    Blend: AUG-CC-PVTZ
  Basis Set: (AUG-CC-PVTZ AUX)
    Blend: AUG-CC-PVTZ-JKFIT

    Orbital Energies [Eh]
    ---------------------

    Doubly Occupied:

       1A    -20.606914     2A    -20.603831     3A    -20.544078
       4A    -11.430074     5A    -11.297659     6A    -11.291754
       7A    -11.225405     8A    -11.223982     9A     -1.494672
      10A     -1.392795    11A     -1.356178    12A     -1.071244
      13A     -1.034894    14A     -0.895034    15A     -0.839764
      16A     -0.785783    17A     -0.745339    18A     -0.704447
      19A     -0.689086    20A     -0.659172    21A     -0.602681
      22A     -0.599791    23A     -0.598938    24A     -0.564447
      25A     -0.546710    26A     -0.541652    27A     -0.518888
      28A     -0.514639    29A     -0.499893    30A     -0.468324
      31A     -0.466276    32A     -0.447401

  @DF-RHF Final Energy:  -419.92416105325458

   => Energetics <=

    Nuclear Repulsion Energy =            392.0620433895963970
    One-Electron Energy =               -1351.4489141242772803
    Two-Electron Energy =                 539.4627096814263041
    Total Energy =                       -419.9241610532545792
  Basis Set: (AUG-CC-PVTZ AUX)
    Blend: AUG-CC-PVTZ-RI
    Molecular point group: c1

    Geometry (in Angstrom), charge = 0, multiplicity = 1:

       Center              X                  Y                   Z               Mass
    ------------   -----------------  -----------------  -----------------  -----------------
         O            1.089628146143    -0.443355351537    -0.000035892405    15.994914619570
         O           -1.079996853857    -0.443355351537    -0.000033892405    15.994914619570
         O            0.004816146143     1.570714648463     0.000023107595    15.994914619570
         C            2.345267146143     0.279774648463     0.000002107595    12.000000000000
         C           -2.383017153857     0.190423448463     0.000004607595    12.000000000000
         C            3.437848146143    -0.764018351537     0.000034107595    12.000000000000
         C           -3.428216853857    -0.764017351537     0.000031107595    12.000000000000
         C            0.004817146143     0.352083648463    -0.000031892405    12.000000000000
         H            2.384807146143     0.921318648463    -0.884356892405     1.007825032230
         H            2.384754146143     0.921319648463     0.884362107595     1.007825032230
         H           -2.375123853857     0.921314648463     0.884369107595     1.007825032230
         H           -2.375172853857     0.921323648463    -0.884348892405     1.007825032230
         H            4.416580146143    -0.276099351537     0.000059107595     1.007825032230
         H            3.363102146143    -1.396355351537     0.886946107595     1.007825032230
         H            3.363150146143    -1.396359351537    -0.886878892405     1.007825032230
         H           -4.406946853857    -0.276095351537     0.000056107595     1.007825032230
         H           -3.353517853857    -1.396356351537    -0.886883892405     1.007825032230
         H           -3.353475853857    -1.396358351537     0.886940107595     1.007825032230

  Basis Set: AUG-CC-PVTZ
    Blend: AUG-CC-PVTZ
  Basis Set: (AUG-CC-PVTZ AUX)
    Blend: AUG-CC-PVTZ-JKFIT
	 Reference Energy          =    -419.9241610532545792 [Eh]
	 Singles Energy            =      -0.0000000000000000 [Eh]
	 Same-Spin Energy          =      -0.4066454681469220 [Eh]
	 Opposite-Spin Energy      =      -1.3134145033618259 [Eh]
	 Correlation Energy        =      -1.7200599715087479 [Eh]
	 Total Energy              =    -421.6442210247633398 [Eh]

	 ================> DF-SCS-MP2 Energies <==================
	-----------------------------------------------------------
	 SCS Same-Spin Scale       =       0.3333333333333333 [-]
	 SCS Opposite-Spin Scale   =       1.2000000000000000 [-]
	 SCS Same-Spin Energy      =      -0.1355484893823073 [Eh]
	 SCS Opposite-Spin Energy  =      -1.5760974040341911 [Eh]
	 SCS Correlation Energy    =      -1.7116458934164984 [Eh]
	 SCS Total Energy          =    -421.6358069466710958 [Eh]
	-----------------------------------------------------------

  Dipole Moment: [D]
     X:    -0.1498      Y:    -0.6599      Z:     0.0000     Total:     0.6767

*** Psi4 exiting successfully. Buy a developer a beer!
