                               Psi4 1.3.2 release

  ==> Input File <==

--------------------------------------------------------------------------
#psi4
#
memory 32 gb

molecule  {
0 1
  O        1.0848120    -0.4327500    -0.0000380
  O       -1.0848130    -0.4327500    -0.0000360
  O        0.0000000     1.5813200     0.0000210
  C        2.3404510     0.2903800     0.0000000
  C       -2.3404490     0.2903790     0.0000040
  C        3.4330320    -0.7534130     0.0000320
  C       -3.4330330    -0.7534120     0.0000290
  C       -0.0806427     0.4218211    -0.0000337
  H        2.3799910     0.9319240    -0.8843590
  H        2.3799380     0.9319250     0.8843600
  H       -2.3799400     0.9319200     0.8843670
  H       -2.3799890     0.9319290    -0.8843510
  H        4.4117640    -0.2654940     0.0000570
  H        3.3582860    -1.3857500     0.8869440
  H        3.3583340    -1.3857540    -0.8868810
  H       -4.4117630    -0.2654900     0.0000540
  H       -3.3583340    -1.3857510    -0.8868860
  H       -3.3582920    -1.3857530     0.8869380
units angstrom
no_reorient  #important for SAPT in psi4, default
symmetry c1  #important for SAPT in psi4, default
}

set PROPERTIES_ORIGIN ["COM"]
properties('MP2/aug-cc-pvtz', properties = ['dipole'])
--------------------------------------------------------------------------

    Molecular point group: c1
  Charge       = 0
  Multiplicity = 1
  Basis Set: AUG-CC-PVTZ
    Blend: AUG-CC-PVTZ
  Basis Set: (AUG-CC-PVTZ AUX)
    Blend: AUG-CC-PVTZ-JKFIT

    Orbital Energies [Eh]
    ---------------------

    Doubly Occupied:

       1A    -20.619997     2A    -20.579734     3A    -20.562166
       4A    -11.427969     5A    -11.299740     6A    -11.277566
       7A    -11.230807     8A    -11.216421     9A     -1.506421
      10A     -1.408837    11A     -1.354265    12A     -1.055213
      13A     -1.016050    14A     -0.888376    15A     -0.838744
      16A     -0.794981    17A     -0.734933    18A     -0.710904
      19A     -0.705618    20A     -0.654529    21A     -0.603531
      22A     -0.603156    23A     -0.586578    24A     -0.555891
      25A     -0.538113    26A     -0.530426    27A     -0.527750
      28A     -0.514020    29A     -0.510138    30A     -0.483190
      31A     -0.468918    32A     -0.450318

  @DF-RHF Final Energy:  -419.92471326980495

   => Energetics <=

    Nuclear Repulsion Energy =            391.9540317900510900
    One-Electron Energy =               -1351.2468911446442235
    Two-Electron Energy =                 539.3681460847881226
    Total Energy =                       -419.9247132698050109
  Basis Set: (AUG-CC-PVTZ AUX)
    Blend: AUG-CC-PVTZ-RI
    Molecular point group: c1

    Geometry (in Angstrom), charge = 0, multiplicity = 1:

       Center              X                  Y                   Z               Mass
    ------------   -----------------  -----------------  -----------------  -----------------
         O            1.093008653327    -0.458447189690    -0.000036075358    15.994914619570
         O           -1.076616346673    -0.458447189690    -0.000034075358    15.994914619570
         O            0.008196653327     1.555622810310     0.000022924642    15.994914619570
         C            2.348647653327     0.264682810310     0.000001924642    12.000000000000
         C           -2.332252346673     0.264681810310     0.000005924642    12.000000000000
         C            3.441228653327    -0.779110189690     0.000033924642    12.000000000000
         C           -3.424836346673    -0.779109189690     0.000030924642    12.000000000000
         C           -0.072446046673     0.396123910310    -0.000031775358    12.000000000000
         H            2.388187653327     0.906226810310    -0.884357075358     1.007825032230
         H            2.388134653327     0.906227810310     0.884361924642     1.007825032230
         H           -2.371743346673     0.906222810310     0.884368924642     1.007825032230
         H           -2.371792346673     0.906231810310    -0.884349075358     1.007825032230
         H            4.419960653327    -0.291191189690     0.000058924642     1.007825032230
         H            3.366482653327    -1.411447189690     0.886945924642     1.007825032230
         H            3.366530653327    -1.411451189690    -0.886879075358     1.007825032230
         H           -4.403566346673    -0.291187189690     0.000055924642     1.007825032230
         H           -3.350137346673    -1.411448189690    -0.886884075358     1.007825032230
         H           -3.350095346673    -1.411450189690     0.886939924642     1.007825032230

  Basis Set: AUG-CC-PVTZ
    Blend: AUG-CC-PVTZ
  Basis Set: (AUG-CC-PVTZ AUX)
    Blend: AUG-CC-PVTZ-JKFIT
	 Reference Energy          =    -419.9247132698049541 [Eh]
	 Singles Energy            =      -0.0000000000000000 [Eh]
	 Same-Spin Energy          =      -0.4059185878315421 [Eh]
	 Opposite-Spin Energy      =      -1.3134311988704079 [Eh]
	 Correlation Energy        =      -1.7193497867019500 [Eh]
	 Total Energy              =    -421.6440630565069227 [Eh]

	 ================> DF-SCS-MP2 Energies <==================
	-----------------------------------------------------------
	 SCS Same-Spin Scale       =       0.3333333333333333 [-]
	 SCS Opposite-Spin Scale   =       1.2000000000000000 [-]
	 SCS Same-Spin Energy      =      -0.1353061959438474 [Eh]
	 SCS Opposite-Spin Energy  =      -1.5761174386444894 [Eh]
	 SCS Correlation Energy    =      -1.7114236345883367 [Eh]
	 SCS Total Energy          =    -421.6361369043933109 [Eh]
	-----------------------------------------------------------

  Dipole Moment: [D]
     X:    -1.0468      Y:    -0.0363      Z:     0.0000     Total:     1.0474

*** Psi4 exiting successfully. Buy a developer a beer!
