                               Psi4 1.3.2 release

  ==> Input File <==

--------------------------------------------------------------------------
#psi4
#
memory 32 gb

molecule  {
0 1
  O        1.0848120    -0.4327500    -0.0000380
  O       -1.0848130    -0.4327500    -0.0000360
  O        0.0000000     1.5813200     0.0000210
  C        2.4271077     0.3402861     0.0000026
  C       -2.3404490     0.2903790     0.0000040
  C        3.4330320    -0.7534130     0.0000320
  C       -3.4330330    -0.7534120     0.0000290
  C        0.0000010     0.3626890    -0.0000340
  H        2.3799910     0.9319240    -0.8843590
  H        2.3799380     0.9319250     0.8843600
  H       -2.3799400     0.9319200     0.8843670
  H       -2.3799890     0.9319290    -0.8843510
  H        4.4117640    -0.2654940     0.0000570
  H        3.3582860    -1.3857500     0.8869440
  H        3.3583340    -1.3857540    -0.8868810
  H       -4.4117630    -0.2654900     0.0000540
  H       -3.3583340    -1.3857510    -0.8868860
  H       -3.3582920    -1.3857530     0.8869380
units angstrom
no_reorient  #important for SAPT in psi4, default
symmetry c1  #important for SAPT in psi4, default
}

set PROPERTIES_ORIGIN ["COM"]
properties('MP2/aug-cc-pvtz', properties = ['dipole'])
--------------------------------------------------------------------------

    Molecular point group: c1
  Charge       = 0
  Multiplicity = 1
  Basis Set: AUG-CC-PVTZ
    Blend: AUG-CC-PVTZ
  Basis Set: (AUG-CC-PVTZ AUX)
    Blend: AUG-CC-PVTZ-JKFIT

    Orbital Energies [Eh]
    ---------------------

    Doubly Occupied:

       1A    -20.601629     2A    -20.593957     3A    -20.538343
       4A    -11.421523     5A    -11.297119     6A    -11.288337
       7A    -11.229728     8A    -11.223010     9A     -1.483987
      10A     -1.375549    11A     -1.346591    12A     -1.059275
      13A     -1.029531    14A     -0.886212    15A     -0.848614
      16A     -0.786142    17A     -0.730234    18A     -0.700475
      19A     -0.683323    20A     -0.664300    21A     -0.600017
      22A     -0.593394    23A     -0.584507    24A     -0.553725
      25A     -0.538776    26A     -0.538712    27A     -0.520048
      28A     -0.512735    29A     -0.512647    30A     -0.466623
      31A     -0.462574    32A     -0.462411

  @DF-RHF Final Energy:  -419.92847104703031

   => Energetics <=

    Nuclear Repulsion Energy =            390.3659058527206867
    One-Electron Energy =               -1348.3206565059513196
    Two-Electron Energy =                 538.0262796062003190
    Total Energy =                       -419.9284710470302571
  Basis Set: (AUG-CC-PVTZ AUX)
    Blend: AUG-CC-PVTZ-RI
    Molecular point group: c1

    Geometry (in Angstrom), charge = 0, multiplicity = 1:

       Center              X                  Y                   Z               Mass
    ------------   -----------------  -----------------  -----------------  -----------------
         O            1.076004131174    -0.457509453011    -0.000036309132    15.994914619570
         O           -1.093620868826    -0.457509453011    -0.000034309132    15.994914619570
         O           -0.008807868826     1.556560546989     0.000022690868    15.994914619570
         C            2.418299831174     0.315526646989     0.000004290868    12.000000000000
         C           -2.349256868826     0.265619546989     0.000005690868    12.000000000000
         C            3.424224131174    -0.778172453011     0.000033690868    12.000000000000
         C           -3.441840868826    -0.778171453011     0.000030690868    12.000000000000
         C           -0.008806868826     0.337929546989    -0.000032309132    12.000000000000
         H            2.371183131174     0.907164546989    -0.884357309132     1.007825032230
         H            2.371130131174     0.907165546989     0.884361690868     1.007825032230
         H           -2.388747868826     0.907160546989     0.884368690868     1.007825032230
         H           -2.388796868826     0.907169546989    -0.884349309132     1.007825032230
         H            4.402956131174    -0.290253453011     0.000058690868     1.007825032230
         H            3.349478131174    -1.410509453011     0.886945690868     1.007825032230
         H            3.349526131174    -1.410513453011    -0.886879309132     1.007825032230
         H           -4.420570868826    -0.290249453011     0.000055690868     1.007825032230
         H           -3.367141868826    -1.410510453011    -0.886884309132     1.007825032230
         H           -3.367099868826    -1.410512453011     0.886939690868     1.007825032230

  Basis Set: AUG-CC-PVTZ
    Blend: AUG-CC-PVTZ
  Basis Set: (AUG-CC-PVTZ AUX)
    Blend: AUG-CC-PVTZ-JKFIT
	 Reference Energy          =    -419.9284710470303139 [Eh]
	 Singles Energy            =      -0.0000000000000000 [Eh]
	 Same-Spin Energy          =      -0.4061126906674958 [Eh]
	 Opposite-Spin Energy      =      -1.3139034382202477 [Eh]
	 Correlation Energy        =      -1.7200161288877436 [Eh]
	 Total Energy              =    -421.6484871759180351 [Eh]

	 ================> DF-SCS-MP2 Energies <==================
	-----------------------------------------------------------
	 SCS Same-Spin Scale       =       0.3333333333333333 [-]
	 SCS Opposite-Spin Scale   =       1.2000000000000000 [-]
	 SCS Same-Spin Energy      =      -0.1353708968891653 [Eh]
	 SCS Opposite-Spin Energy  =      -1.5766841258642972 [Eh]
	 SCS Correlation Energy    =      -1.7120550227534626 [Eh]
	 SCS Total Energy          =    -421.6405260697837889 [Eh]
	-----------------------------------------------------------

  Dipole Moment: [D]
     X:     0.4758      Y:    -0.4729      Z:     0.0000     Total:     0.6708

*** Psi4 exiting successfully. Buy a developer a beer!
