                               Psi4 1.3.2 release

  ==> Input File <==

--------------------------------------------------------------------------
#psi4
#
memory 32 gb

molecule  {
0 1
  O        1.0848120    -0.4327500    -0.0000380
  O       -1.0848130    -0.4327500    -0.0000360
  O        0.0000000     1.5813200     0.0000210
  C        2.3404510     0.2903800     0.0000000
  C       -2.3404490     0.2903790     0.0000040
  C        3.4330320    -0.7534130     0.0000320
  C       -3.4330330    -0.7534120     0.0000290
  C        0.0000008     0.5626890    -0.0000250
  H        2.3799910     0.9319240    -0.8843590
  H        2.3799380     0.9319250     0.8843600
  H       -2.3799400     0.9319200     0.8843670
  H       -2.3799890     0.9319290    -0.8843510
  H        4.4117640    -0.2654940     0.0000570
  H        3.3582860    -1.3857500     0.8869440
  H        3.3583340    -1.3857540    -0.8868810
  H       -4.4117630    -0.2654900     0.0000540
  H       -3.3583340    -1.3857510    -0.8868860
  H       -3.3582920    -1.3857530     0.8869380
units angstrom
no_reorient  #important for SAPT in psi4, default
symmetry c1  #important for SAPT in psi4, default
}

set PROPERTIES_ORIGIN ["COM"]
properties('MP2/aug-cc-pvtz', properties = ['dipole'])
--------------------------------------------------------------------------

    Molecular point group: c1
  Charge       = 0
  Multiplicity = 1
  Basis Set: AUG-CC-PVTZ
    Blend: AUG-CC-PVTZ
  Basis Set: (AUG-CC-PVTZ AUX)
    Blend: AUG-CC-PVTZ-JKFIT

    Orbital Energies [Eh]
    ---------------------

    Doubly Occupied:

       1A    -20.601024     2A    -20.581457     3A    -20.581429
       4A    -11.415733     5A    -11.280425     6A    -11.280424
       7A    -11.218494     8A    -11.218493     9A     -1.596431
      10A     -1.389182    11A     -1.342755    12A     -1.033202
      13A     -1.009783    14A     -0.864978    15A     -0.833945
      16A     -0.789631    17A     -0.757038    18A     -0.740648
      19A     -0.723888    20A     -0.650883    21A     -0.631609
      22A     -0.592310    23A     -0.590772    24A     -0.546231
      25A     -0.540304    26A     -0.531112    27A     -0.529051
      28A     -0.512268    29A     -0.511555    30A     -0.471169
      31A     -0.458806    32A     -0.444431

  @DF-RHF Final Energy:  -419.84358974423981

   => Energetics <=

    Nuclear Repulsion Energy =            392.4356766753018633
    One-Electron Energy =               -1352.0196116235313184
    Two-Electron Energy =                 539.7403452039895910
    Total Energy =                       -419.8435897442398073
  Basis Set: (AUG-CC-PVTZ AUX)
    Blend: AUG-CC-PVTZ-RI
    Molecular point group: c1

    Geometry (in Angstrom), charge = 0, multiplicity = 1:

       Center              X                  Y                   Z               Mass
    ------------   -----------------  -----------------  -----------------  -----------------
         O            1.084811995206    -0.472765095243    -0.000036959632    15.994914619570
         O           -1.084813004794    -0.472765095243    -0.000034959632    15.994914619570
         O           -0.000000004794     1.541304904757     0.000022040368    15.994914619570
         C            2.340450995206     0.250364904757     0.000001040368    12.000000000000
         C           -2.340449004794     0.250363904757     0.000005040368    12.000000000000
         C            3.433031995206    -0.793428095243     0.000033040368    12.000000000000
         C           -3.433033004794    -0.793427095243     0.000030040368    12.000000000000
         C            0.000000795206     0.522673904757    -0.000023959632    12.000000000000
         H            2.379990995206     0.891908904757    -0.884357959632     1.007825032230
         H            2.379937995206     0.891909904757     0.884361040368     1.007825032230
         H           -2.379940004794     0.891904904757     0.884368040368     1.007825032230
         H           -2.379989004794     0.891913904757    -0.884349959632     1.007825032230
         H            4.411763995206    -0.305509095243     0.000058040368     1.007825032230
         H            3.358285995206    -1.425765095243     0.886945040368     1.007825032230
         H            3.358333995206    -1.425769095243    -0.886879959632     1.007825032230
         H           -4.411763004794    -0.305505095243     0.000055040368     1.007825032230
         H           -3.358334004794    -1.425766095243    -0.886884959632     1.007825032230
         H           -3.358292004794    -1.425768095243     0.886939040368     1.007825032230

  Basis Set: AUG-CC-PVTZ
    Blend: AUG-CC-PVTZ
  Basis Set: (AUG-CC-PVTZ AUX)
    Blend: AUG-CC-PVTZ-JKFIT
	 Reference Energy          =    -419.8435897442398073 [Eh]
	 Singles Energy            =      -0.0000000000000000 [Eh]
	 Same-Spin Energy          =      -0.4050916206639474 [Eh]
	 Opposite-Spin Energy      =      -1.3133124762601527 [Eh]
	 Correlation Energy        =      -1.7184040969241001 [Eh]
	 Total Energy              =    -421.5619938411638827 [Eh]

	 ================> DF-SCS-MP2 Energies <==================
	-----------------------------------------------------------
	 SCS Same-Spin Scale       =       0.3333333333333333 [-]
	 SCS Opposite-Spin Scale   =       1.2000000000000000 [-]
	 SCS Same-Spin Energy      =      -0.1350305402213158 [Eh]
	 SCS Opposite-Spin Energy  =      -1.5759749715121831 [Eh]
	 SCS Correlation Energy    =      -1.7110055117334990 [Eh]
	 SCS Total Energy          =    -421.5545952559733109 [Eh]
	-----------------------------------------------------------

  Dipole Moment: [D]
     X:     0.0000      Y:     1.1501      Z:     0.0001     Total:     1.1501

*** Psi4 exiting successfully. Buy a developer a beer!
