                               Psi4 1.4a3.dev225

  ==> Input File <==

--------------------------------------------------------------------------
#psi4
#
memory 32 gb

molecule  {
0 1
  O        1.0848250    -0.4328680    -0.0000110
  O       -1.0848250    -0.4328670    -0.0000100
  O        0.0000000     1.5811570     0.0000070
  C        2.3404700     0.2905210    -0.0000040
  C       -2.3404700     0.2905210    -0.0000020
  C        3.4331290    -0.7532350     0.0000100
  C       -3.4331290    -0.7532350     0.0000090
  C       -0.0403223     0.3921214    -0.0000027
  H        2.3799590     0.9318790    -0.8844210
  H        2.3799440     0.9318880     0.8844070
  H       -2.3799450     0.9318860     0.8844110
  H       -2.3799580     0.9318810    -0.8844170
  H        4.4117970    -0.2652620     0.0000140
  H        3.3585260    -1.3857810     0.8868320
  H        3.3585390    -1.3857920    -0.8868050
  H       -4.4117970    -0.2652620     0.0000130
  H       -3.3585380    -1.3857890    -0.8868080
  H       -3.3585270    -1.3857830     0.8868290
units angstrom
no_reorient  #important for SAPT in psi4, default
symmetry c1  #important for SAPT in psi4, default
}

set PROPERTIES_ORIGIN ["COM"]
properties('MP2/aug-cc-pvtz', properties = ['dipole'])
--------------------------------------------------------------------------

    Molecular point group: c1
  Charge       = 0
  Multiplicity = 1
  Basis Set: AUG-CC-PVTZ
    Blend: AUG-CC-PVTZ
  Basis Set: (AUG-CC-PVTZ AUX)
    Blend: AUG-CC-PVTZ-JKFIT

    Orbital Energies [Eh]
    ---------------------

    Doubly Occupied:

       1A    -20.613528     2A    -20.593627     3A    -20.553471
       4A    -11.428393     5A    -11.295817     6A    -11.284708
       7A    -11.228192     8A    -11.220996     9A     -1.498394
      10A     -1.392056    11A     -1.367258    12A     -1.054719
      13A     -1.022126    14A     -0.889862    15A     -0.842351
      16A     -0.791917    17A     -0.739742    18A     -0.707209
      19A     -0.697580    20A     -0.659302    21A     -0.599712
      22A     -0.599524    23A     -0.590728    24A     -0.555212
      25A     -0.539504    26A     -0.533831    27A     -0.523247
      28A     -0.512157    29A     -0.510684    30A     -0.475764
      31A     -0.472730    32A     -0.458455

  @DF-RHF Final Energy:  -419.93394763318906

   => Energetics <=

    Nuclear Repulsion Energy =            391.9135939041068468
    One-Electron Energy =               -1351.1894914032193356
    Two-Electron Energy =                 539.3419498659234250
    Total Energy =                       -419.9339476331890637
  Basis Set: (AUG-CC-PVTZ AUX)
    Blend: AUG-CC-PVTZ-RI
    Molecular point group: c1

    Geometry (in Angstrom), charge = 0, multiplicity = 1:

       Center              X                  Y                   Z               Mass
    ------------   -----------------  -----------------  -----------------  -----------------
         O            1.088923384963    -0.455558776594    -0.000010619708    15.994914619570
         O           -1.080726615037    -0.455557776594    -0.000009619708    15.994914619570
         O            0.004098384963     1.558466223406     0.000007380292    15.994914619570
         C            2.344568384963     0.267830223406    -0.000003619708    12.000000000000
         C           -2.336371615037     0.267830223406    -0.000001619708    12.000000000000
         C            3.437227384963    -0.775925776594     0.000010380292    12.000000000000
         C           -3.429030615037    -0.775925776594     0.000009380292    12.000000000000
         C           -0.036223915037     0.369430623406    -0.000002319708    12.000000000000
         H            2.384057384963     0.909188223406    -0.884420619708     1.007825032230
         H            2.384042384963     0.909197223406     0.884407380292     1.007825032230
         H           -2.375846615037     0.909195223406     0.884411380292     1.007825032230
         H           -2.375859615037     0.909190223406    -0.884416619708     1.007825032230
         H            4.415895384963    -0.287952776594     0.000014380292     1.007825032230
         H            3.362624384963    -1.408471776594     0.886832380292     1.007825032230
         H            3.362637384963    -1.408482776594    -0.886804619708     1.007825032230
         H           -4.407698615037    -0.287952776594     0.000013380292     1.007825032230
         H           -3.354439615037    -1.408479776594    -0.886807619708     1.007825032230
         H           -3.354428615037    -1.408473776594     0.886829380292     1.007825032230

  Basis Set: AUG-CC-PVTZ
    Blend: AUG-CC-PVTZ
  Basis Set: (AUG-CC-PVTZ AUX)
    Blend: AUG-CC-PVTZ-JKFIT
	 Reference Energy          =    -419.9339476331890637 [Eh]
	 Singles Energy            =      -0.0000000000000000 [Eh]
	 Same-Spin Energy          =      -0.4057542282529960 [Eh]
	 Opposite-Spin Energy      =      -1.3128403627378225 [Eh]
	 Correlation Energy        =      -1.7185945909908185 [Eh]
	 Total Energy              =    -421.6525422241799106 [Eh]

	 ================> DF-SCS-MP2 Energies <==================
	-----------------------------------------------------------
	 SCS Same-Spin Scale       =       0.3333333333333333 [-]
	 SCS Opposite-Spin Scale   =       1.2000000000000000 [-]
	 SCS Same-Spin Energy      =      -0.1352514094176653 [Eh]
	 SCS Opposite-Spin Energy  =      -1.5754084352853870 [Eh]
	 SCS Correlation Energy    =      -1.7106598447030523 [Eh]
	 SCS Total Energy          =    -421.6446074778921229 [Eh]
	-----------------------------------------------------------

  Dipole Moment: [D]
     X:    -0.5236      Y:    -0.2774      Z:     0.0000     Total:     0.5926

*** Psi4 exiting successfully. Buy a developer a beer!
