                               Psi4 1.3.2 release

  ==> Input File <==

--------------------------------------------------------------------------
#psi4
#
memory 32 gb

molecule  {
0 1
  O        1.0848120    -0.4327500    -0.0000380
  O       -1.0848130    -0.4327500    -0.0000360
  O        0.0000000     1.5813200     0.0000210
  C        2.3404510     0.2903800     0.0000000
  C       -2.3404490     0.2903790     0.0000040
  C        3.4330320    -0.7534130     0.0000320
  C       -3.4330330    -0.7534120     0.0000290
  C        0.0806447     0.3035569    -0.0000343
  H        2.3799910     0.9319240    -0.8843590
  H        2.3799380     0.9319250     0.8843600
  H       -2.3799400     0.9319200     0.8843670
  H       -2.3799890     0.9319290    -0.8843510
  H        4.4117640    -0.2654940     0.0000570
  H        3.3582860    -1.3857500     0.8869440
  H        3.3583340    -1.3857540    -0.8868810
  H       -4.4117630    -0.2654900     0.0000540
  H       -3.3583340    -1.3857510    -0.8868860
  H       -3.3582920    -1.3857530     0.8869380
units angstrom
no_reorient  #important for SAPT in psi4, default
symmetry c1  #important for SAPT in psi4, default
}

set PROPERTIES_ORIGIN ["COM"]
properties('MP2/aug-cc-pvtz', properties = ['dipole'])
--------------------------------------------------------------------------

    Molecular point group: c1
  Charge       = 0
  Multiplicity = 1
  Basis Set: AUG-CC-PVTZ
    Blend: AUG-CC-PVTZ
  Basis Set: (AUG-CC-PVTZ AUX)
    Blend: AUG-CC-PVTZ-JKFIT

    Orbital Energies [Eh]
    ---------------------

    Doubly Occupied:

       1A    -20.633493     2A    -20.593380     3A    -20.527519
       4A    -11.431185     5A    -11.307270     6A    -11.284060
       7A    -11.235183     8A    -11.220123     9A     -1.524902
      10A     -1.399054    11A     -1.313093    12A     -1.070479
      13A     -1.026092    14A     -0.905303    15A     -0.846923
      16A     -0.803350    17A     -0.745409    18A     -0.721231
      19A     -0.687222    20A     -0.660193    21A     -0.602424
      22A     -0.601665    23A     -0.579117    24A     -0.560991
      25A     -0.542577    26A     -0.538830    27A     -0.531817
      28A     -0.507880    29A     -0.503190    30A     -0.467116
      31A     -0.450966    32A     -0.447531

  @DF-RHF Final Energy:  -419.92124045234232

   => Energetics <=

    Nuclear Repulsion Energy =            392.0586030078110866
    One-Electron Energy =               -1351.4205521449707703
    Two-Electron Energy =                 539.4407086848173094
    Total Energy =                       -419.9212404523423174
  Basis Set: (AUG-CC-PVTZ AUX)
    Blend: AUG-CC-PVTZ-RI
    Molecular point group: c1

    Geometry (in Angstrom), charge = 0, multiplicity = 1:

       Center              X                  Y                   Z               Mass
    ------------   -----------------  -----------------  -----------------  -----------------
         O            1.076615296429    -0.446426738999    -0.000036014374    15.994914619570
         O           -1.093009703571    -0.446426738999    -0.000034014374    15.994914619570
         O           -0.008196703571     1.567643261001     0.000022985626    15.994914619570
         C            2.332254296429     0.276703261001     0.000001985626    12.000000000000
         C           -2.348645703571     0.276702261001     0.000005985626    12.000000000000
         C            3.424835296429    -0.767089738999     0.000033985626    12.000000000000
         C           -3.441229703571    -0.767088738999     0.000030985626    12.000000000000
         C            0.072447996429     0.289880161001    -0.000032314374    12.000000000000
         H            2.371794296429     0.918247261001    -0.884357014374     1.007825032230
         H            2.371741296429     0.918248261001     0.884361985626     1.007825032230
         H           -2.388136703571     0.918243261001     0.884368985626     1.007825032230
         H           -2.388185703571     0.918252261001    -0.884349014374     1.007825032230
         H            4.403567296429    -0.279170738999     0.000058985626     1.007825032230
         H            3.350089296429    -1.399426738999     0.886945985626     1.007825032230
         H            3.350137296429    -1.399430738999    -0.886879014374     1.007825032230
         H           -4.419959703571    -0.279166738999     0.000055985626     1.007825032230
         H           -3.366530703571    -1.399427738999    -0.886884014374     1.007825032230
         H           -3.366488703571    -1.399429738999     0.886939985626     1.007825032230

  Basis Set: AUG-CC-PVTZ
    Blend: AUG-CC-PVTZ
  Basis Set: (AUG-CC-PVTZ AUX)
    Blend: AUG-CC-PVTZ-JKFIT
	 Reference Energy          =    -419.9212404523423174 [Eh]
	 Singles Energy            =      -0.0000000000000000 [Eh]
	 Same-Spin Energy          =      -0.4061614061700788 [Eh]
	 Opposite-Spin Energy      =      -1.3129920155811989 [Eh]
	 Correlation Energy        =      -1.7191534217512778 [Eh]
	 Total Energy              =    -421.6403938740936042 [Eh]

	 ================> DF-SCS-MP2 Energies <==================
	-----------------------------------------------------------
	 SCS Same-Spin Scale       =       0.3333333333333333 [-]
	 SCS Opposite-Spin Scale   =       1.2000000000000000 [-]
	 SCS Same-Spin Energy      =      -0.1353871353900263 [Eh]
	 SCS Opposite-Spin Energy  =      -1.5755904186974388 [Eh]
	 SCS Correlation Energy    =      -1.7109775540874650 [Eh]
	 SCS Total Energy          =    -421.6322180064298095 [Eh]
	-----------------------------------------------------------

  Dipole Moment: [D]
     X:     1.0703      Y:    -0.9909      Z:     0.0000     Total:     1.4586

*** Psi4 exiting successfully. Buy a developer a beer!
