                               Psi4 1.4a3.dev225

  ==> Input File <==

--------------------------------------------------------------------------
#psi4
#
memory 32 gb

molecule  {
0 1
  O        1.0848250    -0.4328680    -0.0000110
  O       -1.0848250    -0.4328670    -0.0000100
  O        0.0000000     1.5811570     0.0000070
  C        2.2971455     0.2655613    -0.0000042
  C       -2.3404700     0.2905210    -0.0000020
  C        3.4331290    -0.7532350     0.0000100
  C       -3.4331290    -0.7532350     0.0000090
  C        0.0000000     0.3625560    -0.0000030
  H        2.3799590     0.9318790    -0.8844210
  H        2.3799440     0.9318880     0.8844070
  H       -2.3799450     0.9318860     0.8844110
  H       -2.3799580     0.9318810    -0.8844170
  H        4.4117970    -0.2652620     0.0000140
  H        3.3585260    -1.3857810     0.8868320
  H        3.3585390    -1.3857920    -0.8868050
  H       -4.4117970    -0.2652620     0.0000130
  H       -3.3585380    -1.3857890    -0.8868080
  H       -3.3585270    -1.3857830     0.8868290
units angstrom
no_reorient  #important for SAPT in psi4, default
symmetry c1  #important for SAPT in psi4, default
}

set PROPERTIES_ORIGIN ["COM"]
properties('MP2/aug-cc-pvtz', properties = ['dipole'])
--------------------------------------------------------------------------

    Molecular point group: c1
  Charge       = 0
  Multiplicity = 1
  Basis Set: AUG-CC-PVTZ
    Blend: AUG-CC-PVTZ
  Basis Set: (AUG-CC-PVTZ AUX)
    Blend: AUG-CC-PVTZ-JKFIT

    Orbital Energies [Eh]
    ---------------------

    Doubly Occupied:

       1A    -20.612898     2A    -20.609679     3A    -20.548318
       4A    -11.433163     5A    -11.293692     6A    -11.290851
       7A    -11.226820     8A    -11.223985     9A     -1.504627
      10A     -1.405557    11A     -1.361486    12A     -1.057150
      13A     -1.023407    14A     -0.897719    15A     -0.844333
      16A     -0.793345    17A     -0.751302    18A     -0.711516
      19A     -0.694969    20A     -0.663184    21A     -0.604757
      22A     -0.595794    23A     -0.595350    24A     -0.555728
      25A     -0.543602    26A     -0.542255    27A     -0.519220
      28A     -0.506160    29A     -0.505551    30A     -0.472965
      31A     -0.469509    32A     -0.459373

  @DF-RHF Final Energy:  -419.93532404125995

   => Energetics <=

    Nuclear Repulsion Energy =            392.7264653998611266
    One-Electron Energy =               -1352.6870404241217329
    Two-Electron Energy =                 540.0252509830006602
    Total Energy =                       -419.9353240412599462
  Basis Set: (AUG-CC-PVTZ AUX)
    Blend: AUG-CC-PVTZ-RI
    Molecular point group: c1

    Geometry (in Angstrom), charge = 0, multiplicity = 1:

       Center              X                  Y                   Z               Mass
    ------------   -----------------  -----------------  -----------------  -----------------
         O            1.089228530536    -0.450016809744    -0.000010568888    15.994914619570
         O           -1.080421469464    -0.450015809744    -0.000009568888    15.994914619570
         O            0.004403530536     1.564008190256     0.000007431112    15.994914619570
         C            2.301549030536     0.248412490256    -0.000003768888    12.000000000000
         C           -2.336066469464     0.273372190256    -0.000001568888    12.000000000000
         C            3.437532530536    -0.770383809744     0.000010431112    12.000000000000
         C           -3.428725469464    -0.770383809744     0.000009431112    12.000000000000
         C            0.004403530536     0.345407190256    -0.000002568888    12.000000000000
         H            2.384362530536     0.914730190256    -0.884420568888     1.007825032230
         H            2.384347530536     0.914739190256     0.884407431112     1.007825032230
         H           -2.375541469464     0.914737190256     0.884411431112     1.007825032230
         H           -2.375554469464     0.914732190256    -0.884416568888     1.007825032230
         H            4.416200530536    -0.282410809744     0.000014431112     1.007825032230
         H            3.362929530536    -1.402929809744     0.886832431112     1.007825032230
         H            3.362942530536    -1.402940809744    -0.886804568888     1.007825032230
         H           -4.407393469464    -0.282410809744     0.000013431112     1.007825032230
         H           -3.354134469464    -1.402937809744    -0.886807568888     1.007825032230
         H           -3.354123469464    -1.402931809744     0.886829431112     1.007825032230

  Basis Set: AUG-CC-PVTZ
    Blend: AUG-CC-PVTZ
  Basis Set: (AUG-CC-PVTZ AUX)
    Blend: AUG-CC-PVTZ-JKFIT
	 Reference Energy          =    -419.9353240412599462 [Eh]
	 Singles Energy            =      -0.0000000000000000 [Eh]
	 Same-Spin Energy          =      -0.4057863340375644 [Eh]
	 Opposite-Spin Energy      =      -1.3122470362600138 [Eh]
	 Correlation Energy        =      -1.7180333702975783 [Eh]
	 Total Energy              =    -421.6533574115575220 [Eh]

	 ================> DF-SCS-MP2 Energies <==================
	-----------------------------------------------------------
	 SCS Same-Spin Scale       =       0.3333333333333333 [-]
	 SCS Opposite-Spin Scale   =       1.2000000000000000 [-]
	 SCS Same-Spin Energy      =      -0.1352621113458548 [Eh]
	 SCS Opposite-Spin Energy  =      -1.5746964435120165 [Eh]
	 SCS Correlation Energy    =      -1.7099585548578713 [Eh]
	 SCS Total Energy          =    -421.6452825961177950 [Eh]
	-----------------------------------------------------------

  Dipole Moment: [D]
     X:    -0.2434      Y:    -0.5439      Z:     0.0000     Total:     0.5959

*** Psi4 exiting successfully. Buy a developer a beer!
