                               Psi4 1.3.2 release

  ==> Input File <==

--------------------------------------------------------------------------
#psi4
#
memory 32 gb

molecule  {
0 1
  O        1.0525041    -0.3607387    -0.1295511
  O       -1.0848130    -0.4327500    -0.0000360
  O        0.0000000     1.5813200     0.0000210
  C        2.3404510     0.2903800     0.0000000
  C       -2.3404490     0.2903790     0.0000040
  C        3.4330320    -0.7534130     0.0000320
  C       -3.4330330    -0.7534120     0.0000290
  C        0.0000010     0.3626890    -0.0000340
  H        2.3799910     0.9319240    -0.8843590
  H        2.3799380     0.9319250     0.8843600
  H       -2.3799400     0.9319200     0.8843670
  H       -2.3799890     0.9319290    -0.8843510
  H        4.4117640    -0.2654940     0.0000570
  H        3.3582860    -1.3857500     0.8869440
  H        3.3583340    -1.3857540    -0.8868810
  H       -4.4117630    -0.2654900     0.0000540
  H       -3.3583340    -1.3857510    -0.8868860
  H       -3.3582920    -1.3857530     0.8869380
units angstrom
no_reorient  #important for SAPT in psi4, default
symmetry c1  #important for SAPT in psi4, default
}

set PROPERTIES_ORIGIN ["COM"]
properties('MP2/aug-cc-pvtz', properties = ['dipole'])
--------------------------------------------------------------------------

    Molecular point group: c1
  Charge       = 0
  Multiplicity = 1
  Basis Set: AUG-CC-PVTZ
    Blend: AUG-CC-PVTZ
  Basis Set: (AUG-CC-PVTZ AUX)
    Blend: AUG-CC-PVTZ-JKFIT

    Orbital Energies [Eh]
    ---------------------

    Doubly Occupied:

       1A    -20.606329     2A    -20.602717     3A    -20.532186
       4A    -11.420190     5A    -11.297378     6A    -11.289263
       7A    -11.230518     8A    -11.223830     9A     -1.510590
      10A     -1.400944    11A     -1.349666    12A     -1.061928
      13A     -1.028362    14A     -0.901034    15A     -0.846740
      16A     -0.789364    17A     -0.751362    18A     -0.713188
      19A     -0.688832    20A     -0.662097    21A     -0.605429
      22A     -0.595232    23A     -0.589240    24A     -0.559368
      25A     -0.543943    26A     -0.540422    27A     -0.519261
      28A     -0.512668    29A     -0.505851    30A     -0.464168
      31A     -0.462683    32A     -0.460448

  @DF-RHF Final Energy:  -419.93588529218255

   => Energetics <=

    Nuclear Repulsion Energy =            393.4437455685512077
    One-Electron Energy =               -1354.2287955140293434
    Two-Electron Energy =                 540.8491646532955883
    Total Energy =                       -419.9358852921825473
  Basis Set: (AUG-CC-PVTZ AUX)
    Blend: AUG-CC-PVTZ-RI
    Molecular point group: c1

    Geometry (in Angstrom), charge = 0, multiplicity = 1:

       Center              X                  Y                   Z               Mass
    ------------   -----------------  -----------------  -----------------  -----------------
         O            1.056881078067    -0.390181596786    -0.112002995109    15.994914619570
         O           -1.080436021933    -0.462192896786     0.017512104891    15.994914619570
         O            0.004376978067     1.551877103214     0.017569104891    15.994914619570
         C            2.344827978067     0.260937103214     0.017548104891    12.000000000000
         C           -2.336072021933     0.260936103214     0.017552104891    12.000000000000
         C            3.437408978067    -0.782855896786     0.017580104891    12.000000000000
         C           -3.428656021933    -0.782854896786     0.017577104891    12.000000000000
         C            0.004377978067     0.333246103214     0.017514104891    12.000000000000
         H            2.384367978067     0.902481103214    -0.866810895109     1.007825032230
         H            2.384314978067     0.902482103214     0.901908104891     1.007825032230
         H           -2.375563021933     0.902477103214     0.901915104891     1.007825032230
         H           -2.375612021933     0.902486103214    -0.866802895109     1.007825032230
         H            4.416140978067    -0.294936896786     0.017605104891     1.007825032230
         H            3.362662978067    -1.415192896786     0.904492104891     1.007825032230
         H            3.362710978067    -1.415196896786    -0.869332895109     1.007825032230
         H           -4.407386021933    -0.294932896786     0.017602104891     1.007825032230
         H           -3.353957021933    -1.415193896786    -0.869337895109     1.007825032230
         H           -3.353915021933    -1.415195896786     0.904486104891     1.007825032230

  Basis Set: AUG-CC-PVTZ
    Blend: AUG-CC-PVTZ
  Basis Set: (AUG-CC-PVTZ AUX)
    Blend: AUG-CC-PVTZ-JKFIT
	 Reference Energy          =    -419.9358852921825473 [Eh]
	 Singles Energy            =      -0.0000000000000000 [Eh]
	 Same-Spin Energy          =      -0.4047512303279511 [Eh]
	 Opposite-Spin Energy      =      -1.3097214120380114 [Eh]
	 Correlation Energy        =      -1.7144726423659624 [Eh]
	 Total Energy              =    -421.6503579345485377 [Eh]

	 ================> DF-SCS-MP2 Energies <==================
	-----------------------------------------------------------
	 SCS Same-Spin Scale       =       0.3333333333333333 [-]
	 SCS Opposite-Spin Scale   =       1.2000000000000000 [-]
	 SCS Same-Spin Energy      =      -0.1349170767759837 [Eh]
	 SCS Opposite-Spin Energy  =      -1.5716656944456135 [Eh]
	 SCS Correlation Energy    =      -1.7065827712215973 [Eh]
	 SCS Total Energy          =    -421.6424680634041238 [Eh]
	-----------------------------------------------------------

  Dipole Moment: [D]
     X:     0.4066      Y:    -0.7713      Z:     0.1488     Total:     0.8845

*** Psi4 exiting successfully. Buy a developer a beer!
