                               Psi4 1.3.2 release

  ==> Input File <==

--------------------------------------------------------------------------
#psi4
#
memory 32 gb

molecule  {
0 1
  S       -1.2780750    -0.4285550    -0.3473560
  O       -1.7200650     0.3779750    -1.4840280
  O       -1.5418650    -1.8618310    -0.2285910
  N       -1.9572890     0.2613030     1.0109670
  C        0.4825990    -0.1948140    -0.1956820
  C        1.2351140    -1.1400330     0.5076890
  C        1.0628059     0.9817932    -0.6819615
  C        2.6038020    -0.9271140     0.6719040
  C        2.4412730     1.1569670    -0.5509020
  C        3.2049670     0.2235900     0.1537530
  C       -1.7662690     1.6987010     1.2148980
  H        0.7580870    -2.0438460     0.8774600
  H        0.4673030     1.6551460    -1.2987640
  H       -1.7702480    -0.3190170     1.8277200
  H        3.2028270    -1.6614550     1.2045750
  H        2.9128080     2.0436310    -0.9672160
  H        4.2723800     0.3833040     0.2839750
  H       -2.3988760     2.0038020     2.0501250
  H       -2.1043290     2.2146560     0.3162530
  H       -0.7257680     1.9753910     1.4267290
units angstrom
no_reorient  #important for SAPT in psi4, default
symmetry c1  #important for SAPT in psi4, default
}

set PROPERTIES_ORIGIN ["COM"]
properties('MP2/aug-cc-pvtz', properties = ['dipole'])
--------------------------------------------------------------------------

    Molecular point group: c1
  Charge       = 0
  Multiplicity = 1
  Basis Set: AUG-CC-PVTZ
    Blend: AUG-CC-PVTZ
  Basis Set: (AUG-CC-PVTZ AUX)
    Blend: AUG-CC-PVTZ-JKFIT

    Orbital Energies [Eh]
    ---------------------

    Doubly Occupied:

       1A    -92.203038     2A    -20.547387     3A    -20.547274
       4A    -15.604420     5A    -11.283041     6A    -11.276246
       7A    -11.270699     8A    -11.270624     9A    -11.267897
      10A    -11.262438    11A    -11.262274    12A     -9.167919
      13A     -6.853091    14A     -6.852538    15A     -6.852322
      16A     -1.452152    17A     -1.336903    18A     -1.234337
      19A     -1.182017    20A     -1.057962    21A     -1.043864
      22A     -0.962999    23A     -0.893759    24A     -0.855656
      25A     -0.813659    26A     -0.749934    27A     -0.712331
      28A     -0.677455    29A     -0.672040    30A     -0.655837
      31A     -0.641518    32A     -0.621149    33A     -0.615698
      34A     -0.607605    35A     -0.566747    36A     -0.548193
      37A     -0.533214    38A     -0.522737    39A     -0.503307
      40A     -0.497981    41A     -0.473861    42A     -0.466161
      43A     -0.435745    44A     -0.368092    45A     -0.363187

  @DF-RHF Final Energy:  -872.15425774326820

   => Energetics <=

    Nuclear Repulsion Energy =            742.8655515258130890
    One-Electron Energy =               -2670.8650024142930306
    Two-Electron Energy =                1055.8451931452118515
    Total Energy =                       -872.1542577432680901
  Basis Set: (AUG-CC-PVTZ AUX)
    Blend: AUG-CC-PVTZ-RI
    Molecular point group: c1

    Geometry (in Angstrom), charge = 0, multiplicity = 1:

       Center              X                  Y                   Z               Mass
    ------------   -----------------  -----------------  -----------------  -----------------
         S           -1.251043949728    -0.394133574447    -0.317302368781    31.972071174400
         O           -1.693033949728     0.412396425553    -1.453974368781    15.994914619570
         O           -1.514833949728    -1.827409574447    -0.198537368781    15.994914619570
         N           -1.930257949728     0.295724425553     1.041020631219    14.003074004430
         C            0.509630050272    -0.160392574447    -0.165628368781    12.000000000000
         C            1.262145050272    -1.105611574447     0.537742631219    12.000000000000
         C            1.089836950272     1.016214625553    -0.651907868781    12.000000000000
         C            2.630833050272    -0.892692574447     0.701957631219    12.000000000000
         C            2.468304050272     1.191388425553    -0.520848368781    12.000000000000
         C            3.231998050272     0.258011425553     0.183806631219    12.000000000000
         C           -1.739237949728     1.733122425553     1.244951631219    12.000000000000
         H            0.785118050272    -2.009424574447     0.907513631219     1.007825032230
         H            0.494334050272     1.689567425553    -1.268710368781     1.007825032230
         H           -1.743216949728    -0.284595574447     1.857773631219     1.007825032230
         H            3.229858050272    -1.627033574447     1.234628631219     1.007825032230
         H            2.939839050272     2.078052425553    -0.937162368781     1.007825032230
         H            4.299411050272     0.417725425553     0.314028631219     1.007825032230
         H           -2.371844949728     2.038223425553     2.080178631219     1.007825032230
         H           -2.077297949728     2.249077425553     0.346306631219     1.007825032230
         H           -0.698736949728     2.009812425553     1.456782631219     1.007825032230

  Basis Set: AUG-CC-PVTZ
    Blend: AUG-CC-PVTZ
  Basis Set: (AUG-CC-PVTZ AUX)
    Blend: AUG-CC-PVTZ-JKFIT
	 Reference Energy          =    -872.1542577432682037 [Eh]
	 Singles Energy            =      -0.0000000000000000 [Eh]
	 Same-Spin Energy          =      -0.5647024973930906 [Eh]
	 Opposite-Spin Energy      =      -1.6949005670528425 [Eh]
	 Correlation Energy        =      -2.2596030644459333 [Eh]
	 Total Energy              =    -874.4138608077141726 [Eh]

	 ================> DF-SCS-MP2 Energies <==================
	-----------------------------------------------------------
	 SCS Same-Spin Scale       =       0.3333333333333333 [-]
	 SCS Opposite-Spin Scale   =       1.2000000000000000 [-]
	 SCS Same-Spin Energy      =      -0.1882341657976969 [Eh]
	 SCS Opposite-Spin Energy  =      -2.0338806804634109 [Eh]
	 SCS Correlation Energy    =      -2.2221148462611078 [Eh]
	 SCS Total Energy          =    -874.3763725895292964 [Eh]
	-----------------------------------------------------------

  Dipole Moment: [D]
     X:     3.7205      Y:     2.4935      Z:     3.5755     Total:     5.7309

*** Psi4 exiting successfully. Buy a developer a beer!
