                               Psi4 1.3.2 release

  ==> Input File <==

--------------------------------------------------------------------------
#psi4
#
memory 32 gb

molecule  {
0 1
  S       -1.2780750    -0.4285550    -0.3473560
  O       -1.7200650     0.3779750    -1.4840280
  O       -1.5418650    -1.8618310    -0.2285910
  N       -1.9572890     0.2613030     1.0109670
  C        0.4825990    -0.1948140    -0.1956820
  C        1.2351140    -1.1400330     0.5076890
  C        1.0399426     1.0555667    -0.5533741
  C        2.6038020    -0.9271140     0.6719040
  C        2.4412730     1.1569670    -0.5509020
  C        3.2049670     0.2235900     0.1537530
  C       -1.7662690     1.6987010     1.2148980
  H        0.7580870    -2.0438460     0.8774600
  H        0.4673030     1.6551460    -1.2987640
  H       -1.7702480    -0.3190170     1.8277200
  H        3.2028270    -1.6614550     1.2045750
  H        2.9128080     2.0436310    -0.9672160
  H        4.2723800     0.3833040     0.2839750
  H       -2.3988760     2.0038020     2.0501250
  H       -2.1043290     2.2146560     0.3162530
  H       -0.7257680     1.9753910     1.4267290
units angstrom
no_reorient  #important for SAPT in psi4, default
symmetry c1  #important for SAPT in psi4, default
}

set PROPERTIES_ORIGIN ["COM"]
properties('MP2/aug-cc-pvtz', properties = ['dipole'])
--------------------------------------------------------------------------

    Molecular point group: c1
  Charge       = 0
  Multiplicity = 1
  Basis Set: AUG-CC-PVTZ
    Blend: AUG-CC-PVTZ
  Basis Set: (AUG-CC-PVTZ AUX)
    Blend: AUG-CC-PVTZ-JKFIT

    Orbital Energies [Eh]
    ---------------------

    Doubly Occupied:

       1A    -92.203008     2A    -20.547522     3A    -20.547154
       4A    -15.604458     5A    -11.286377     6A    -11.275527
       7A    -11.273429     8A    -11.270515     9A    -11.267753
      10A    -11.265574    11A    -11.264487    12A     -9.167908
      13A     -6.853085    14A     -6.852530    15A     -6.852296
      16A     -1.452107    17A     -1.336834    18A     -1.234239
      19A     -1.181000    20A     -1.057580    21A     -1.042740
      22A     -0.962606    23A     -0.893269    24A     -0.854296
      25A     -0.812299    26A     -0.748793    27A     -0.711259
      28A     -0.676625    29A     -0.670780    30A     -0.654773
      31A     -0.640041    32A     -0.620448    33A     -0.612543
      34A     -0.607668    35A     -0.566126    36A     -0.547657
      37A     -0.532472    38A     -0.517541    39A     -0.503224
      40A     -0.497937    41A     -0.473656    42A     -0.465000
      43A     -0.436794    44A     -0.367291    45A     -0.363164

  @DF-RHF Final Energy:  -872.14070965820599

   => Energetics <=

    Nuclear Repulsion Energy =            742.7051596711894490
    One-Electron Energy =               -2670.5469764020463117
    Two-Electron Energy =                1055.7011070726509843
    Total Energy =                       -872.1407096582058784
  Basis Set: (AUG-CC-PVTZ AUX)
    Blend: AUG-CC-PVTZ-RI
    Molecular point group: c1

    Geometry (in Angstrom), charge = 0, multiplicity = 1:

       Center              X                  Y                   Z               Mass
    ------------   -----------------  -----------------  -----------------  -----------------
         S           -1.249439839699    -0.399309590649    -0.326324178316    31.972071174400
         O           -1.691429839699     0.407220409351    -1.462996178316    15.994914619570
         O           -1.513229839699    -1.832585590649    -0.207559178316    15.994914619570
         N           -1.928653839699     0.290548409351     1.031998821684    14.003074004430
         C            0.511234160301    -0.165568590649    -0.174650178316    12.000000000000
         C            1.263749160301    -1.110787590649     0.528720821684    12.000000000000
         C            1.068577760301     1.084812109351    -0.532342278316    12.000000000000
         C            2.632437160301    -0.897868590649     0.692935821684    12.000000000000
         C            2.469908160301     1.186212409351    -0.529870178316    12.000000000000
         C            3.233602160301     0.252835409351     0.174784821684    12.000000000000
         C           -1.737633839699     1.727946409351     1.235929821684    12.000000000000
         H            0.786722160301    -2.014600590649     0.898491821684     1.007825032230
         H            0.495938160301     1.684391409351    -1.277732178316     1.007825032230
         H           -1.741612839699    -0.289771590649     1.848751821684     1.007825032230
         H            3.231462160301    -1.632209590649     1.225606821684     1.007825032230
         H            2.941443160301     2.072876409351    -0.946184178316     1.007825032230
         H            4.301015160301     0.412549409351     0.305006821684     1.007825032230
         H           -2.370240839699     2.033047409351     2.071156821684     1.007825032230
         H           -2.075693839699     2.243901409351     0.337284821684     1.007825032230
         H           -0.697132839699     2.004636409351     1.447760821684     1.007825032230

  Basis Set: AUG-CC-PVTZ
    Blend: AUG-CC-PVTZ
  Basis Set: (AUG-CC-PVTZ AUX)
    Blend: AUG-CC-PVTZ-JKFIT
	 Reference Energy          =    -872.1407096582059921 [Eh]
	 Singles Energy            =      -0.0000000000000000 [Eh]
	 Same-Spin Energy          =      -0.5657277285760651 [Eh]
	 Opposite-Spin Energy      =      -1.6974932005378611 [Eh]
	 Correlation Energy        =      -2.2632209291139262 [Eh]
	 Total Energy              =    -874.4039305873199055 [Eh]

	 ================> DF-SCS-MP2 Energies <==================
	-----------------------------------------------------------
	 SCS Same-Spin Scale       =       0.3333333333333333 [-]
	 SCS Opposite-Spin Scale   =       1.2000000000000000 [-]
	 SCS Same-Spin Energy      =      -0.1885759095253550 [Eh]
	 SCS Opposite-Spin Energy  =      -2.0369918406454333 [Eh]
	 SCS Correlation Energy    =      -2.2255677501707885 [Eh]
	 SCS Total Energy          =    -874.3662774083767317 [Eh]
	-----------------------------------------------------------

  Dipole Moment: [D]
     X:     3.7828      Y:     2.4017      Z:     3.5653     Total:     5.7262

*** Psi4 exiting successfully. Buy a developer a beer!
