                               Psi4 1.3.2 release

  ==> Input File <==

--------------------------------------------------------------------------
#psi4
#
memory 32 gb

molecule  {
0 1
  S       -1.2780750    -0.4285550    -0.3473560
  O       -1.7200650     0.3779750    -1.4840280
  O       -1.5418650    -1.8618310    -0.2285910
  N       -1.9572890     0.2613030     1.0109670
  C        0.4825990    -0.1948140    -0.1956820
  C        1.2351140    -1.1400330     0.5076890
  C        1.0475637     1.0309755    -0.5962365
  C        2.6038020    -0.9271140     0.6719040
  C        2.4412730     1.1569670    -0.5509020
  C        3.2049670     0.2235900     0.1537530
  C       -1.7662690     1.6987010     1.2148980
  H        0.7580870    -2.0438460     0.8774600
  H        0.4673030     1.6551460    -1.2987640
  H       -1.7702480    -0.3190170     1.8277200
  H        3.2028270    -1.6614550     1.2045750
  H        2.9128080     2.0436310    -0.9672160
  H        4.2723800     0.3833040     0.2839750
  H       -2.3988760     2.0038020     2.0501250
  H       -2.1043290     2.2146560     0.3162530
  H       -0.7257680     1.9753910     1.4267290
units angstrom
no_reorient  #important for SAPT in psi4, default
symmetry c1  #important for SAPT in psi4, default
}

set PROPERTIES_ORIGIN ["COM"]
properties('MP2/aug-cc-pvtz', properties = ['dipole'])
--------------------------------------------------------------------------

    Molecular point group: c1
  Charge       = 0
  Multiplicity = 1
  Basis Set: AUG-CC-PVTZ
    Blend: AUG-CC-PVTZ
  Basis Set: (AUG-CC-PVTZ AUX)
    Blend: AUG-CC-PVTZ-JKFIT

    Orbital Energies [Eh]
    ---------------------

    Doubly Occupied:

       1A    -92.203030     2A    -20.547485     3A    -20.547206
       4A    -15.604435     5A    -11.284923     6A    -11.275815
       7A    -11.272116     8A    -11.270595     9A    -11.267789
      10A    -11.264107    11A    -11.263566    12A     -9.167921
      13A     -6.853097    14A     -6.852542    15A     -6.852316
      16A     -1.452131    17A     -1.336869    18A     -1.234280
      19A     -1.181508    20A     -1.057753    21A     -1.043335
      22A     -0.962768    23A     -0.893510    24A     -0.854859
      25A     -0.812901    26A     -0.749267    27A     -0.711742
      28A     -0.676943    29A     -0.671256    30A     -0.655346
      31A     -0.640658    32A     -0.620742    33A     -0.613965
      34A     -0.607675    35A     -0.566370    36A     -0.547951
      37A     -0.532806    38A     -0.519835    39A     -0.503276
      40A     -0.497970    41A     -0.473750    42A     -0.465409
      43A     -0.436466    44A     -0.367571    45A     -0.363320

  @DF-RHF Final Energy:  -872.14689708656863

   => Energetics <=

    Nuclear Repulsion Energy =            742.8164612147106709
    One-Electron Energy =               -2670.7683640753130021
    Two-Electron Energy =                1055.8050057740338161
    Total Energy =                       -872.1468970865685151
  Basis Set: (AUG-CC-PVTZ AUX)
    Blend: AUG-CC-PVTZ-RI
    Molecular point group: c1

    Geometry (in Angstrom), charge = 0, multiplicity = 1:

       Center              X                  Y                   Z               Mass
    ------------   -----------------  -----------------  -----------------  -----------------
         S           -1.249974543042    -0.397584249577    -0.323316913148    31.972071174400
         O           -1.691964543042     0.408945750423    -1.459988913148    15.994914619570
         O           -1.513764543042    -1.830860249577    -0.204551913148    15.994914619570
         N           -1.929188543042     0.292273750423     1.035006086852    14.003074004430
         C            0.510699456958    -0.163843249577    -0.171642913148    12.000000000000
         C            1.263214456958    -1.109062249577     0.531728086852    12.000000000000
         C            1.075664156958     1.061946250423    -0.572197413148    12.000000000000
         C            2.631902456958    -0.896143249577     0.695943086852    12.000000000000
         C            2.469373456958     1.187937750423    -0.526862913148    12.000000000000
         C            3.233067456958     0.254560750423     0.177792086852    12.000000000000
         C           -1.738168543042     1.729671750423     1.238937086852    12.000000000000
         H            0.786187456958    -2.012875249577     0.901499086852     1.007825032230
         H            0.495403456958     1.686116750423    -1.274724913148     1.007825032230
         H           -1.742147543042    -0.288046249577     1.851759086852     1.007825032230
         H            3.230927456958    -1.630484249577     1.228614086852     1.007825032230
         H            2.940908456958     2.074601750423    -0.943176913148     1.007825032230
         H            4.300480456958     0.414274750423     0.308014086852     1.007825032230
         H           -2.370775543042     2.034772750423     2.074164086852     1.007825032230
         H           -2.076228543042     2.245626750423     0.340292086852     1.007825032230
         H           -0.697667543042     2.006361750423     1.450768086852     1.007825032230

  Basis Set: AUG-CC-PVTZ
    Blend: AUG-CC-PVTZ
  Basis Set: (AUG-CC-PVTZ AUX)
    Blend: AUG-CC-PVTZ-JKFIT
	 Reference Energy          =    -872.1468970865686288 [Eh]
	 Singles Energy            =      -0.0000000000000000 [Eh]
	 Same-Spin Energy          =      -0.5652916796102855 [Eh]
	 Opposite-Spin Energy      =      -1.6963779039148523 [Eh]
	 Correlation Energy        =      -2.2616695835251379 [Eh]
	 Total Energy              =    -874.4085666700938191 [Eh]

	 ================> DF-SCS-MP2 Energies <==================
	-----------------------------------------------------------
	 SCS Same-Spin Scale       =       0.3333333333333333 [-]
	 SCS Opposite-Spin Scale   =       1.2000000000000000 [-]
	 SCS Same-Spin Energy      =      -0.1884305598700952 [Eh]
	 SCS Opposite-Spin Energy  =      -2.0356534846978227 [Eh]
	 SCS Correlation Energy    =      -2.2240840445679178 [Eh]
	 SCS Total Energy          =    -874.3709811311365456 [Eh]
	-----------------------------------------------------------

  Dipole Moment: [D]
     X:     3.7573      Y:     2.4383      Z:     3.5657     Total:     5.7251

*** Psi4 exiting successfully. Buy a developer a beer!
