                               Psi4 1.3.2 release

  ==> Input File <==

--------------------------------------------------------------------------
#psi4
#
memory 32 gb

molecule  {
0 1
  S       -1.2780750    -0.4285550    -0.3473560
  O       -1.7200650     0.3779750    -1.4840280
  O       -1.5418650    -1.8618310    -0.2285910
  N       -1.9572890     0.2613030     1.0109670
  C        0.4825990    -0.1948140    -0.1956820
  C        1.2351140    -1.1400330     0.5076890
  C        1.0323215     1.0801579    -0.5105116
  C        2.6038020    -0.9271140     0.6719040
  C        2.4412730     1.1569670    -0.5509020
  C        3.2049670     0.2235900     0.1537530
  C       -1.7662690     1.6987010     1.2148980
  H        0.7580870    -2.0438460     0.8774600
  H        0.4673030     1.6551460    -1.2987640
  H       -1.7702480    -0.3190170     1.8277200
  H        3.2028270    -1.6614550     1.2045750
  H        2.9128080     2.0436310    -0.9672160
  H        4.2723800     0.3833040     0.2839750
  H       -2.3988760     2.0038020     2.0501250
  H       -2.1043290     2.2146560     0.3162530
  H       -0.7257680     1.9753910     1.4267290
units angstrom
no_reorient  #important for SAPT in psi4, default
symmetry c1  #important for SAPT in psi4, default
}

set PROPERTIES_ORIGIN ["COM"]
properties('MP2/aug-cc-pvtz', properties = ['dipole'])
--------------------------------------------------------------------------

    Molecular point group: c1
  Charge       = 0
  Multiplicity = 1
  Basis Set: AUG-CC-PVTZ
    Blend: AUG-CC-PVTZ
  Basis Set: (AUG-CC-PVTZ AUX)
    Blend: AUG-CC-PVTZ-JKFIT

    Orbital Energies [Eh]
    ---------------------

    Doubly Occupied:

       1A    -92.202973     2A    -20.547550     3A    -20.547090
       4A    -15.604489     5A    -11.288141     6A    -11.275177
       7A    -11.275086     8A    -11.270427     9A    -11.268174
      10A    -11.267029    11A    -11.265575    12A     -9.167885
      13A     -6.853064    14A     -6.852508    15A     -6.852264
      16A     -1.452074    17A     -1.336786    18A     -1.234184
      19A     -1.180343    20A     -1.057377    21A     -1.041913
      22A     -0.962405    23A     -0.892950    24A     -0.853647
      25A     -0.811576    26A     -0.748279    27A     -0.710693
      28A     -0.676295    29A     -0.670264    30A     -0.654043
      31A     -0.639291    32A     -0.620082    33A     -0.610799
      34A     -0.607603    35A     -0.565840    36A     -0.547219
      37A     -0.532049    38A     -0.514671    39A     -0.503134
      40A     -0.497883    41A     -0.473531    42A     -0.464566
      43A     -0.437089    44A     -0.367110    45A     -0.362795

  @DF-RHF Final Energy:  -872.13281549469548

   => Energetics <=

    Nuclear Repulsion Energy =            742.5383940144522512
    One-Electron Energy =               -2670.2145753288755259
    Two-Electron Energy =                1055.5433658197277964
    Total Energy =                       -872.1328154946954783
  Basis Set: (AUG-CC-PVTZ AUX)
    Blend: AUG-CC-PVTZ-RI
    Molecular point group: c1

    Geometry (in Angstrom), charge = 0, multiplicity = 1:

       Center              X                  Y                   Z               Mass
    ------------   -----------------  -----------------  -----------------  -----------------
         S           -1.248905136356    -0.401034931722    -0.329331450500    31.972071174400
         O           -1.690895136356     0.405495068278    -1.466003450500    15.994914619570
         O           -1.512695136356    -1.834310931722    -0.210566450500    15.994914619570
         N           -1.928119136356     0.288823068278     1.028991549500    14.003074004430
         C            0.511768863644    -0.167293931722    -0.177657450500    12.000000000000
         C            1.264283863644    -1.112512931722     0.525713549500    12.000000000000
         C            1.061491363644     1.107677968278    -0.492487050500    12.000000000000
         C            2.632971863644    -0.899593931722     0.689928549500    12.000000000000
         C            2.470442863644     1.184487068278    -0.532877450500    12.000000000000
         C            3.234136863644     0.251110068278     0.171777549500    12.000000000000
         C           -1.737099136356     1.726221068278     1.232922549500    12.000000000000
         H            0.787256863644    -2.016325931722     0.895484549500     1.007825032230
         H            0.496472863644     1.682666068278    -1.280739450500     1.007825032230
         H           -1.741078136356    -0.291496931722     1.845744549500     1.007825032230
         H            3.231996863644    -1.633934931722     1.222599549500     1.007825032230
         H            2.941977863644     2.071151068278    -0.949191450500     1.007825032230
         H            4.301549863644     0.410824068278     0.301999549500     1.007825032230
         H           -2.369706136356     2.031322068278     2.068149549500     1.007825032230
         H           -2.075159136356     2.242176068278     0.334277549500     1.007825032230
         H           -0.696598136356     2.002911068278     1.444753549500     1.007825032230

  Basis Set: AUG-CC-PVTZ
    Blend: AUG-CC-PVTZ
  Basis Set: (AUG-CC-PVTZ AUX)
    Blend: AUG-CC-PVTZ-JKFIT
	 Reference Energy          =    -872.1328154946954783 [Eh]
	 Singles Energy            =      -0.0000000000000000 [Eh]
	 Same-Spin Energy          =      -0.5662524117952724 [Eh]
	 Opposite-Spin Energy      =      -1.6988490775117042 [Eh]
	 Correlation Energy        =      -2.2651014893069767 [Eh]
	 Total Energy              =    -874.3979169840024497 [Eh]

	 ================> DF-SCS-MP2 Energies <==================
	-----------------------------------------------------------
	 SCS Same-Spin Scale       =       0.3333333333333333 [-]
	 SCS Opposite-Spin Scale   =       1.2000000000000000 [-]
	 SCS Same-Spin Energy      =      -0.1887508039317575 [Eh]
	 SCS Opposite-Spin Energy  =      -2.0386188930140450 [Eh]
	 SCS Correlation Energy    =      -2.2273696969458023 [Eh]
	 SCS Total Energy          =    -874.3601851916413352 [Eh]
	-----------------------------------------------------------

  Dipole Moment: [D]
     X:     3.8128      Y:     2.3594      Z:     3.5676     Total:     5.7299

*** Psi4 exiting successfully. Buy a developer a beer!
