                               Psi4 1.3.2 release

  ==> Input File <==

--------------------------------------------------------------------------
#psi4
#
memory 32 gb

molecule  {
0 1
  S       -1.2780750    -0.4285550    -0.3473560
  O       -1.7200650     0.3779750    -1.4840280
  O       -1.5418650    -1.8618310    -0.2285910
  N       -1.9572890     0.2613030     1.0109670
  C        0.4825990    -0.1948140    -0.1956820
  C        1.2351140    -1.1400330     0.5076890
  C        1.0247004     1.1047491    -0.4676491
  C        2.6038020    -0.9271140     0.6719040
  C        2.4412730     1.1569670    -0.5509020
  C        3.2049670     0.2235900     0.1537530
  C       -1.7662690     1.6987010     1.2148980
  H        0.7580870    -2.0438460     0.8774600
  H        0.4673030     1.6551460    -1.2987640
  H       -1.7702480    -0.3190170     1.8277200
  H        3.2028270    -1.6614550     1.2045750
  H        2.9128080     2.0436310    -0.9672160
  H        4.2723800     0.3833040     0.2839750
  H       -2.3988760     2.0038020     2.0501250
  H       -2.1043290     2.2146560     0.3162530
  H       -0.7257680     1.9753910     1.4267290
units angstrom
no_reorient  #important for SAPT in psi4, default
symmetry c1  #important for SAPT in psi4, default
}

set PROPERTIES_ORIGIN ["COM"]
properties('MP2/aug-cc-pvtz', properties = ['dipole'])
--------------------------------------------------------------------------

    Molecular point group: c1
  Charge       = 0
  Multiplicity = 1
  Basis Set: AUG-CC-PVTZ
    Blend: AUG-CC-PVTZ
  Basis Set: (AUG-CC-PVTZ AUX)
    Blend: AUG-CC-PVTZ-JKFIT

    Orbital Energies [Eh]
    ---------------------

    Doubly Occupied:

       1A    -92.202926     2A    -20.547567     3A    -20.547015
       4A    -15.604523     5A    -11.290188     6A    -11.277045
       7A    -11.274756     8A    -11.270359     9A    -11.270124
      10A    -11.267694    11A    -11.266515    12A     -9.167851
      13A     -6.853033    14A     -6.852477    15A     -6.852221
      16A     -1.452032    17A     -1.336727    18A     -1.234112
      19A     -1.179561    20A     -1.057162    21A     -1.040849
      22A     -0.962157    23A     -0.892555    24A     -0.852931
      25A     -0.810757    26A     -0.747765    27A     -0.710082
      28A     -0.675976    29A     -0.669718    30A     -0.653236
      31A     -0.638382    32A     -0.619634    33A     -0.608943
      34A     -0.607320    35A     -0.565510    36A     -0.546611
      37A     -0.531530    38A     -0.511234    39A     -0.502973
      40A     -0.497807    41A     -0.473369    42A     -0.464104
      43A     -0.437341    44A     -0.367092    45A     -0.362190

  @DF-RHF Final Energy:  -872.12319531747767

   => Energetics <=

    Nuclear Repulsion Energy =            742.3184761284680917
    One-Electron Energy =               -2669.7754405226100971
    Two-Electron Energy =                1055.3337690766643391
    Total Energy =                       -872.1231953174776663
  Basis Set: (AUG-CC-PVTZ AUX)
    Blend: AUG-CC-PVTZ-RI
    Molecular point group: c1

    Geometry (in Angstrom), charge = 0, multiplicity = 1:

       Center              X                  Y                   Z               Mass
    ------------   -----------------  -----------------  -----------------  -----------------
         S           -1.248370433013    -0.402760272795    -0.332338722684    31.972071174400
         O           -1.690360433013     0.403769727205    -1.469010722684    15.994914619570
         O           -1.512160433013    -1.836036272795    -0.213573722684    15.994914619570
         N           -1.927584433013     0.287097727205     1.025984277316    14.003074004430
         C            0.512303566987    -0.169019272795    -0.180664722684    12.000000000000
         C            1.264818566987    -1.114238272795     0.522706277316    12.000000000000
         C            1.054404966987     1.130543827205    -0.452631822684    12.000000000000
         C            2.633506566987    -0.901319272795     0.686921277316    12.000000000000
         C            2.470977566987     1.182761727205    -0.535884722684    12.000000000000
         C            3.234671566987     0.249384727205     0.168770277316    12.000000000000
         C           -1.736564433013     1.724495727205     1.229915277316    12.000000000000
         H            0.787791566987    -2.018051272795     0.892477277316     1.007825032230
         H            0.497007566987     1.680940727205    -1.283746722684     1.007825032230
         H           -1.740543433013    -0.293222272795     1.842737277316     1.007825032230
         H            3.232531566987    -1.635660272795     1.219592277316     1.007825032230
         H            2.942512566987     2.069425727205    -0.952198722684     1.007825032230
         H            4.302084566987     0.409098727205     0.298992277316     1.007825032230
         H           -2.369171433013     2.029596727205     2.065142277316     1.007825032230
         H           -2.074624433013     2.240450727205     0.331270277316     1.007825032230
         H           -0.696063433013     2.001185727205     1.441746277316     1.007825032230

  Basis Set: AUG-CC-PVTZ
    Blend: AUG-CC-PVTZ
  Basis Set: (AUG-CC-PVTZ AUX)
    Blend: AUG-CC-PVTZ-JKFIT
	 Reference Energy          =    -872.1231953174776663 [Eh]
	 Singles Energy            =      -0.0000000000000000 [Eh]
	 Same-Spin Energy          =      -0.5668593947030238 [Eh]
	 Opposite-Spin Energy      =      -1.7004375812994257 [Eh]
	 Correlation Energy        =      -2.2672969760024495 [Eh]
	 Total Energy              =    -874.3904922934800652 [Eh]

	 ================> DF-SCS-MP2 Energies <==================
	-----------------------------------------------------------
	 SCS Same-Spin Scale       =       0.3333333333333333 [-]
	 SCS Opposite-Spin Scale   =       1.2000000000000000 [-]
	 SCS Same-Spin Energy      =      -0.1889531315676746 [Eh]
	 SCS Opposite-Spin Energy  =      -2.0405250975593106 [Eh]
	 SCS Correlation Energy    =      -2.2294782291269852 [Eh]
	 SCS Total Energy          =    -874.3526735466047057 [Eh]
	-----------------------------------------------------------

  Dipole Moment: [D]
     X:     3.8469      Y:     2.3120      Z:     3.5726     Total:     5.7364

*** Psi4 exiting successfully. Buy a developer a beer!
