                               Psi4 1.3.2 release

  ==> Input File <==

--------------------------------------------------------------------------
#psi4
#
memory 32 gb

molecule  {
0 1
  S       -1.2780750    -0.4285550    -0.3473560
  O       -1.7200650     0.3779750    -1.4840280
  O       -1.5418650    -1.8618310    -0.2285910
  N       -1.9572890     0.2613030     1.0109670
  C        0.4825990    -0.1948140    -0.1956820
  C        1.2351140    -1.1400330     0.5076890
  C        1.0551848     1.0063844    -0.6390990
  C        2.6038020    -0.9271140     0.6719040
  C        2.4412730     1.1569670    -0.5509020
  C        3.2049670     0.2235900     0.1537530
  C       -1.7662690     1.6987010     1.2148980
  H        0.7580870    -2.0438460     0.8774600
  H        0.4673030     1.6551460    -1.2987640
  H       -1.7702480    -0.3190170     1.8277200
  H        3.2028270    -1.6614550     1.2045750
  H        2.9128080     2.0436310    -0.9672160
  H        4.2723800     0.3833040     0.2839750
  H       -2.3988760     2.0038020     2.0501250
  H       -2.1043290     2.2146560     0.3162530
  H       -0.7257680     1.9753910     1.4267290
units angstrom
no_reorient  #important for SAPT in psi4, default
symmetry c1  #important for SAPT in psi4, default
}

set PROPERTIES_ORIGIN ["COM"]
properties('MP2/aug-cc-pvtz', properties = ['dipole'])
--------------------------------------------------------------------------

    Molecular point group: c1
  Charge       = 0
  Multiplicity = 1
  Basis Set: AUG-CC-PVTZ
    Blend: AUG-CC-PVTZ
  Basis Set: (AUG-CC-PVTZ AUX)
    Blend: AUG-CC-PVTZ-JKFIT

    Orbital Energies [Eh]
    ---------------------

    Doubly Occupied:

       1A    -92.203041     2A    -20.547439     3A    -20.547247
       4A    -15.604421     5A    -11.283806     6A    -11.276052
       7A    -11.271183     8A    -11.270649     9A    -11.267855
      10A    -11.263031    11A    -11.262840    12A     -9.167925
      13A     -6.853099    14A     -6.852545    15A     -6.852324
      16A     -1.452146    17A     -1.336892    18A     -1.234311
      19A     -1.181851    20A     -1.057885    21A     -1.043708
      22A     -0.962897    23A     -0.893673    24A     -0.855318
      25A     -0.813361    26A     -0.749660    27A     -0.712109
      28A     -0.677226    29A     -0.671680    30A     -0.655710
      31A     -0.641151    32A     -0.620974    33A     -0.615020
      34A     -0.607650    35A     -0.566576    36A     -0.548123
      37A     -0.533054    38A     -0.521563    39A     -0.503302
      40A     -0.497985    41A     -0.473818    42A     -0.465795
      43A     -0.436114    44A     -0.367862    45A     -0.363313

  @DF-RHF Final Energy:  -872.15140412115147

   => Energetics <=

    Nuclear Repulsion Energy =            742.8703981278333686
    One-Electron Energy =               -2670.8752377139035161
    Two-Electron Energy =                1055.8534354649186753
    Total Energy =                       -872.1514041211514723
  Basis Set: (AUG-CC-PVTZ AUX)
    Blend: AUG-CC-PVTZ-RI
    Molecular point group: c1

    Geometry (in Angstrom), charge = 0, multiplicity = 1:

       Center              X                  Y                   Z               Mass
    ------------   -----------------  -----------------  -----------------  -----------------
         S           -1.250509246385    -0.395858915520    -0.320309640965    31.972071174400
         O           -1.692499246385     0.410671084480    -1.456981640965    15.994914619570
         O           -1.514299246385    -1.829134915520    -0.201544640965    15.994914619570
         N           -1.929723246385     0.293999084480     1.038013359035    14.003074004430
         C            0.510164753615    -0.162117915520    -0.168635640965    12.000000000000
         C            1.262679753615    -1.107336915520     0.534735359035    12.000000000000
         C            1.082750553615     1.039080484480    -0.612052640965    12.000000000000
         C            2.631367753615    -0.894417915520     0.698950359035    12.000000000000
         C            2.468838753615     1.189663084480    -0.523855640965    12.000000000000
         C            3.232532753615     0.256286084480     0.180799359035    12.000000000000
         C           -1.738703246385     1.731397084480     1.241944359035    12.000000000000
         H            0.785652753615    -2.011149915520     0.904506359035     1.007825032230
         H            0.494868753615     1.687842084480    -1.271717640965     1.007825032230
         H           -1.742682246385    -0.286320915520     1.854766359035     1.007825032230
         H            3.230392753615    -1.628758915520     1.231621359035     1.007825032230
         H            2.940373753615     2.076327084480    -0.940169640965     1.007825032230
         H            4.299945753615     0.416000084480     0.311021359035     1.007825032230
         H           -2.371310246385     2.036498084480     2.077171359035     1.007825032230
         H           -2.076763246385     2.247352084480     0.343299359035     1.007825032230
         H           -0.698202246385     2.008087084480     1.453775359035     1.007825032230

  Basis Set: AUG-CC-PVTZ
    Blend: AUG-CC-PVTZ
  Basis Set: (AUG-CC-PVTZ AUX)
    Blend: AUG-CC-PVTZ-JKFIT
	 Reference Energy          =    -872.1514041211514723 [Eh]
	 Singles Energy            =      -0.0000000000000000 [Eh]
	 Same-Spin Energy          =      -0.5649488006510084 [Eh]
	 Opposite-Spin Energy      =      -1.6955104957547791 [Eh]
	 Correlation Energy        =      -2.2604592964057875 [Eh]
	 Total Energy              =    -874.4118634175572424 [Eh]

	 ================> DF-SCS-MP2 Energies <==================
	-----------------------------------------------------------
	 SCS Same-Spin Scale       =       0.3333333333333333 [-]
	 SCS Opposite-Spin Scale   =       1.2000000000000000 [-]
	 SCS Same-Spin Energy      =      -0.1883162668836695 [Eh]
	 SCS Opposite-Spin Energy  =      -2.0346125949057350 [Eh]
	 SCS Correlation Energy    =      -2.2229288617894043 [Eh]
	 SCS Total Energy          =    -874.3743329829409276 [Eh]
	-----------------------------------------------------------

  Dipole Moment: [D]
     X:     3.7365      Y:     2.4689      Z:     3.5690     Total:     5.7267

*** Psi4 exiting successfully. Buy a developer a beer!
