                               Psi4 1.3.2 release

  ==> Input File <==

--------------------------------------------------------------------------
#psi4
#
memory 32 gb

molecule  {
0 1
  F       -2.0746710    -0.0124370    -0.0000860
  N        1.3733650    -0.6503060     0.0000540
  C        0.0797100    -1.1194690     0.0000080
  C       -0.7218460     0.0042460    -0.0000290
  C        0.0790676     1.1640703     0.1500030
  C        1.3909070     0.7202580     0.0000560
  H       -0.1632220    -2.1709030    -0.0000010
  H        2.1947510    -1.2389290     0.0000860
  H       -0.2615160     2.1895410    -0.0000100
  H        2.3214050     1.2697350     0.0000920
units angstrom
no_reorient  #important for SAPT in psi4, default
symmetry c1  #important for SAPT in psi4, default
}

set PROPERTIES_ORIGIN ["COM"]
properties('MP2/aug-cc-pvtz', properties = ['dipole'])
--------------------------------------------------------------------------

    Molecular point group: c1
  Charge       = 0
  Multiplicity = 1
  Basis Set: AUG-CC-PVTZ
    Blend: AUG-CC-PVTZ
  Basis Set: (AUG-CC-PVTZ AUX)
    Blend: AUG-CC-PVTZ-JKFIT

    Orbital Energies [Eh]
    ---------------------

    Doubly Occupied:

       1A    -26.298186     2A    -15.622400     3A    -11.307307
       4A    -11.275161     5A    -11.262288     6A    -11.227147
       7A     -1.608725     8A     -1.304712     9A     -1.055116
      10A     -0.991739    11A     -0.819911    12A     -0.797141
      13A     -0.753254    14A     -0.681219    15A     -0.678525
      16A     -0.651310    17A     -0.600087    18A     -0.586756
      19A     -0.569990    20A     -0.530421    21A     -0.357006
      22A     -0.309034

  @DF-RHF Final Energy:  -307.76237403347199

   => Energetics <=

    Nuclear Repulsion Energy =            219.6945467456412189
    One-Electron Energy =                -856.3389695979971066
    Two-Electron Energy =                 328.8820488188839022
    Total Energy =                       -307.7623740334719855
  Basis Set: (AUG-CC-PVTZ AUX)
    Blend: AUG-CC-PVTZ-RI
    Molecular point group: c1

    Geometry (in Angstrom), charge = 0, multiplicity = 1:

       Center              X                  Y                   Z               Mass
    ------------   -----------------  -----------------  -----------------  -----------------
         F           -2.002621046147    -0.011690562158    -0.021251327857    18.998403162730
         N            1.445414953853    -0.649559562158    -0.021111327857    14.003074004430
         C            0.151759953853    -1.118722562158    -0.021157327857    12.000000000000
         C           -0.649796046147     0.004992437842    -0.021194327857    12.000000000000
         C            0.151117553853     1.164816737842     0.128837672143    12.000000000000
         C            1.462956953853     0.721004437842    -0.021109327857    12.000000000000
         H           -0.091172046147    -2.170156562158    -0.021166327857     1.007825032230
         H            2.266800953853    -1.238182562158    -0.021079327857     1.007825032230
         H           -0.189466046147     2.190287437842    -0.021175327857     1.007825032230
         H            2.393454953853     1.270481437842    -0.021073327857     1.007825032230

  Basis Set: AUG-CC-PVTZ
    Blend: AUG-CC-PVTZ
  Basis Set: (AUG-CC-PVTZ AUX)
    Blend: AUG-CC-PVTZ-JKFIT
	 Reference Energy          =    -307.7623740334719855 [Eh]
	 Singles Energy            =      -0.0000000000000000 [Eh]
	 Same-Spin Energy          =      -0.3027699247433868 [Eh]
	 Opposite-Spin Energy      =      -0.9124080173092610 [Eh]
	 Correlation Energy        =      -1.2151779420526478 [Eh]
	 Total Energy              =    -308.9775519755246478 [Eh]

	 ================> DF-SCS-MP2 Energies <==================
	-----------------------------------------------------------
	 SCS Same-Spin Scale       =       0.3333333333333333 [-]
	 SCS Opposite-Spin Scale   =       1.2000000000000000 [-]
	 SCS Same-Spin Energy      =      -0.1009233082477956 [Eh]
	 SCS Opposite-Spin Energy  =      -1.0948896207711132 [Eh]
	 SCS Correlation Energy    =      -1.1958129290189088 [Eh]
	 SCS Total Energy          =    -308.9581869624909132 [Eh]
	-----------------------------------------------------------

  Dipole Moment: [D]
     X:     3.1054      Y:    -1.0510      Z:    -0.1481     Total:     3.2818

*** Psi4 exiting successfully. Buy a developer a beer!
