                               Psi4 1.3.2 release

  ==> Input File <==

--------------------------------------------------------------------------
#psi4
#
memory 32 gb

molecule  {
0 1
  F       -2.0746710    -0.0124370    -0.0000860
  N        1.3733650    -0.6503060     0.0000540
  C        0.0797100    -1.1194690     0.0000080
  C       -0.7218460     0.0042460    -0.0000290
  C        0.0790719     1.1640701     0.0500030
  C        1.3909070     0.7202580     0.0000560
  H       -0.1632220    -2.1709030    -0.0000010
  H        2.1947510    -1.2389290     0.0000860
  H       -0.2615160     2.1895410    -0.0000100
  H        2.3214050     1.2697350     0.0000920
units angstrom
no_reorient  #important for SAPT in psi4, default
symmetry c1  #important for SAPT in psi4, default
}

set PROPERTIES_ORIGIN ["COM"]
properties('MP2/aug-cc-pvtz', properties = ['dipole'])
--------------------------------------------------------------------------

    Molecular point group: c1
  Charge       = 0
  Multiplicity = 1
  Basis Set: AUG-CC-PVTZ
    Blend: AUG-CC-PVTZ
  Basis Set: (AUG-CC-PVTZ AUX)
    Blend: AUG-CC-PVTZ-JKFIT

    Orbital Energies [Eh]
    ---------------------

    Doubly Occupied:

       1A    -26.298056     2A    -15.621431     3A    -11.306078
       4A    -11.272698     5A    -11.262007     6A    -11.225404
       7A     -1.608600     8A     -1.304296     9A     -1.056344
      10A     -0.991672    11A     -0.820651    12A     -0.797099
      13A     -0.753835    14A     -0.680750    15A     -0.678534
      16A     -0.652100    17A     -0.599726    18A     -0.585612
      19A     -0.575324    20A     -0.532539    21A     -0.357047
      22A     -0.308969

  @DF-RHF Final Energy:  -307.76768304647209

   => Energetics <=

    Nuclear Repulsion Energy =            219.9175715881056021
    One-Electron Energy =                -856.7929644250642696
    Two-Electron Energy =                 329.1077097904865809
    Total Energy =                       -307.7676830464720865
  Basis Set: (AUG-CC-PVTZ AUX)
    Blend: AUG-CC-PVTZ-RI
    Molecular point group: c1

    Geometry (in Angstrom), charge = 0, multiplicity = 1:

       Center              X                  Y                   Z               Mass
    ------------   -----------------  -----------------  -----------------  -----------------
         F           -2.002621652971    -0.011690533934    -0.007139122680    18.998403162730
         N            1.445414347029    -0.649559533934    -0.006999122680    14.003074004430
         C            0.151759347029    -1.118722533934    -0.007045122680    12.000000000000
         C           -0.649796652971     0.004992466066    -0.007082122680    12.000000000000
         C            0.151121247029     1.164816566066     0.042949877320    12.000000000000
         C            1.462956347029     0.721004466066    -0.006997122680    12.000000000000
         H           -0.091172652971    -2.170156533934    -0.007054122680     1.007825032230
         H            2.266800347029    -1.238182533934    -0.006967122680     1.007825032230
         H           -0.189466652971     2.190287466066    -0.007063122680     1.007825032230
         H            2.393454347029     1.270481466066    -0.006961122680     1.007825032230

  Basis Set: AUG-CC-PVTZ
    Blend: AUG-CC-PVTZ
  Basis Set: (AUG-CC-PVTZ AUX)
    Blend: AUG-CC-PVTZ-JKFIT
	 Reference Energy          =    -307.7676830464720865 [Eh]
	 Singles Energy            =      -0.0000000000000000 [Eh]
	 Same-Spin Energy          =      -0.3025210288225680 [Eh]
	 Opposite-Spin Energy      =      -0.9116645177241329 [Eh]
	 Correlation Energy        =      -1.2141855465467009 [Eh]
	 Total Energy              =    -308.9818685930187598 [Eh]

	 ================> DF-SCS-MP2 Energies <==================
	-----------------------------------------------------------
	 SCS Same-Spin Scale       =       0.3333333333333333 [-]
	 SCS Opposite-Spin Scale   =       1.2000000000000000 [-]
	 SCS Same-Spin Energy      =      -0.1008403429408560 [Eh]
	 SCS Opposite-Spin Energy  =      -1.0939974212689594 [Eh]
	 SCS Correlation Energy    =      -1.1948377642098154 [Eh]
	 SCS Total Energy          =    -308.9625208106818945 [Eh]
	-----------------------------------------------------------

  Dipole Moment: [D]
     X:     3.0887      Y:    -0.9998      Z:    -0.0487     Total:     3.2468

*** Psi4 exiting successfully. Buy a developer a beer!
