                               Psi4 1.3.2 release

  ==> Input File <==

--------------------------------------------------------------------------
#psi4
#
memory 32 gb

molecule  {
0 1
  F       -2.0746710    -0.0124370    -0.0000860
  N        1.3733650    -0.6503060     0.0000540
  C        0.0797100    -1.1194690     0.0000080
  C       -0.7218460     0.0042460    -0.0000290
  C        0.0790612     1.1640707     0.3000030
  C        1.3909070     0.7202580     0.0000560
  H       -0.1632220    -2.1709030    -0.0000010
  H        2.1947510    -1.2389290     0.0000860
  H       -0.2615160     2.1895410    -0.0000100
  H        2.3214050     1.2697350     0.0000920
units angstrom
no_reorient  #important for SAPT in psi4, default
symmetry c1  #important for SAPT in psi4, default
}

set PROPERTIES_ORIGIN ["COM"]
properties('MP2/aug-cc-pvtz', properties = ['dipole'])
--------------------------------------------------------------------------

    Molecular point group: c1
  Charge       = 0
  Multiplicity = 1
  Basis Set: AUG-CC-PVTZ
    Blend: AUG-CC-PVTZ
  Basis Set: (AUG-CC-PVTZ AUX)
    Blend: AUG-CC-PVTZ-JKFIT

    Orbital Energies [Eh]
    ---------------------

    Doubly Occupied:

       1A    -26.298629     2A    -15.625727     3A    -11.311174
       4A    -11.283147     5A    -11.263343     6A    -11.232862
       7A     -1.609134     8A     -1.306214     9A     -1.051047
      10A     -0.991947    11A     -0.817816    12A     -0.797365
      13A     -0.751858    14A     -0.682520    15A     -0.678595
      16A     -0.649048    17A     -0.602106    18A     -0.587320
      19A     -0.555181    20A     -0.522873    21A     -0.357175
      22A     -0.309384

  @DF-RHF Final Energy:  -307.74396984800660

   => Energetics <=

    Nuclear Repulsion Energy =            218.9637751493364703
    One-Electron Energy =                -854.8465567123563460
    Two-Electron Energy =                 328.1388117150132757
    Total Energy =                       -307.7439698480065999
  Basis Set: (AUG-CC-PVTZ AUX)
    Blend: AUG-CC-PVTZ-RI
    Molecular point group: c1

    Geometry (in Angstrom), charge = 0, multiplicity = 1:

       Center              X                  Y                   Z               Mass
    ------------   -----------------  -----------------  -----------------  -----------------
         F           -2.002620142965    -0.011690618607    -0.042419635623    18.998403162730
         N            1.445415857035    -0.649559618607    -0.042279635623    14.003074004430
         C            0.151760857035    -1.118722618607    -0.042325635623    12.000000000000
         C           -0.649795142965     0.004992381393    -0.042362635623    12.000000000000
         C            0.151112057035     1.164817081393     0.257669364377    12.000000000000
         C            1.462957857035     0.721004381393    -0.042277635623    12.000000000000
         H           -0.091171142965    -2.170156618607    -0.042334635623     1.007825032230
         H            2.266801857035    -1.238182618607    -0.042247635623     1.007825032230
         H           -0.189465142965     2.190287381393    -0.042343635623     1.007825032230
         H            2.393455857035     1.270481381393    -0.042241635623     1.007825032230

  Basis Set: AUG-CC-PVTZ
    Blend: AUG-CC-PVTZ
  Basis Set: (AUG-CC-PVTZ AUX)
    Blend: AUG-CC-PVTZ-JKFIT
	 Reference Energy          =    -307.7439698480065999 [Eh]
	 Singles Energy            =      -0.0000000000000000 [Eh]
	 Same-Spin Energy          =      -0.3035610138439844 [Eh]
	 Opposite-Spin Energy      =      -0.9150946207685171 [Eh]
	 Correlation Energy        =      -1.2186556346125015 [Eh]
	 Total Energy              =    -308.9626254826191030 [Eh]

	 ================> DF-SCS-MP2 Energies <==================
	-----------------------------------------------------------
	 SCS Same-Spin Scale       =       0.3333333333333333 [-]
	 SCS Opposite-Spin Scale   =       1.2000000000000000 [-]
	 SCS Same-Spin Energy      =      -0.1011870046146615 [Eh]
	 SCS Opposite-Spin Energy  =      -1.0981135449222206 [Eh]
	 SCS Correlation Energy    =      -1.1993005495368820 [Eh]
	 SCS Total Energy          =    -308.9432703975434720 [Eh]
	-----------------------------------------------------------

  Dipole Moment: [D]
     X:     3.1583      Y:    -1.2175      Z:    -0.3038     Total:     3.3984

*** Psi4 exiting successfully. Buy a developer a beer!
