                               Psi4 1.3.2 release

  ==> Input File <==

--------------------------------------------------------------------------
#psi4
#
memory 32 gb

molecule  {
0 1
  F       -2.0746710    -0.0124370    -0.0000860
  N        1.3733650    -0.6503060     0.0000540
  C        0.0797100    -1.1194690     0.0000080
  C       -0.7218460     0.0042460    -0.0000290
  C        0.0790697     1.1640702     0.1000030
  C        1.3909070     0.7202580     0.0000560
  H       -0.1632220    -2.1709030    -0.0000010
  H        2.1947510    -1.2389290     0.0000860
  H       -0.2615160     2.1895410    -0.0000100
  H        2.3214050     1.2697350     0.0000920
units angstrom
no_reorient  #important for SAPT in psi4, default
symmetry c1  #important for SAPT in psi4, default
}

set PROPERTIES_ORIGIN ["COM"]
properties('MP2/aug-cc-pvtz', properties = ['dipole'])
--------------------------------------------------------------------------

    Molecular point group: c1
  Charge       = 0
  Multiplicity = 1
  Basis Set: AUG-CC-PVTZ
    Blend: AUG-CC-PVTZ
  Basis Set: (AUG-CC-PVTZ AUX)
    Blend: AUG-CC-PVTZ-JKFIT

    Orbital Energies [Eh]
    ---------------------

    Doubly Occupied:

       1A    -26.298103     2A    -15.621793     3A    -11.306542
       4A    -11.273626     5A    -11.262109     6A    -11.226059
       7A     -1.608646     8A     -1.304449     9A     -1.055882
      10A     -0.991696    11A     -0.820366    12A     -0.797112
      13A     -0.753607    14A     -0.680933    15A     -0.678525
      16A     -0.651796    17A     -0.599841    18A     -0.586184
      19A     -0.573190    20A     -0.531750    21A     -0.357026
      22A     -0.308991

  @DF-RHF Final Energy:  -307.76570171163036

   => Energetics <=

    Nuclear Repulsion Energy =            219.8335759878114573
    One-Electron Energy =                -856.6221057275045041
    Two-Electron Energy =                 329.0228280280627473
    Total Energy =                       -307.7657017116303564
  Basis Set: (AUG-CC-PVTZ AUX)
    Blend: AUG-CC-PVTZ-RI
    Molecular point group: c1

    Geometry (in Angstrom), charge = 0, multiplicity = 1:

       Center              X                  Y                   Z               Mass
    ------------   -----------------  -----------------  -----------------  -----------------
         F           -2.002621342503    -0.011690548046    -0.014195225269    18.998403162730
         N            1.445414657497    -0.649559548046    -0.014055225269    14.003074004430
         C            0.151759657497    -1.118722548046    -0.014101225269    12.000000000000
         C           -0.649796342503     0.004992451954    -0.014138225269    12.000000000000
         C            0.151119357497     1.164816651954     0.085893774731    12.000000000000
         C            1.462956657497     0.721004451954    -0.014053225269    12.000000000000
         H           -0.091172342503    -2.170156548046    -0.014110225269     1.007825032230
         H            2.266800657497    -1.238182548046    -0.014023225269     1.007825032230
         H           -0.189466342503     2.190287451954    -0.014119225269     1.007825032230
         H            2.393454657497     1.270481451954    -0.014017225269     1.007825032230

  Basis Set: AUG-CC-PVTZ
    Blend: AUG-CC-PVTZ
  Basis Set: (AUG-CC-PVTZ AUX)
    Blend: AUG-CC-PVTZ-JKFIT
	 Reference Energy          =    -307.7657017116303564 [Eh]
	 Singles Energy            =      -0.0000000000000000 [Eh]
	 Same-Spin Energy          =      -0.3026154530449703 [Eh]
	 Opposite-Spin Energy      =      -0.9119332865473764 [Eh]
	 Correlation Energy        =      -1.2145487395923467 [Eh]
	 Total Energy              =    -308.9802504512227301 [Eh]

	 ================> DF-SCS-MP2 Energies <==================
	-----------------------------------------------------------
	 SCS Same-Spin Scale       =       0.3333333333333333 [-]
	 SCS Opposite-Spin Scale   =       1.2000000000000000 [-]
	 SCS Same-Spin Energy      =      -0.1008718176816568 [Eh]
	 SCS Opposite-Spin Energy  =      -1.0943199438568516 [Eh]
	 SCS Correlation Energy    =      -1.1951917615385084 [Eh]
	 SCS Total Energy          =    -308.9608934731688805 [Eh]
	-----------------------------------------------------------

  Dipole Moment: [D]
     X:     3.0950      Y:    -1.0191      Z:    -0.0980     Total:     3.2599

*** Psi4 exiting successfully. Buy a developer a beer!
