                               Psi4 1.3.2 release

  ==> Input File <==

--------------------------------------------------------------------------
#psi4
#
memory 32 gb

molecule  {
0 1
  F       -2.0746710    -0.0124370    -0.0000860
  N        1.3733650    -0.6503060     0.0000540
  C        0.0797100    -1.1194690     0.0000080
  C       -0.7218460     0.0042460    -0.0000290
  C        0.0790655     1.1640704     0.2000030
  C        1.3909070     0.7202580     0.0000560
  H       -0.1632220    -2.1709030    -0.0000010
  H        2.1947510    -1.2389290     0.0000860
  H       -0.2615160     2.1895410    -0.0000100
  H        2.3214050     1.2697350     0.0000920
units angstrom
no_reorient  #important for SAPT in psi4, default
symmetry c1  #important for SAPT in psi4, default
}

set PROPERTIES_ORIGIN ["COM"]
properties('MP2/aug-cc-pvtz', properties = ['dipole'])
--------------------------------------------------------------------------

    Molecular point group: c1
  Charge       = 0
  Multiplicity = 1
  Basis Set: AUG-CC-PVTZ
    Blend: AUG-CC-PVTZ
  Basis Set: (AUG-CC-PVTZ AUX)
    Blend: AUG-CC-PVTZ-JKFIT

    Orbital Energies [Eh]
    ---------------------

    Doubly Occupied:

       1A    -26.298304     2A    -15.623257     3A    -11.308352
       4A    -11.277281     5A    -11.262550     6A    -11.228655
       7A     -1.608835     8A     -1.305090     9A     -1.054050
      10A     -0.991799    11A     -0.819312    12A     -0.797191
      13A     -0.752814    14A     -0.681590    15A     -0.678538
      16A     -0.650669    17A     -0.600524    18A     -0.587160
      19A     -0.565877    20A     -0.528527    21A     -0.357006
      22A     -0.309108

  @DF-RHF Final Energy:  -307.75766766644631

   => Energetics <=

    Nuclear Repulsion Energy =            219.5018925539279167
    One-Electron Energy =                -855.9461472879014536
    Two-Electron Energy =                 328.6865870675272845
    Total Energy =                       -307.7576676664463093
  Basis Set: (AUG-CC-PVTZ AUX)
    Blend: AUG-CC-PVTZ-RI
    Molecular point group: c1

    Geometry (in Angstrom), charge = 0, multiplicity = 1:

       Center              X                  Y                   Z               Mass
    ------------   -----------------  -----------------  -----------------  -----------------
         F           -2.002620749790    -0.011690576270    -0.028307430446    18.998403162730
         N            1.445415250210    -0.649559576270    -0.028167430446    14.003074004430
         C            0.151760250210    -1.118722576270    -0.028213430446    12.000000000000
         C           -0.649795749790     0.004992423730    -0.028250430446    12.000000000000
         C            0.151115750210     1.164816823730     0.171781569554    12.000000000000
         C            1.462957250210     0.721004423730    -0.028165430446    12.000000000000
         H           -0.091171749790    -2.170156576270    -0.028222430446     1.007825032230
         H            2.266801250210    -1.238182576270    -0.028135430446     1.007825032230
         H           -0.189465749790     2.190287423730    -0.028231430446     1.007825032230
         H            2.393455250210     1.270481423730    -0.028129430446     1.007825032230

  Basis Set: AUG-CC-PVTZ
    Blend: AUG-CC-PVTZ
  Basis Set: (AUG-CC-PVTZ AUX)
    Blend: AUG-CC-PVTZ-JKFIT
	 Reference Energy          =    -307.7576676664463093 [Eh]
	 Singles Energy            =      -0.0000000000000000 [Eh]
	 Same-Spin Energy          =      -0.3029817363927653 [Eh]
	 Opposite-Spin Energy      =      -0.9130980925102731 [Eh]
	 Correlation Energy        =      -1.2160798289030383 [Eh]
	 Total Energy              =    -308.9737474953493575 [Eh]

	 ================> DF-SCS-MP2 Energies <==================
	-----------------------------------------------------------
	 SCS Same-Spin Scale       =       0.3333333333333333 [-]
	 SCS Opposite-Spin Scale   =       1.2000000000000000 [-]
	 SCS Same-Spin Energy      =      -0.1009939121309218 [Eh]
	 SCS Opposite-Spin Energy  =      -1.0957177110123277 [Eh]
	 SCS Correlation Energy    =      -1.1967116231432495 [Eh]
	 SCS Total Energy          =    -308.9543792895895535 [Eh]
	-----------------------------------------------------------

  Dipole Moment: [D]
     X:     3.1197      Y:    -1.0952      Z:    -0.1990     Total:     3.3123

*** Psi4 exiting successfully. Buy a developer a beer!
