                               Psi4 1.3.2 release

  ==> Input File <==

--------------------------------------------------------------------------
#psi4
#
memory 32 gb

molecule  {
0 1
  F       -2.0746710    -0.0124370    -0.0000860
  N        1.3733650    -0.6503060     0.0000540
  C        0.0797100    -1.1194690     0.0000080
  C       -0.7218460     0.0042460    -0.0000290
  C        0.0790634     1.1640705     0.2500030
  C        1.3909070     0.7202580     0.0000560
  H       -0.1632220    -2.1709030    -0.0000010
  H        2.1947510    -1.2389290     0.0000860
  H       -0.2615160     2.1895410    -0.0000100
  H        2.3214050     1.2697350     0.0000920
units angstrom
no_reorient  #important for SAPT in psi4, default
symmetry c1  #important for SAPT in psi4, default
}

set PROPERTIES_ORIGIN ["COM"]
properties('MP2/aug-cc-pvtz', properties = ['dipole'])
--------------------------------------------------------------------------

    Molecular point group: c1
  Charge       = 0
  Multiplicity = 1
  Basis Set: AUG-CC-PVTZ
    Blend: AUG-CC-PVTZ
  Basis Set: (AUG-CC-PVTZ AUX)
    Blend: AUG-CC-PVTZ-JKFIT

    Orbital Energies [Eh]
    ---------------------

    Doubly Occupied:

       1A    -26.298453     2A    -15.624366     3A    -11.309651
       4A    -11.279956     5A    -11.262900     6A    -11.230567
       7A     -1.608973     8A     -1.305588     9A     -1.052690
      10A     -0.991871    11A     -0.818602    12A     -0.797266
      13A     -0.752331    14A     -0.682027    15A     -0.678564
      16A     -0.649903    17A     -0.601192    18A     -0.587344
      19A     -0.560922    20A     -0.526027    21A     -0.357052
      22A     -0.309221

  @DF-RHF Final Energy:  -307.75154508107255

   => Energetics <=

    Nuclear Repulsion Energy =            219.2575207003936555
    One-Electron Energy =                -855.4472029821808974
    Two-Electron Energy =                 328.4381372007146638
    Total Energy =                       -307.7515450810725497
  Basis Set: (AUG-CC-PVTZ AUX)
    Blend: AUG-CC-PVTZ-RI
    Molecular point group: c1

    Geometry (in Angstrom), charge = 0, multiplicity = 1:

       Center              X                  Y                   Z               Mass
    ------------   -----------------  -----------------  -----------------  -----------------
         F           -2.002620453434    -0.011690590383    -0.035363533035    18.998403162730
         N            1.445415546566    -0.649559590383    -0.035223533035    14.003074004430
         C            0.151760546566    -1.118722590383    -0.035269533035    12.000000000000
         C           -0.649795453434     0.004992409617    -0.035306533035    12.000000000000
         C            0.151113946566     1.164816909617     0.214725466965    12.000000000000
         C            1.462957546566     0.721004409617    -0.035221533035    12.000000000000
         H           -0.091171453434    -2.170156590383    -0.035278533035     1.007825032230
         H            2.266801546566    -1.238182590383    -0.035191533035     1.007825032230
         H           -0.189465453434     2.190287409617    -0.035287533035     1.007825032230
         H            2.393455546566     1.270481409617    -0.035185533035     1.007825032230

  Basis Set: AUG-CC-PVTZ
    Blend: AUG-CC-PVTZ
  Basis Set: (AUG-CC-PVTZ AUX)
    Blend: AUG-CC-PVTZ-JKFIT
	 Reference Energy          =    -307.7515450810725497 [Eh]
	 Singles Energy            =      -0.0000000000000000 [Eh]
	 Same-Spin Energy          =      -0.3032471563471333 [Eh]
	 Opposite-Spin Energy      =      -0.9139984458392780 [Eh]
	 Correlation Energy        =      -1.2172456021864113 [Eh]
	 Total Energy              =    -308.9687906832589874 [Eh]

	 ================> DF-SCS-MP2 Energies <==================
	-----------------------------------------------------------
	 SCS Same-Spin Scale       =       0.3333333333333333 [-]
	 SCS Opposite-Spin Scale   =       1.2000000000000000 [-]
	 SCS Same-Spin Energy      =      -0.1010823854490444 [Eh]
	 SCS Opposite-Spin Energy  =      -1.0967981350071336 [Eh]
	 SCS Correlation Energy    =      -1.1978805204561780 [Eh]
	 SCS Total Energy          =    -308.9494256015287306 [Eh]
	-----------------------------------------------------------

  Dipole Moment: [D]
     X:     3.1375      Y:    -1.1509      Z:    -0.2510     Total:     3.3513

*** Psi4 exiting successfully. Buy a developer a beer!
