                               Psi4 1.4a2.dev612

  ==> Input File <==

--------------------------------------------------------------------------
#psi4
#
memory 32 gb

molecule  {
0 1
  O        2.6932640    -1.3344870    -0.0264310
  C        2.7508540     0.0254460     0.4069810
  C        1.3606810     0.5764810     0.3953890
  C       -3.5492030     0.3621160    -0.4101590
  C        3.6709050     0.8409920    -0.4958550
  C        0.2704120    -0.1024690    -0.0006590
  C       -2.1631840    -0.2004740    -0.4090490
  C       -1.0635270     0.4697970    -0.0176060
  C       -4.4702810    -0.3835230     0.5583970
  H        3.1361180     0.0688010     1.4404840
  H        1.2655190     1.6118880     0.7253080
  H       -3.5113520     1.4248880    -0.1442750
  H       -3.9713450     0.3050270    -1.4220020
  H        3.3060070     0.7827570    -1.5237190
  H        3.6990520     1.8899320    -0.1870900
  H        4.6948240     0.4527130    -0.4608140
  H        0.3841050    -1.1350190    -0.3229170
  H       -2.0505797    -1.2229963    -0.7773880
  H       -1.1648060     1.5075440     0.3065060
  H       -4.5255200    -1.4457790     0.3033390
  H       -5.4853170     0.0231860     0.5310900
  H       -4.0942820    -0.3029910     1.5815520
  H        3.6028580    -1.6773980    -0.0043180
units angstrom
no_reorient  #important for SAPT in psi4, default
symmetry c1  #important for SAPT in psi4, default
}

set PROPERTIES_ORIGIN ["COM"]
properties('MP2/aug-cc-pvtz', properties = ['dipole'])
--------------------------------------------------------------------------

    Molecular point group: c1
  Charge       = 0
  Multiplicity = 1
  Basis Set: AUG-CC-PVTZ
    Blend: AUG-CC-PVTZ
  Basis Set: (AUG-CC-PVTZ AUX)
    Blend: AUG-CC-PVTZ-JKFIT

    Orbital Energies [Eh]
    ---------------------

    Doubly Occupied:

       1A    -20.558697     2A    -11.286485     3A    -11.225970
       4A    -11.223660     5A    -11.223217     6A    -11.223002
       7A    -11.221762     8A    -11.220577     9A    -11.212658
      10A     -1.360596    11A     -1.097814    12A     -1.061279
      13A     -1.016123    14A     -0.962475    15A     -0.876632
      16A     -0.828507    17A     -0.752110    18A     -0.748070
      19A     -0.695273    20A     -0.637282    21A     -0.628185
      22A     -0.616747    23A     -0.590089    24A     -0.582446
      25A     -0.546578    26A     -0.544005    27A     -0.527337
      28A     -0.518707    29A     -0.500638    30A     -0.492468
      31A     -0.478620    32A     -0.467905    33A     -0.452955
      34A     -0.418284    35A     -0.297469

  @DF-RHF Final Energy:  -386.06245273503612

   => Energetics <=

    Nuclear Repulsion Energy =            417.9855331306937956
    One-Electron Energy =               -1351.9067248572289373
    Two-Electron Energy =                 547.8587389914990808
    Total Energy =                       -386.0624527350361177
  Basis Set: (AUG-CC-PVTZ AUX)
    Blend: AUG-CC-PVTZ-RI
    Molecular point group: c1

    Geometry (in Angstrom), charge = 0, multiplicity = 1:

       Center              X                  Y                   Z               Mass
    ------------   -----------------  -----------------  -----------------  -----------------
         O            2.693210074850    -1.334612293918    -0.026055283358    15.994914619570
         C            2.750800074850     0.025320706082     0.407356716642    12.000000000000
         C            1.360627074850     0.576355706082     0.395764716642    12.000000000000
         C           -3.549256925150     0.361990706082    -0.409783283358    12.000000000000
         C            3.670851074850     0.840866706082    -0.495479283358    12.000000000000
         C            0.270358074850    -0.102594293918    -0.000283283358    12.000000000000
         C           -2.163237925150    -0.200599293918    -0.408673283358    12.000000000000
         C           -1.063580925150     0.469671706082    -0.017230283358    12.000000000000
         C           -4.470334925150    -0.383648293918     0.558772716642    12.000000000000
         H            3.136064074850     0.068675706082     1.440859716642     1.007825032230
         H            1.265465074850     1.611762706082     0.725683716642     1.007825032230
         H           -3.511405925150     1.424762706082    -0.143899283358     1.007825032230
         H           -3.971398925150     0.304901706082    -1.421626283358     1.007825032230
         H            3.305953074850     0.782631706082    -1.523343283358     1.007825032230
         H            3.698998074850     1.889806706082    -0.186714283358     1.007825032230
         H            4.694770074850     0.452587706082    -0.460438283358     1.007825032230
         H            0.384051074850    -1.135144293918    -0.322541283358     1.007825032230
         H           -2.050633625150    -1.223121593918    -0.777012283358     1.007825032230
         H           -1.164859925150     1.507418706082     0.306881716642     1.007825032230
         H           -4.525573925150    -1.445904293918     0.303714716642     1.007825032230
         H           -5.485370925150     0.023060706082     0.531465716642     1.007825032230
         H           -4.094335925150    -0.303116293918     1.581927716642     1.007825032230
         H            3.602804074850    -1.677523293918    -0.003942283358     1.007825032230

  Basis Set: AUG-CC-PVTZ
    Blend: AUG-CC-PVTZ
  Basis Set: (AUG-CC-PVTZ AUX)
    Blend: AUG-CC-PVTZ-JKFIT
	 Reference Energy          =    -386.0624527350361177 [Eh]
	 Singles Energy            =      -0.0000000000000000 [Eh]
	 Same-Spin Energy          =      -0.4003502580099687 [Eh]
	 Opposite-Spin Energy      =      -1.3783400680436138 [Eh]
	 Correlation Energy        =      -1.7786903260535825 [Eh]
	 Total Energy              =    -387.8411430610897241 [Eh]

	 ================> DF-SCS-MP2 Energies <==================
	-----------------------------------------------------------
	 SCS Same-Spin Scale       =       0.3333333333333333 [-]
	 SCS Opposite-Spin Scale   =       1.2000000000000000 [-]
	 SCS Same-Spin Energy      =      -0.1334500860033229 [Eh]
	 SCS Opposite-Spin Energy  =      -1.6540080816523364 [Eh]
	 SCS Correlation Energy    =      -1.7874581676556593 [Eh]
	 SCS Total Energy          =    -387.8499109026917608 [Eh]
	-----------------------------------------------------------

  Dipole Moment: [D]
     X:     1.2144      Y:     0.7382      Z:     0.2804     Total:     1.4485

*** Psi4 exiting successfully. Buy a developer a beer!
