                               Psi4 1.4a2.dev612

  ==> Input File <==

--------------------------------------------------------------------------
#psi4
#
memory 32 gb

molecule  {
0 1
  O        2.6932640    -1.3344870    -0.0264310
  C        2.7508540     0.0254460     0.4069810
  C        1.3606810     0.5764810     0.3953890
  C       -3.5492030     0.3621160    -0.4101590
  C        3.6709050     0.8409920    -0.4958550
  C        0.2704120    -0.1024690    -0.0006590
  C       -2.1631840    -0.2004740    -0.4090490
  C       -1.0635270     0.4697970    -0.0176060
  C       -4.4702810    -0.3835230     0.5583970
  H        3.1361180     0.0688010     1.4404840
  H        1.2655190     1.6118880     0.7253080
  H       -3.5113520     1.4248880    -0.1442750
  H       -3.9713450     0.3050270    -1.4220020
  H        3.3060070     0.7827570    -1.5237190
  H        3.6990520     1.8899320    -0.1870900
  H        4.6948240     0.4527130    -0.4608140
  H        0.3841050    -1.1350190    -0.3229170
  H       -2.0573220    -1.2386810    -0.7303930
  H       -1.1284816     1.5847565     0.0715193
  H       -4.5255200    -1.4457790     0.3033390
  H       -5.4853170     0.0231860     0.5310900
  H       -4.0942820    -0.3029910     1.5815520
  H        3.6028580    -1.6773980    -0.0043180
units angstrom
no_reorient  #important for SAPT in psi4, default
symmetry c1  #important for SAPT in psi4, default
}

set PROPERTIES_ORIGIN ["COM"]
properties('MP2/aug-cc-pvtz', properties = ['dipole'])
--------------------------------------------------------------------------

    Molecular point group: c1
  Charge       = 0
  Multiplicity = 1
  Basis Set: AUG-CC-PVTZ
    Blend: AUG-CC-PVTZ
  Basis Set: (AUG-CC-PVTZ AUX)
    Blend: AUG-CC-PVTZ-JKFIT

    Orbital Energies [Eh]
    ---------------------

    Doubly Occupied:

       1A    -20.558644     2A    -11.286397     3A    -11.227380
       4A    -11.225672     5A    -11.223481     6A    -11.223309
       7A    -11.221691     8A    -11.220578     9A    -11.213050
      10A     -1.360542    11A     -1.097576    12A     -1.061422
      13A     -1.016019    14A     -0.962476    15A     -0.876560
      16A     -0.828420    17A     -0.751261    18A     -0.746001
      19A     -0.694619    20A     -0.636903    21A     -0.627740
      22A     -0.616418    23A     -0.588694    24A     -0.583295
      25A     -0.546515    26A     -0.543985    27A     -0.525928
      28A     -0.519184    29A     -0.499496    30A     -0.492561
      31A     -0.478949    32A     -0.468470    33A     -0.452381
      34A     -0.416030    35A     -0.297685

  @DF-RHF Final Energy:  -386.05836548881950

   => Energetics <=

    Nuclear Repulsion Energy =            417.8720427567712932
    One-Electron Energy =               -1351.6821483246772004
    Two-Electron Energy =                 547.7517400790864031
    Total Energy =                       -386.0583654888195042
  Basis Set: (AUG-CC-PVTZ AUX)
    Blend: AUG-CC-PVTZ-RI
    Molecular point group: c1

    Geometry (in Angstrom), charge = 0, multiplicity = 1:

       Center              X                  Y                   Z               Mass
    ------------   -----------------  -----------------  -----------------  -----------------
         O            2.692973655142    -1.335104023192    -0.024552856454    15.994914619570
         C            2.750563655142     0.024828976808     0.408859143546    12.000000000000
         C            1.360390655142     0.575863976808     0.397267143546    12.000000000000
         C           -3.549493344858     0.361498976808    -0.408280856454    12.000000000000
         C            3.670614655142     0.840374976808    -0.493976856454    12.000000000000
         C            0.270121655142    -0.103086023192     0.001219143546    12.000000000000
         C           -2.163474344858    -0.201091023192    -0.407170856454    12.000000000000
         C           -1.063817344858     0.469179976808    -0.015727856454    12.000000000000
         C           -4.470571344858    -0.384140023192     0.560275143546    12.000000000000
         H            3.135827655142     0.068183976808     1.442362143546     1.007825032230
         H            1.265228655142     1.611270976808     0.727186143546     1.007825032230
         H           -3.511642344858     1.424270976808    -0.142396856454     1.007825032230
         H           -3.971635344858     0.304409976808    -1.420123856454     1.007825032230
         H            3.305716655142     0.782139976808    -1.521840856454     1.007825032230
         H            3.698761655142     1.889314976808    -0.185211856454     1.007825032230
         H            4.694533655142     0.452095976808    -0.458935856454     1.007825032230
         H            0.383814655142    -1.135636023192    -0.321038856454     1.007825032230
         H           -2.057612344858    -1.239298023192    -0.728514856454     1.007825032230
         H           -1.128771944858     1.584139476808     0.073397443546     1.007825032230
         H           -4.525810344858    -1.446396023192     0.305217143546     1.007825032230
         H           -5.485607344858     0.022568976808     0.532968143546     1.007825032230
         H           -4.094572344858    -0.303608023192     1.583430143546     1.007825032230
         H            3.602567655142    -1.678015023192    -0.002439856454     1.007825032230

  Basis Set: AUG-CC-PVTZ
    Blend: AUG-CC-PVTZ
  Basis Set: (AUG-CC-PVTZ AUX)
    Blend: AUG-CC-PVTZ-JKFIT
	 Reference Energy          =    -386.0583654888195042 [Eh]
	 Singles Energy            =      -0.0000000000000000 [Eh]
	 Same-Spin Energy          =      -0.4005667693351052 [Eh]
	 Opposite-Spin Energy      =      -1.3788480522307360 [Eh]
	 Correlation Energy        =      -1.7794148215658412 [Eh]
	 Total Energy              =    -387.8377803103853694 [Eh]

	 ================> DF-SCS-MP2 Energies <==================
	-----------------------------------------------------------
	 SCS Same-Spin Scale       =       0.3333333333333333 [-]
	 SCS Opposite-Spin Scale   =       1.2000000000000000 [-]
	 SCS Same-Spin Energy      =      -0.1335222564450351 [Eh]
	 SCS Opposite-Spin Energy  =      -1.6546176626768831 [Eh]
	 SCS Correlation Energy    =      -1.7881399191219183 [Eh]
	 SCS Total Energy          =    -387.8465054079414358 [Eh]
	-----------------------------------------------------------

  Dipole Moment: [D]
     X:     1.2212      Y:     0.7380      Z:     0.1641     Total:     1.4362

*** Psi4 exiting successfully. Buy a developer a beer!
