                               Psi4 1.4a2.dev612

  ==> Input File <==

--------------------------------------------------------------------------
#psi4
#
memory 32 gb

molecule  {
0 1
  O        2.6932640    -1.3344870    -0.0264310
  C        2.7508540     0.0254460     0.4069810
  C        1.3606810     0.5764810     0.3953890
  C       -3.5492030     0.3621160    -0.4101590
  C        3.6709050     0.8409920    -0.4958550
  C        0.2704120    -0.1024690    -0.0006590
  C       -2.1631840    -0.2004740    -0.4090490
  C       -1.0635270     0.4697970    -0.0176060
  C       -4.4702810    -0.3835230     0.5583970
  H        3.1361180     0.0688010     1.4404840
  H        1.2655190     1.6118880     0.7253080
  H       -3.5113520     1.4248880    -0.1442750
  H       -3.9713450     0.3050270    -1.4220020
  H        3.3060070     0.7827570    -1.5237190
  H        3.6990520     1.8899320    -0.1870900
  H        4.6948240     0.4527130    -0.4608140
  H        0.3548390    -1.1971539    -0.1350800
  H       -2.0573220    -1.2386810    -0.7303930
  H       -1.1648060     1.5075440     0.3065060
  H       -4.5255200    -1.4457790     0.3033390
  H       -5.4853170     0.0231860     0.5310900
  H       -4.0942820    -0.3029910     1.5815520
  H        3.6028580    -1.6773980    -0.0043180
units angstrom
no_reorient  #important for SAPT in psi4, default
symmetry c1  #important for SAPT in psi4, default
}

set PROPERTIES_ORIGIN ["COM"]
properties('MP2/aug-cc-pvtz', properties = ['dipole'])
--------------------------------------------------------------------------

    Molecular point group: c1
  Charge       = 0
  Multiplicity = 1
  Basis Set: AUG-CC-PVTZ
    Blend: AUG-CC-PVTZ
  Basis Set: (AUG-CC-PVTZ AUX)
    Blend: AUG-CC-PVTZ-JKFIT

    Orbital Energies [Eh]
    ---------------------

    Doubly Occupied:

       1A    -20.558643     2A    -11.286654     3A    -11.225804
       4A    -11.224880     5A    -11.223237     6A    -11.223055
       7A    -11.222717     8A    -11.220589     9A    -11.212815
      10A     -1.360538    11A     -1.097630    12A     -1.061338
      13A     -1.016043    14A     -0.962473    15A     -0.876470
      16A     -0.828410    17A     -0.752361    18A     -0.745886
      19A     -0.695267    20A     -0.636380    21A     -0.628279
      22A     -0.616279    23A     -0.589556    24A     -0.582638
      25A     -0.546002    26A     -0.544072    27A     -0.527505
      28A     -0.517998    29A     -0.500443    30A     -0.491901
      31A     -0.479094    32A     -0.467844    33A     -0.452839
      34A     -0.416675    35A     -0.297535

  @DF-RHF Final Energy:  -386.05980546583538

   => Energetics <=

    Nuclear Repulsion Energy =            417.9102479112520996
    One-Electron Energy =               -1351.7604046265789748
    Two-Electron Energy =                 547.7903512494915503
    Total Energy =                       -386.0598054658353249
  Basis Set: (AUG-CC-PVTZ AUX)
    Blend: AUG-CC-PVTZ-RI
    Molecular point group: c1

    Geometry (in Angstrom), charge = 0, multiplicity = 1:

       Center              X                  Y                   Z               Mass
    ------------   -----------------  -----------------  -----------------  -----------------
         O            2.693497852655    -1.333990360818    -0.027932057252    15.994914619570
         C            2.751087852655     0.025942639182     0.405479942748    12.000000000000
         C            1.360914852655     0.576977639182     0.393887942748    12.000000000000
         C           -3.548969147345     0.362612639182    -0.411660057252    12.000000000000
         C            3.671138852655     0.841488639182    -0.497356057252    12.000000000000
         C            0.270645852655    -0.101972360818    -0.002160057252    12.000000000000
         C           -2.162950147345    -0.199977360818    -0.410550057252    12.000000000000
         C           -1.063293147345     0.470293639182    -0.019107057252    12.000000000000
         C           -4.470047147345    -0.383026360818     0.556895942748    12.000000000000
         H            3.136351852655     0.069297639182     1.438982942748     1.007825032230
         H            1.265752852655     1.612384639182     0.723806942748     1.007825032230
         H           -3.511118147345     1.425384639182    -0.145776057252     1.007825032230
         H           -3.971111147345     0.305523639182    -1.423503057252     1.007825032230
         H            3.306240852655     0.783253639182    -1.525220057252     1.007825032230
         H            3.699285852655     1.890428639182    -0.188591057252     1.007825032230
         H            4.695057852655     0.453209639182    -0.462315057252     1.007825032230
         H            0.355072852655    -1.196657260818    -0.136581057252     1.007825032230
         H           -2.057088147345    -1.238184360818    -0.731894057252     1.007825032230
         H           -1.164572147345     1.508040639182     0.305004942748     1.007825032230
         H           -4.525286147345    -1.445282360818     0.301837942748     1.007825032230
         H           -5.485083147345     0.023682639182     0.529588942748     1.007825032230
         H           -4.094048147345    -0.302494360818     1.580050942748     1.007825032230
         H            3.603091852655    -1.676901360818    -0.005819057252     1.007825032230

  Basis Set: AUG-CC-PVTZ
    Blend: AUG-CC-PVTZ
  Basis Set: (AUG-CC-PVTZ AUX)
    Blend: AUG-CC-PVTZ-JKFIT
	 Reference Energy          =    -386.0598054658353817 [Eh]
	 Singles Energy            =      -0.0000000000000000 [Eh]
	 Same-Spin Energy          =      -0.4005215226481857 [Eh]
	 Opposite-Spin Energy      =      -1.3786798609834978 [Eh]
	 Correlation Energy        =      -1.7792013836316836 [Eh]
	 Total Energy              =    -387.8390068494670686 [Eh]

	 ================> DF-SCS-MP2 Energies <==================
	-----------------------------------------------------------
	 SCS Same-Spin Scale       =       0.3333333333333333 [-]
	 SCS Opposite-Spin Scale   =       1.2000000000000000 [-]
	 SCS Same-Spin Energy      =      -0.1335071742160619 [Eh]
	 SCS Opposite-Spin Energy  =      -1.6544158331801972 [Eh]
	 SCS Correlation Energy    =      -1.7879230073962591 [Eh]
	 SCS Total Energy          =    -387.8477284732316548 [Eh]
	-----------------------------------------------------------

  Dipole Moment: [D]
     X:     1.1919      Y:     0.7064      Z:     0.4277     Total:     1.4500

*** Psi4 exiting successfully. Buy a developer a beer!
