                               Psi4 1.4a2.dev612

  ==> Input File <==

--------------------------------------------------------------------------
#psi4
#
memory 32 gb

molecule  {
0 1
  O        2.6932640    -1.3344870    -0.0264310
  C        2.7508540     0.0254460     0.4069810
  C        1.3606810     0.5764810     0.3953890
  C       -3.5492030     0.3621160    -0.4101590
  C        3.6709050     0.8409920    -0.4958550
  C        0.2704120    -0.1024690    -0.0006590
  C       -2.1631840    -0.2004740    -0.4090490
  C       -1.0635270     0.4697970    -0.0176060
  C       -4.4702810    -0.3835230     0.5583970
  H        3.1361180     0.0688010     1.4404840
  H        1.2655190     1.6118880     0.7253080
  H       -3.5113520     1.4248880    -0.1442750
  H       -3.9713450     0.3050270    -1.4220020
  H        3.3060070     0.7827570    -1.5237190
  H        3.6990520     1.8899320    -0.1870900
  H        4.6948240     0.4527130    -0.4608140
  H        0.3841050    -1.1350190    -0.3229170
  H       -2.0573220    -1.2386810    -0.7303930
  H       -1.1575411     1.5229865     0.2595087
  H       -4.5255200    -1.4457790     0.3033390
  H       -5.4853170     0.0231860     0.5310900
  H       -4.0942820    -0.3029910     1.5815520
  H        3.6028580    -1.6773980    -0.0043180
units angstrom
no_reorient  #important for SAPT in psi4, default
symmetry c1  #important for SAPT in psi4, default
}

set PROPERTIES_ORIGIN ["COM"]
properties('MP2/aug-cc-pvtz', properties = ['dipole'])
--------------------------------------------------------------------------

    Molecular point group: c1
  Charge       = 0
  Multiplicity = 1
  Basis Set: AUG-CC-PVTZ
    Blend: AUG-CC-PVTZ
  Basis Set: (AUG-CC-PVTZ AUX)
    Blend: AUG-CC-PVTZ-JKFIT

    Orbital Energies [Eh]
    ---------------------

    Doubly Occupied:

       1A    -20.558684     2A    -11.286465     3A    -11.225975
       4A    -11.223662     5A    -11.223250     6A    -11.223028
       7A    -11.221735     8A    -11.220559     9A    -11.212798
      10A     -1.360582    11A     -1.097814    12A     -1.061312
      13A     -1.016127    14A     -0.962464    15A     -0.876585
      16A     -0.828518    17A     -0.752356    18A     -0.747973
      19A     -0.695237    20A     -0.637304    21A     -0.627928
      22A     -0.616686    23A     -0.589859    24A     -0.582937
      25A     -0.546546    26A     -0.543779    27A     -0.527197
      28A     -0.518817    29A     -0.500461    30A     -0.492469
      31A     -0.479052    32A     -0.467994    33A     -0.452907
      34A     -0.418198    35A     -0.297477

  @DF-RHF Final Energy:  -386.06242537651542

   => Energetics <=

    Nuclear Repulsion Energy =            417.9915358716055493
    One-Electron Energy =               -1351.9184588993321086
    Two-Electron Energy =                 547.8644976512111953
    Total Energy =                       -386.0624253765154208
  Basis Set: (AUG-CC-PVTZ AUX)
    Blend: AUG-CC-PVTZ-RI
    Molecular point group: c1

    Geometry (in Angstrom), charge = 0, multiplicity = 1:

       Center              X                  Y                   Z               Mass
    ------------   -----------------  -----------------  -----------------  -----------------
         O            2.693205898239    -1.334610358259    -0.026055264977    15.994914619570
         C            2.750795898239     0.025322641741     0.407356735023    12.000000000000
         C            1.360622898239     0.576357641741     0.395764735023    12.000000000000
         C           -3.549261101761     0.361992641741    -0.409783264977    12.000000000000
         C            3.670846898239     0.840868641741    -0.495479264977    12.000000000000
         C            0.270353898239    -0.102592358259    -0.000283264977    12.000000000000
         C           -2.163242101761    -0.200597358259    -0.408673264977    12.000000000000
         C           -1.063585101761     0.469673641741    -0.017230264977    12.000000000000
         C           -4.470339101761    -0.383646358259     0.558772735023    12.000000000000
         H            3.136059898239     0.068677641741     1.440859735023     1.007825032230
         H            1.265460898239     1.611764641741     0.725683735023     1.007825032230
         H           -3.511410101761     1.424764641741    -0.143899264977     1.007825032230
         H           -3.971403101761     0.304903641741    -1.421626264977     1.007825032230
         H            3.305948898239     0.782633641741    -1.523343264977     1.007825032230
         H            3.698993898239     1.889808641741    -0.186714264977     1.007825032230
         H            4.694765898239     0.452589641741    -0.460438264977     1.007825032230
         H            0.384046898239    -1.135142358259    -0.322541264977     1.007825032230
         H           -2.057380101761    -1.238804358259    -0.730017264977     1.007825032230
         H           -1.157599201761     1.522863141741     0.259884435023     1.007825032230
         H           -4.525578101761    -1.445902358259     0.303714735023     1.007825032230
         H           -5.485375101761     0.023062641741     0.531465735023     1.007825032230
         H           -4.094340101761    -0.303114358259     1.581927735023     1.007825032230
         H            3.602799898239    -1.677521358259    -0.003942264977     1.007825032230

  Basis Set: AUG-CC-PVTZ
    Blend: AUG-CC-PVTZ
  Basis Set: (AUG-CC-PVTZ AUX)
    Blend: AUG-CC-PVTZ-JKFIT
	 Reference Energy          =    -386.0624253765154208 [Eh]
	 Singles Energy            =      -0.0000000000000000 [Eh]
	 Same-Spin Energy          =      -0.4003597691331819 [Eh]
	 Opposite-Spin Energy      =      -1.3783421251532553 [Eh]
	 Correlation Energy        =      -1.7787018942864372 [Eh]
	 Total Energy              =    -387.8411272708018487 [Eh]

	 ================> DF-SCS-MP2 Energies <==================
	-----------------------------------------------------------
	 SCS Same-Spin Scale       =       0.3333333333333333 [-]
	 SCS Opposite-Spin Scale   =       1.2000000000000000 [-]
	 SCS Same-Spin Energy      =      -0.1334532563777273 [Eh]
	 SCS Opposite-Spin Energy  =      -1.6540105501839062 [Eh]
	 SCS Correlation Energy    =      -1.7874638065616335 [Eh]
	 SCS Total Energy          =    -387.8498891830770390 [Eh]
	-----------------------------------------------------------

  Dipole Moment: [D]
     X:     1.2095      Y:     0.7362      Z:     0.2815     Total:     1.4436

*** Psi4 exiting successfully. Buy a developer a beer!
