                               Psi4 1.4a2.dev612

  ==> Input File <==

--------------------------------------------------------------------------
#psi4
#
memory 32 gb

molecule  {
0 1
  O        2.6932640    -1.3344870    -0.0264310
  C        2.7508540     0.0254460     0.4069810
  C        1.3606810     0.5764810     0.3953890
  C       -3.5492030     0.3621160    -0.4101590
  C        3.6709050     0.8409920    -0.4958550
  C        0.2704120    -0.1024690    -0.0006590
  C       -2.1631840    -0.2004740    -0.4090490
  C       -1.0635270     0.4697970    -0.0176060
  C       -4.4702810    -0.3835230     0.5583970
  H        3.1361180     0.0688010     1.4404840
  H        1.2655190     1.6118880     0.7253080
  H       -3.5113520     1.4248880    -0.1442750
  H       -3.9713450     0.3050270    -1.4220020
  H        3.3060070     0.7827570    -1.5237190
  H        3.6990520     1.8899320    -0.1870900
  H        4.6948240     0.4527130    -0.4608140
  H        0.3694720    -1.1660865    -0.2289985
  H       -2.0573220    -1.2386810    -0.7303930
  H       -1.1648060     1.5075440     0.3065060
  H       -4.5255200    -1.4457790     0.3033390
  H       -5.4853170     0.0231860     0.5310900
  H       -4.0942820    -0.3029910     1.5815520
  H        3.6028580    -1.6773980    -0.0043180
units angstrom
no_reorient  #important for SAPT in psi4, default
symmetry c1  #important for SAPT in psi4, default
}

set PROPERTIES_ORIGIN ["COM"]
properties('MP2/aug-cc-pvtz', properties = ['dipole'])
--------------------------------------------------------------------------

    Molecular point group: c1
  Charge       = 0
  Multiplicity = 1
  Basis Set: AUG-CC-PVTZ
    Blend: AUG-CC-PVTZ
  Basis Set: (AUG-CC-PVTZ AUX)
    Blend: AUG-CC-PVTZ-JKFIT

    Orbital Energies [Eh]
    ---------------------

    Doubly Occupied:

       1A    -20.558678     2A    -11.286518     3A    -11.225879
       4A    -11.223897     5A    -11.223244     6A    -11.222996
       7A    -11.222044     8A    -11.220525     9A    -11.212816
      10A     -1.360571    11A     -1.097778    12A     -1.061314
      13A     -1.016107    14A     -0.962467    15A     -0.876549
      16A     -0.828490    17A     -0.752388    18A     -0.747495
      19A     -0.695276    20A     -0.637125    21A     -0.628128
      22A     -0.616508    23A     -0.589820    24A     -0.582728
      25A     -0.546296    26A     -0.543922    27A     -0.527450
      28A     -0.518381    29A     -0.500751    30A     -0.492192
      31A     -0.479122    32A     -0.467849    33A     -0.452965
      34A     -0.417882    35A     -0.297481

  @DF-RHF Final Energy:  -386.06190981694641

   => Energetics <=

    Nuclear Repulsion Energy =            417.9740167093587502
    One-Electron Energy =               -1351.8845885986740996
    Two-Electron Energy =                 547.8486620723690521
    Total Energy =                       -386.0619098169463541
  Basis Set: (AUG-CC-PVTZ AUX)
    Blend: AUG-CC-PVTZ-RI
    Molecular point group: c1

    Geometry (in Angstrom), charge = 0, multiplicity = 1:

       Center              X                  Y                   Z               Mass
    ------------   -----------------  -----------------  -----------------  -----------------
         O            2.693380905934    -1.334238651023    -0.027181461980    15.994914619570
         C            2.750970905934     0.025694348977     0.406230538020    12.000000000000
         C            1.360797905934     0.576729348977     0.394638538020    12.000000000000
         C           -3.549086094066     0.362364348977    -0.410909461980    12.000000000000
         C            3.671021905934     0.841240348977    -0.496605461980    12.000000000000
         C            0.270528905934    -0.102220651023    -0.001409461980    12.000000000000
         C           -2.163067094066    -0.200225651023    -0.409799461980    12.000000000000
         C           -1.063410094066     0.470045348977    -0.018356461980    12.000000000000
         C           -4.470164094066    -0.383274651023     0.557646538020    12.000000000000
         H            3.136234905934     0.069049348977     1.439733538020     1.007825032230
         H            1.265635905934     1.612136348977     0.724557538020     1.007825032230
         H           -3.511235094066     1.425136348977    -0.145025461980     1.007825032230
         H           -3.971228094066     0.305275348977    -1.422752461980     1.007825032230
         H            3.306123905934     0.783005348977    -1.524469461980     1.007825032230
         H            3.699168905934     1.890180348977    -0.187840461980     1.007825032230
         H            4.694940905934     0.452961348977    -0.461564461980     1.007825032230
         H            0.369588905934    -1.165838151023    -0.229748961980     1.007825032230
         H           -2.057205094066    -1.238432651023    -0.731143461980     1.007825032230
         H           -1.164689094066     1.507792348977     0.305755538020     1.007825032230
         H           -4.525403094066    -1.445530651023     0.302588538020     1.007825032230
         H           -5.485200094066     0.023434348977     0.530339538020     1.007825032230
         H           -4.094165094066    -0.302742651023     1.580801538020     1.007825032230
         H            3.602974905934    -1.677149651023    -0.005068461980     1.007825032230

  Basis Set: AUG-CC-PVTZ
    Blend: AUG-CC-PVTZ
  Basis Set: (AUG-CC-PVTZ AUX)
    Blend: AUG-CC-PVTZ-JKFIT
	 Reference Energy          =    -386.0619098169464110 [Eh]
	 Singles Energy            =      -0.0000000000000000 [Eh]
	 Same-Spin Energy          =      -0.4003980949930304 [Eh]
	 Opposite-Spin Energy      =      -1.3784147538951670 [Eh]
	 Correlation Energy        =      -1.7788128488881974 [Eh]
	 Total Energy              =    -387.8407226658346190 [Eh]

	 ================> DF-SCS-MP2 Energies <==================
	-----------------------------------------------------------
	 SCS Same-Spin Scale       =       0.3333333333333333 [-]
	 SCS Opposite-Spin Scale   =       1.2000000000000000 [-]
	 SCS Same-Spin Energy      =      -0.1334660316643435 [Eh]
	 SCS Opposite-Spin Energy  =      -1.6540977046742003 [Eh]
	 SCS Correlation Energy    =      -1.7875637363385437 [Eh]
	 SCS Total Energy          =    -387.8494735532849518 [Eh]
	-----------------------------------------------------------

  Dipole Moment: [D]
     X:     1.1971      Y:     0.7138      Z:     0.3676     Total:     1.4415

*** Psi4 exiting successfully. Buy a developer a beer!
