                               Psi4 1.4a2.dev612

  ==> Input File <==

--------------------------------------------------------------------------
#psi4
#
memory 32 gb

molecule  {
0 1
  O        2.6932640    -1.3344870    -0.0264310
  C        2.7508540     0.0254460     0.4069810
  C        1.3606810     0.5764810     0.3953890
  C       -3.5492030     0.3621160    -0.4101590
  C        3.6709050     0.8409920    -0.4958550
  C        0.2704120    -0.1024690    -0.0006590
  C       -2.1631840    -0.2004740    -0.4090490
  C       -1.0635270     0.4697970    -0.0176060
  C       -4.4702810    -0.3835230     0.5583970
  H        3.1361180     0.0688010     1.4404840
  H        1.2655190     1.6118880     0.7253080
  H       -3.5113520     1.4248880    -0.1442750
  H       -3.9713450     0.3050270    -1.4220020
  H        3.3060070     0.7827570    -1.5237190
  H        3.6990520     1.8899320    -0.1870900
  H        4.6948240     0.4527130    -0.4608140
  H        0.3841050    -1.1350190    -0.3229170
  H       -2.0573220    -1.2386810    -0.7303930
  H       -1.1212167     1.6001990     0.0245219
  H       -4.5255200    -1.4457790     0.3033390
  H       -5.4853170     0.0231860     0.5310900
  H       -4.0942820    -0.3029910     1.5815520
  H        3.6028580    -1.6773980    -0.0043180
units angstrom
no_reorient  #important for SAPT in psi4, default
symmetry c1  #important for SAPT in psi4, default
}

set PROPERTIES_ORIGIN ["COM"]
properties('MP2/aug-cc-pvtz', properties = ['dipole'])
--------------------------------------------------------------------------

    Molecular point group: c1
  Charge       = 0
  Multiplicity = 1
  Basis Set: AUG-CC-PVTZ
    Blend: AUG-CC-PVTZ
  Basis Set: (AUG-CC-PVTZ AUX)
    Blend: AUG-CC-PVTZ-JKFIT

    Orbital Energies [Eh]
    ---------------------

    Doubly Occupied:

       1A    -20.558628     2A    -11.286369     3A    -11.228149
       4A    -11.226557     5A    -11.223593     6A    -11.223293
       7A    -11.221667     8A    -11.220575     9A    -11.213164
      10A     -1.360527    11A     -1.097486    12A     -1.061475
      13A     -1.015973    14A     -0.962484    15A     -0.876564
      16A     -0.828409    17A     -0.751036    18A     -0.744958
      19A     -0.694342    20A     -0.636738    21A     -0.627715
      22A     -0.616313    23A     -0.588304    24A     -0.583273
      25A     -0.546499    26A     -0.543994    27A     -0.525512
      28A     -0.519267    29A     -0.499244    30A     -0.492463
      31A     -0.478947    32A     -0.468616    33A     -0.452188
      34A     -0.415048    35A     -0.297775

  @DF-RHF Final Energy:  -386.05633883905313

   => Energetics <=

    Nuclear Repulsion Energy =            417.8216946816614836
    One-Electron Energy =               -1351.5817775974080632
    Two-Electron Energy =                 547.7037440766933969
    Total Energy =                       -386.0563388390531827
  Basis Set: (AUG-CC-PVTZ AUX)
    Blend: AUG-CC-PVTZ-RI
    Molecular point group: c1

    Geometry (in Angstrom), charge = 0, multiplicity = 1:

       Center              X                  Y                   Z               Mass
    ------------   -----------------  -----------------  -----------------  -----------------
         O            2.692915594167    -1.335227439425    -0.024177253923    15.994914619570
         C            2.750505594167     0.024705560575     0.409234746077    12.000000000000
         C            1.360332594167     0.575740560575     0.397642746077    12.000000000000
         C           -3.549551405833     0.361375560575    -0.407905253923    12.000000000000
         C            3.670556594167     0.840251560575    -0.493601253923    12.000000000000
         C            0.270063594167    -0.103209439425     0.001594746077    12.000000000000
         C           -2.163532405833    -0.201214439425    -0.406795253923    12.000000000000
         C           -1.063875405833     0.469056560575    -0.015352253923    12.000000000000
         C           -4.470629405833    -0.384263439425     0.560650746077    12.000000000000
         H            3.135769594167     0.068060560575     1.442737746077     1.007825032230
         H            1.265170594167     1.611147560575     0.727561746077     1.007825032230
         H           -3.511700405833     1.424147560575    -0.142021253923     1.007825032230
         H           -3.971693405833     0.304286560575    -1.419748253923     1.007825032230
         H            3.305658594167     0.782016560575    -1.521465253923     1.007825032230
         H            3.698703594167     1.889191560575    -0.184836253923     1.007825032230
         H            4.694475594167     0.451972560575    -0.458560253923     1.007825032230
         H            0.383756594167    -1.135759439425    -0.320663253923     1.007825032230
         H           -2.057670405833    -1.239421439425    -0.728139253923     1.007825032230
         H           -1.121565105833     1.599458560575     0.026775646077     1.007825032230
         H           -4.525868405833    -1.446519439425     0.305592746077     1.007825032230
         H           -5.485665405833     0.022445560575     0.533343746077     1.007825032230
         H           -4.094630405833    -0.303731439425     1.583805746077     1.007825032230
         H            3.602509594167    -1.678138439425    -0.002064253923     1.007825032230

  Basis Set: AUG-CC-PVTZ
    Blend: AUG-CC-PVTZ
  Basis Set: (AUG-CC-PVTZ AUX)
    Blend: AUG-CC-PVTZ-JKFIT
	 Reference Energy          =    -386.0563388390531259 [Eh]
	 Singles Energy            =      -0.0000000000000000 [Eh]
	 Same-Spin Energy          =      -0.4006567453041404 [Eh]
	 Opposite-Spin Energy      =      -1.3790884028298644 [Eh]
	 Correlation Energy        =      -1.7797451481340048 [Eh]
	 Total Energy              =    -387.8360839871871235 [Eh]

	 ================> DF-SCS-MP2 Energies <==================
	-----------------------------------------------------------
	 SCS Same-Spin Scale       =       0.3333333333333333 [-]
	 SCS Opposite-Spin Scale   =       1.2000000000000000 [-]
	 SCS Same-Spin Energy      =      -0.1335522484347135 [Eh]
	 SCS Opposite-Spin Energy  =      -1.6549060833958373 [Eh]
	 SCS Correlation Energy    =      -1.7884583318305509 [Eh]
	 SCS Total Energy          =    -387.8447971708836803 [Eh]
	-----------------------------------------------------------

  Dipole Moment: [D]
     X:     1.2233      Y:     0.7315      Z:     0.1341     Total:     1.4316

*** Psi4 exiting successfully. Buy a developer a beer!
