                               Psi4 1.4a2.dev612

  ==> Input File <==

--------------------------------------------------------------------------
#psi4
#
memory 32 gb

molecule  {
0 1
  O        2.6932640    -1.3344870    -0.0264310
  C        2.7508540     0.0254460     0.4069810
  C        1.3606810     0.5764810     0.3953890
  C       -3.5492030     0.3621160    -0.4101590
  C        3.6709050     0.8409920    -0.4958550
  C        0.2704120    -0.1024690    -0.0006590
  C       -2.1631840    -0.2004740    -0.4090490
  C       -1.0635270     0.4697970    -0.0176060
  C       -4.4702810    -0.3835230     0.5583970
  H        3.1361180     0.0688010     1.4404840
  H        1.2655190     1.6118880     0.7253080
  H       -3.5113520     1.4248880    -0.1442750
  H       -3.9713450     0.3050270    -1.4220020
  H        3.3060070     0.7827570    -1.5237190
  H        3.6990520     1.8899320    -0.1870900
  H        4.6948240     0.4527130    -0.4608140
  H        0.3621555    -1.1816202    -0.1820392
  H       -2.0573220    -1.2386810    -0.7303930
  H       -1.1648060     1.5075440     0.3065060
  H       -4.5255200    -1.4457790     0.3033390
  H       -5.4853170     0.0231860     0.5310900
  H       -4.0942820    -0.3029910     1.5815520
  H        3.6028580    -1.6773980    -0.0043180
units angstrom
no_reorient  #important for SAPT in psi4, default
symmetry c1  #important for SAPT in psi4, default
}

set PROPERTIES_ORIGIN ["COM"]
properties('MP2/aug-cc-pvtz', properties = ['dipole'])
--------------------------------------------------------------------------

    Molecular point group: c1
  Charge       = 0
  Multiplicity = 1
  Basis Set: AUG-CC-PVTZ
    Blend: AUG-CC-PVTZ
  Basis Set: (AUG-CC-PVTZ AUX)
    Blend: AUG-CC-PVTZ-JKFIT

    Orbital Energies [Eh]
    ---------------------

    Doubly Occupied:

       1A    -20.558665     2A    -11.286576     3A    -11.225846
       4A    -11.224284     5A    -11.223239     6A    -11.223009
       7A    -11.222371     8A    -11.220547     9A    -11.212818
      10A     -1.360557    11A     -1.097715    12A     -1.061323
      13A     -1.016080    14A     -0.962470    15A     -0.876513
      16A     -0.828452    17A     -0.752373    18A     -0.746814
      19A     -0.695275    20A     -0.636818    21A     -0.628202
      22A     -0.616397    23A     -0.589698    24A     -0.582688
      25A     -0.546154    26A     -0.544009    27A     -0.527477
      28A     -0.518191    29A     -0.500648    30A     -0.492064
      31A     -0.479112    32A     -0.467838    33A     -0.452918
      34A     -0.417379    35A     -0.297503

  @DF-RHF Final Energy:  -386.06104992462599

   => Energetics <=

    Nuclear Repulsion Energy =            417.9468125752450192
    One-Electron Energy =               -1351.8316810916001032
    Two-Electron Energy =                 547.8238185917290366
    Total Energy =                       -386.0610499246259906
  Basis Set: (AUG-CC-PVTZ AUX)
    Blend: AUG-CC-PVTZ-RI
    Molecular point group: c1

    Geometry (in Angstrom), charge = 0, multiplicity = 1:

       Center              X                  Y                   Z               Mass
    ------------   -----------------  -----------------  -----------------  -----------------
         O            2.693439379294    -1.334114505920    -0.027556760016    15.994914619570
         C            2.751029379294     0.025818494080     0.405855239984    12.000000000000
         C            1.360856379294     0.576853494080     0.394263239984    12.000000000000
         C           -3.549027620706     0.362488494080    -0.411284760016    12.000000000000
         C            3.671080379294     0.841364494080    -0.496980760016    12.000000000000
         C            0.270587379294    -0.102096505920    -0.001784760016    12.000000000000
         C           -2.163008620706    -0.200101505920    -0.410174760016    12.000000000000
         C           -1.063351620706     0.470169494080    -0.018731760016    12.000000000000
         C           -4.470105620706    -0.383150505920     0.557271239984    12.000000000000
         H            3.136293379294     0.069173494080     1.439358239984     1.007825032230
         H            1.265694379294     1.612260494080     0.724182239984     1.007825032230
         H           -3.511176620706     1.425260494080    -0.145400760016     1.007825032230
         H           -3.971169620706     0.305399494080    -1.423127760016     1.007825032230
         H            3.306182379294     0.783129494080    -1.524844760016     1.007825032230
         H            3.699227379294     1.890304494080    -0.188215760016     1.007825032230
         H            4.694999379294     0.453085494080    -0.461939760016     1.007825032230
         H            0.362330879294    -1.181247705920    -0.183164960016     1.007825032230
         H           -2.057146620706    -1.238308505920    -0.731518760016     1.007825032230
         H           -1.164630620706     1.507916494080     0.305380239984     1.007825032230
         H           -4.525344620706    -1.445406505920     0.302213239984     1.007825032230
         H           -5.485141620706     0.023558494080     0.529964239984     1.007825032230
         H           -4.094106620706    -0.302618505920     1.580426239984     1.007825032230
         H            3.603033379294    -1.677025505920    -0.005443760016     1.007825032230

  Basis Set: AUG-CC-PVTZ
    Blend: AUG-CC-PVTZ
  Basis Set: (AUG-CC-PVTZ AUX)
    Blend: AUG-CC-PVTZ-JKFIT
	 Reference Energy          =    -386.0610499246259906 [Eh]
	 Singles Energy            =      -0.0000000000000000 [Eh]
	 Same-Spin Energy          =      -0.4004506884460677 [Eh]
	 Opposite-Spin Energy      =      -1.3785241919114428 [Eh]
	 Correlation Energy        =      -1.7789748803575105 [Eh]
	 Total Energy              =    -387.8400248049835000 [Eh]

	 ================> DF-SCS-MP2 Energies <==================
	-----------------------------------------------------------
	 SCS Same-Spin Scale       =       0.3333333333333333 [-]
	 SCS Opposite-Spin Scale   =       1.2000000000000000 [-]
	 SCS Same-Spin Energy      =      -0.1334835628153559 [Eh]
	 SCS Opposite-Spin Energy  =      -1.6542290302937313 [Eh]
	 SCS Correlation Energy    =      -1.7877125931090871 [Eh]
	 SCS Total Energy          =    -387.8487625177350537 [Eh]
	-----------------------------------------------------------

  Dipole Moment: [D]
     X:     1.1941      Y:     0.7091      Z:     0.3975     Total:     1.4446

*** Psi4 exiting successfully. Buy a developer a beer!
