                               Psi4 1.4a2.dev612

  ==> Input File <==

--------------------------------------------------------------------------
#psi4
#
memory 32 gb

molecule  {
0 1
  O        2.6932640    -1.3344870    -0.0264310
  C        2.7508540     0.0254460     0.4069810
  C        1.3606810     0.5764810     0.3953890
  C       -3.5492030     0.3621160    -0.4101590
  C        3.6709050     0.8409920    -0.4958550
  C        0.2704120    -0.1024690    -0.0006590
  C       -2.1631840    -0.2004740    -0.4090490
  C       -1.0635270     0.4697970    -0.0176060
  C       -4.4702810    -0.3835230     0.5583970
  H        3.1361180     0.0688010     1.4404840
  H        1.2655190     1.6118880     0.7253080
  H       -3.5113520     1.4248880    -0.1442750
  H       -3.9713450     0.3050270    -1.4220020
  H        3.3060070     0.7827570    -1.5237190
  H        3.6990520     1.8899320    -0.1870900
  H        4.6948240     0.4527130    -0.4608140
  H        0.3841050    -1.1350190    -0.3229170
  H       -2.0168684    -1.1445727    -1.0123631
  H       -1.1648060     1.5075440     0.3065060
  H       -4.5255200    -1.4457790     0.3033390
  H       -5.4853170     0.0231860     0.5310900
  H       -4.0942820    -0.3029910     1.5815520
  H        3.6028580    -1.6773980    -0.0043180
units angstrom
no_reorient  #important for SAPT in psi4, default
symmetry c1  #important for SAPT in psi4, default
}

set PROPERTIES_ORIGIN ["COM"]
properties('MP2/aug-cc-pvtz', properties = ['dipole'])
--------------------------------------------------------------------------

    Molecular point group: c1
  Charge       = 0
  Multiplicity = 1
  Basis Set: AUG-CC-PVTZ
    Blend: AUG-CC-PVTZ
  Basis Set: (AUG-CC-PVTZ AUX)
    Blend: AUG-CC-PVTZ-JKFIT

    Orbital Energies [Eh]
    ---------------------

    Doubly Occupied:

       1A    -20.559010     2A    -11.286946     3A    -11.229290
       4A    -11.224993     5A    -11.224063     6A    -11.222992
       7A    -11.222367     8A    -11.221048     9A    -11.211791
      10A     -1.360929    11A     -1.097755    12A     -1.061137
      13A     -1.016350    14A     -0.962480    15A     -0.876726
      16A     -0.828527    17A     -0.749093    18A     -0.746025
      19A     -0.694903    20A     -0.636693    21A     -0.628707
      22A     -0.617046    23A     -0.590497    24A     -0.580959
      25A     -0.546702    26A     -0.544701    27A     -0.527106
      28A     -0.517597    29A     -0.500701    30A     -0.492955
      31A     -0.475062    32A     -0.467032    33A     -0.453102
      34A     -0.417645    35A     -0.297518

  @DF-RHF Final Energy:  -386.05675500146441

   => Energetics <=

    Nuclear Repulsion Energy =            417.7910989786990399
    One-Electron Energy =               -1351.5148061758818585
    Two-Electron Energy =                 547.6669521957185225
    Total Energy =                       -386.0567550014643530
  Basis Set: (AUG-CC-PVTZ AUX)
    Blend: AUG-CC-PVTZ-RI
    Molecular point group: c1

    Geometry (in Angstrom), charge = 0, multiplicity = 1:

       Center              X                  Y                   Z               Mass
    ------------   -----------------  -----------------  -----------------  -----------------
         O            2.692940654636    -1.335239054177    -0.024177365811    15.994914619570
         C            2.750530654636     0.024693945823     0.409234634189    12.000000000000
         C            1.360357654636     0.575728945823     0.397642634189    12.000000000000
         C           -3.549526345364     0.361363945823    -0.407905365811    12.000000000000
         C            3.670581654636     0.840239945823    -0.493601365811    12.000000000000
         C            0.270088654636    -0.103221054177     0.001594634189    12.000000000000
         C           -2.163507345364    -0.201226054177    -0.406795365811    12.000000000000
         C           -1.063850345364     0.469044945823    -0.015352365811    12.000000000000
         C           -4.470604345364    -0.384275054177     0.560650634189    12.000000000000
         H            3.135794654636     0.068048945823     1.442737634189     1.007825032230
         H            1.265195654636     1.611135945823     0.727561634189     1.007825032230
         H           -3.511675345364     1.424135945823    -0.142021365811     1.007825032230
         H           -3.971668345364     0.304274945823    -1.419748365811     1.007825032230
         H            3.305683654636     0.782004945823    -1.521465365811     1.007825032230
         H            3.698728654636     1.889179945823    -0.184836365811     1.007825032230
         H            4.694500654636     0.451960945823    -0.458560365811     1.007825032230
         H            0.383781654636    -1.135771054177    -0.320663365811     1.007825032230
         H           -2.017191745364    -1.145324754177    -1.010109465811     1.007825032230
         H           -1.165129345364     1.506791945823     0.308759634189     1.007825032230
         H           -4.525843345364    -1.446531054177     0.305592634189     1.007825032230
         H           -5.485640345364     0.022433945823     0.533343634189     1.007825032230
         H           -4.094605345364    -0.303743054177     1.583805634189     1.007825032230
         H            3.602534654636    -1.678150054177    -0.002064365811     1.007825032230

  Basis Set: AUG-CC-PVTZ
    Blend: AUG-CC-PVTZ
  Basis Set: (AUG-CC-PVTZ AUX)
    Blend: AUG-CC-PVTZ-JKFIT
	 Reference Energy          =    -386.0567550014644098 [Eh]
	 Singles Energy            =      -0.0000000000000000 [Eh]
	 Same-Spin Energy          =      -0.4006069707088043 [Eh]
	 Opposite-Spin Energy      =      -1.3790480045238471 [Eh]
	 Correlation Energy        =      -1.7796549752326514 [Eh]
	 Total Energy              =    -387.8364099766970412 [Eh]

	 ================> DF-SCS-MP2 Energies <==================
	-----------------------------------------------------------
	 SCS Same-Spin Scale       =       0.3333333333333333 [-]
	 SCS Opposite-Spin Scale   =       1.2000000000000000 [-]
	 SCS Same-Spin Energy      =      -0.1335356569029348 [Eh]
	 SCS Opposite-Spin Energy  =      -1.6548576054286166 [Eh]
	 SCS Correlation Energy    =      -1.7883932623315513 [Eh]
	 SCS Total Energy          =    -387.8451482637959771 [Eh]
	-----------------------------------------------------------

  Dipole Moment: [D]
     X:     1.2928      Y:     0.8277      Z:     0.1589     Total:     1.5432

*** Psi4 exiting successfully. Buy a developer a beer!
