                               Psi4 1.4a2.dev612

  ==> Input File <==

--------------------------------------------------------------------------
#psi4
#
memory 32 gb

molecule  {
0 1
  O        2.6932640    -1.3344870    -0.0264310
  C        2.7508540     0.0254460     0.4069810
  C        1.3606810     0.5764810     0.3953890
  C       -3.5492030     0.3621160    -0.4101590
  C        3.6709050     0.8409920    -0.4958550
  C        0.2704120    -0.1024690    -0.0006590
  C       -2.1631840    -0.2004740    -0.4090490
  C       -1.0635270     0.4697970    -0.0176060
  C       -4.4702810    -0.3835230     0.5583970
  H        3.1361180     0.0688010     1.4404840
  H        1.2724105     1.6277535     0.6783954
  H       -3.5113520     1.4248880    -0.1442750
  H       -3.9713450     0.3050270    -1.4220020
  H        3.3060070     0.7827570    -1.5237190
  H        3.6990520     1.8899320    -0.1870900
  H        4.6948240     0.4527130    -0.4608140
  H        0.3841050    -1.1350190    -0.3229170
  H       -2.0573220    -1.2386810    -0.7303930
  H       -1.1648060     1.5075440     0.3065060
  H       -4.5255200    -1.4457790     0.3033390
  H       -5.4853170     0.0231860     0.5310900
  H       -4.0942820    -0.3029910     1.5815520
  H        3.6028580    -1.6773980    -0.0043180
units angstrom
no_reorient  #important for SAPT in psi4, default
symmetry c1  #important for SAPT in psi4, default
}

set PROPERTIES_ORIGIN ["COM"]
properties('MP2/aug-cc-pvtz', properties = ['dipole'])
--------------------------------------------------------------------------

    Molecular point group: c1
  Charge       = 0
  Multiplicity = 1
  Basis Set: AUG-CC-PVTZ
    Blend: AUG-CC-PVTZ
  Basis Set: (AUG-CC-PVTZ AUX)
    Blend: AUG-CC-PVTZ-JKFIT

    Orbital Energies [Eh]
    ---------------------

    Doubly Occupied:

       1A    -20.558718     2A    -11.286464     3A    -11.225935
       4A    -11.223688     5A    -11.223257     6A    -11.223005
       7A    -11.221815     8A    -11.220648     9A    -11.212781
      10A     -1.360604    11A     -1.097844    12A     -1.061338
      13A     -1.016174    14A     -0.962428    15A     -0.876554
      16A     -0.828581    17A     -0.752470    18A     -0.747949
      19A     -0.695184    20A     -0.637350    21A     -0.628290
      22A     -0.616645    23A     -0.589778    24A     -0.582727
      25A     -0.546579    26A     -0.543275    27A     -0.527669
      28A     -0.518754    29A     -0.500660    30A     -0.492396
      31A     -0.479139    32A     -0.468073    33A     -0.452894
      34A     -0.418266    35A     -0.297478

  @DF-RHF Final Energy:  -386.06242879487291

   => Energetics <=

    Nuclear Repulsion Energy =            418.0043444909876484
    One-Electron Energy =               -1351.9427220887703243
    Two-Electron Energy =                 547.8759488029096474
    Total Energy =                       -386.0624287948729716
  Basis Set: (AUG-CC-PVTZ AUX)
    Blend: AUG-CC-PVTZ-RI
    Molecular point group: c1

    Geometry (in Angstrom), charge = 0, multiplicity = 1:

       Center              X                  Y                   Z               Mass
    ------------   -----------------  -----------------  -----------------  -----------------
         O            2.693208882446    -1.334613738869    -0.026055941898    15.994914619570
         C            2.750798882446     0.025319261131     0.407356058102    12.000000000000
         C            1.360625882446     0.576354261131     0.395764058102    12.000000000000
         C           -3.549258117554     0.361989261131    -0.409783941898    12.000000000000
         C            3.670849882446     0.840865261131    -0.495479941898    12.000000000000
         C            0.270356882446    -0.102595738869    -0.000283941898    12.000000000000
         C           -2.163239117554    -0.200600738869    -0.408673941898    12.000000000000
         C           -1.063582117554     0.469670261131    -0.017230941898    12.000000000000
         C           -4.470336117554    -0.383649738869     0.558772058102    12.000000000000
         H            3.136062882446     0.068674261131     1.440859058102     1.007825032230
         H            1.272355382446     1.627626761131     0.678770458102     1.007825032230
         H           -3.511407117554     1.424761261131    -0.143899941898     1.007825032230
         H           -3.971400117554     0.304900261131    -1.421626941898     1.007825032230
         H            3.305951882446     0.782630261131    -1.523343941898     1.007825032230
         H            3.698996882446     1.889805261131    -0.186714941898     1.007825032230
         H            4.694768882446     0.452586261131    -0.460438941898     1.007825032230
         H            0.384049882446    -1.135145738869    -0.322541941898     1.007825032230
         H           -2.057377117554    -1.238807738869    -0.730017941898     1.007825032230
         H           -1.164861117554     1.507417261131     0.306881058102     1.007825032230
         H           -4.525575117554    -1.445905738869     0.303714058102     1.007825032230
         H           -5.485372117554     0.023059261131     0.531465058102     1.007825032230
         H           -4.094337117554    -0.303117738869     1.581927058102     1.007825032230
         H            3.602802882446    -1.677524738869    -0.003942941898     1.007825032230

  Basis Set: AUG-CC-PVTZ
    Blend: AUG-CC-PVTZ
  Basis Set: (AUG-CC-PVTZ AUX)
    Blend: AUG-CC-PVTZ-JKFIT
	 Reference Energy          =    -386.0624287948729148 [Eh]
	 Singles Energy            =      -0.0000000000000000 [Eh]
	 Same-Spin Energy          =      -0.4003626220082694 [Eh]
	 Opposite-Spin Energy      =      -1.3783306725118099 [Eh]
	 Correlation Energy        =      -1.7786932945200793 [Eh]
	 Total Energy              =    -387.8411220893929681 [Eh]

	 ================> DF-SCS-MP2 Energies <==================
	-----------------------------------------------------------
	 SCS Same-Spin Scale       =       0.3333333333333333 [-]
	 SCS Opposite-Spin Scale   =       1.2000000000000000 [-]
	 SCS Same-Spin Energy      =      -0.1334542073360898 [Eh]
	 SCS Opposite-Spin Energy  =      -1.6539968070141717 [Eh]
	 SCS Correlation Energy    =      -1.7874510143502615 [Eh]
	 SCS Total Energy          =    -387.8498798092231823 [Eh]
	-----------------------------------------------------------

  Dipole Moment: [D]
     X:     1.2097      Y:     0.7353      Z:     0.2791     Total:     1.4429

*** Psi4 exiting successfully. Buy a developer a beer!
