                               Psi4 1.4a2.dev612

  ==> Input File <==

--------------------------------------------------------------------------
#psi4
#
memory 32 gb

molecule  {
0 1
  O        2.6932640    -1.3344870    -0.0264310
  C        2.7508540     0.0254460     0.4069810
  C        1.3606810     0.5764810     0.3953890
  C       -3.5492030     0.3621160    -0.4101590
  C        3.6709050     0.8409920    -0.4958550
  C        0.2704120    -0.1024690    -0.0006590
  C       -2.1631840    -0.2004740    -0.4090490
  C       -1.0635270     0.4697970    -0.0176060
  C       -4.4702810    -0.3835230     0.5583970
  H        3.1361180     0.0688010     1.4404840
  H        1.2655190     1.6118880     0.7253080
  H       -3.5113520     1.4248880    -0.1442750
  H       -3.9713450     0.3050270    -1.4220020
  H        3.3060070     0.7827570    -1.5237190
  H        3.6990520     1.8899320    -0.1870900
  H        4.6948240     0.4527130    -0.4608140
  H        0.3841050    -1.1350190    -0.3229170
  H       -2.0438375    -1.2073116    -0.8243830
  H       -1.1648060     1.5075440     0.3065060
  H       -4.5255200    -1.4457790     0.3033390
  H       -5.4853170     0.0231860     0.5310900
  H       -4.0942820    -0.3029910     1.5815520
  H        3.6028580    -1.6773980    -0.0043180
units angstrom
no_reorient  #important for SAPT in psi4, default
symmetry c1  #important for SAPT in psi4, default
}

set PROPERTIES_ORIGIN ["COM"]
properties('MP2/aug-cc-pvtz', properties = ['dipole'])
--------------------------------------------------------------------------

    Molecular point group: c1
  Charge       = 0
  Multiplicity = 1
  Basis Set: AUG-CC-PVTZ
    Blend: AUG-CC-PVTZ
  Basis Set: (AUG-CC-PVTZ AUX)
    Blend: AUG-CC-PVTZ-JKFIT

    Orbital Energies [Eh]
    ---------------------

    Doubly Occupied:

       1A    -20.558727     2A    -11.286528     3A    -11.226234
       4A    -11.223750     5A    -11.223238     6A    -11.223075
       7A    -11.221823     8A    -11.220632     9A    -11.212509
      10A     -1.360628    11A     -1.097797    12A     -1.061249
      13A     -1.016135    14A     -0.962485    15A     -0.876662
      16A     -0.828480    17A     -0.751536    18A     -0.748091
      19A     -0.695261    20A     -0.637217    21A     -0.628355
      22A     -0.616792    23A     -0.590183    24A     -0.582114
      25A     -0.546611    26A     -0.544265    27A     -0.527278
      28A     -0.518611    29A     -0.500631    30A     -0.492567
      31A     -0.478028    32A     -0.467855    33A     -0.452967
      34A     -0.418250    35A     -0.297476

  @DF-RHF Final Energy:  -386.06201498680434

   => Energetics <=

    Nuclear Repulsion Energy =            417.9631209844192199
    One-Electron Energy =               -1351.8621880976438661
    Two-Electron Energy =                 547.8370521264203035
    Total Energy =                       -386.0620149868043427
  Basis Set: (AUG-CC-PVTZ AUX)
    Blend: AUG-CC-PVTZ-RI
    Molecular point group: c1

    Geometry (in Angstrom), charge = 0, multiplicity = 1:

       Center              X                  Y                   Z               Mass
    ------------   -----------------  -----------------  -----------------  -----------------
         O            2.693156191287    -1.334737645810    -0.025679700009    15.994914619570
         C            2.750746191287     0.025195354190     0.407732299991    12.000000000000
         C            1.360573191287     0.576230354190     0.396140299991    12.000000000000
         C           -3.549310808713     0.361865354190    -0.409407700009    12.000000000000
         C            3.670797191287     0.840741354190    -0.495103700009    12.000000000000
         C            0.270304191287    -0.102719645810     0.000092299991    12.000000000000
         C           -2.163291808713    -0.200724645810    -0.408297700009    12.000000000000
         C           -1.063634808713     0.469546354190    -0.016854700009    12.000000000000
         C           -4.470388808713    -0.383773645810     0.559148299991    12.000000000000
         H            3.136010191287     0.068550354190     1.441235299991     1.007825032230
         H            1.265411191287     1.611637354190     0.726059299991     1.007825032230
         H           -3.511459808713     1.424637354190    -0.143523700009     1.007825032230
         H           -3.971452808713     0.304776354190    -1.421250700009     1.007825032230
         H            3.305899191287     0.782506354190    -1.522967700009     1.007825032230
         H            3.698944191287     1.889681354190    -0.186338700009     1.007825032230
         H            4.694716191287     0.452462354190    -0.460062700009     1.007825032230
         H            0.383997191287    -1.135269645810    -0.322165700009     1.007825032230
         H           -2.043945308713    -1.207562245810    -0.823631700009     1.007825032230
         H           -1.164913808713     1.507293354190     0.307257299991     1.007825032230
         H           -4.525627808713    -1.446029645810     0.304090299991     1.007825032230
         H           -5.485424808713     0.022935354190     0.531841299991     1.007825032230
         H           -4.094389808713    -0.303241645810     1.582303299991     1.007825032230
         H            3.602750191287    -1.677648645810    -0.003566700009     1.007825032230

  Basis Set: AUG-CC-PVTZ
    Blend: AUG-CC-PVTZ
  Basis Set: (AUG-CC-PVTZ AUX)
    Blend: AUG-CC-PVTZ-JKFIT
	 Reference Energy          =    -386.0620149868043427 [Eh]
	 Singles Energy            =      -0.0000000000000000 [Eh]
	 Same-Spin Energy          =      -0.4003691779294433 [Eh]
	 Opposite-Spin Energy      =      -1.3783991763001606 [Eh]
	 Correlation Energy        =      -1.7787683542296038 [Eh]
	 Total Energy              =    -387.8407833410339549 [Eh]

	 ================> DF-SCS-MP2 Energies <==================
	-----------------------------------------------------------
	 SCS Same-Spin Scale       =       0.3333333333333333 [-]
	 SCS Opposite-Spin Scale   =       1.2000000000000000 [-]
	 SCS Same-Spin Energy      =      -0.1334563926431477 [Eh]
	 SCS Opposite-Spin Energy  =      -1.6540790115601927 [Eh]
	 SCS Correlation Energy    =      -1.7875354042033405 [Eh]
	 SCS Total Energy          =    -387.8495503910077105 [Eh]
	-----------------------------------------------------------

  Dipole Moment: [D]
     X:     1.2258      Y:     0.7505      Z:     0.2528     Total:     1.4593

*** Psi4 exiting successfully. Buy a developer a beer!
