                               Psi4 1.4a2.dev612

  ==> Input File <==

--------------------------------------------------------------------------
#psi4
#
memory 32 gb

molecule  {
0 1
  O        2.6932640    -1.3344870    -0.0264310
  C        2.7508540     0.0254460     0.4069810
  C        1.3606810     0.5764810     0.3953890
  C       -3.5492030     0.3621160    -0.4101590
  C        3.6709050     0.8409920    -0.4958550
  C        0.2704120    -0.1024690    -0.0006590
  C       -2.1631840    -0.2004740    -0.4090490
  C       -1.0635270     0.4697970    -0.0176060
  C       -4.4702810    -0.3835230     0.5583970
  H        3.1361180     0.0688010     1.4404840
  H        1.2655190     1.6118880     0.7253080
  H       -3.5113520     1.4248880    -0.1442750
  H       -3.9713450     0.3050270    -1.4220020
  H        3.3060070     0.7827570    -1.5237190
  H        3.6990520     1.8899320    -0.1870900
  H        4.6948240     0.4527130    -0.4608140
  H        0.3475225    -1.2126877    -0.0881207
  H       -2.0573220    -1.2386810    -0.7303930
  H       -1.1648060     1.5075440     0.3065060
  H       -4.5255200    -1.4457790     0.3033390
  H       -5.4853170     0.0231860     0.5310900
  H       -4.0942820    -0.3029910     1.5815520
  H        3.6028580    -1.6773980    -0.0043180
units angstrom
no_reorient  #important for SAPT in psi4, default
symmetry c1  #important for SAPT in psi4, default
}

set PROPERTIES_ORIGIN ["COM"]
properties('MP2/aug-cc-pvtz', properties = ['dipole'])
--------------------------------------------------------------------------

    Molecular point group: c1
  Charge       = 0
  Multiplicity = 1
  Basis Set: AUG-CC-PVTZ
    Blend: AUG-CC-PVTZ
  Basis Set: (AUG-CC-PVTZ AUX)
    Blend: AUG-CC-PVTZ-JKFIT

    Orbital Energies [Eh]
    ---------------------

    Doubly Occupied:

       1A    -20.558614     2A    -11.286753     3A    -11.225843
       4A    -11.225613     5A    -11.223434     6A    -11.223146
       7A    -11.222853     8A    -11.220649     9A    -11.212806
      10A     -1.360512    11A     -1.097525    12A     -1.061359
      13A     -1.015998    14A     -0.962478    15A     -0.876424
      16A     -0.828366    17A     -0.752353    18A     -0.744739
      19A     -0.695250    20A     -0.635825    21A     -0.628361
      22A     -0.616152    23A     -0.589396    24A     -0.582581
      25A     -0.545844    26A     -0.544107    27A     -0.527535
      28A     -0.517804    29A     -0.500140    30A     -0.491693
      31A     -0.479068    32A     -0.467864    33A     -0.452731
      34A     -0.415777    35A     -0.297575

  @DF-RHF Final Energy:  -386.05813808068223

   => Energetics <=

    Nuclear Repulsion Energy =            417.8647449302268910
    One-Electron Energy =               -1351.6714292214624038
    Two-Electron Energy =                 547.7485462105532861
    Total Energy =                       -386.0581380806822835
  Basis Set: (AUG-CC-PVTZ AUX)
    Blend: AUG-CC-PVTZ-RI
    Molecular point group: c1

    Geometry (in Angstrom), charge = 0, multiplicity = 1:

       Center              X                  Y                   Z               Mass
    ------------   -----------------  -----------------  -----------------  -----------------
         O            2.693556326015    -1.333866214917    -0.028307355288    15.994914619570
         C            2.751146326015     0.026066785083     0.405104644712    12.000000000000
         C            1.360973326015     0.577101785083     0.393512644712    12.000000000000
         C           -3.548910673985     0.362736785083    -0.412035355288    12.000000000000
         C            3.671197326015     0.841612785083    -0.497731355288    12.000000000000
         C            0.270704326015    -0.101848214917    -0.002535355288    12.000000000000
         C           -2.162891673985    -0.199853214917    -0.410925355288    12.000000000000
         C           -1.063234673985     0.470417785083    -0.019482355288    12.000000000000
         C           -4.469988673985    -0.382902214917     0.556520644712    12.000000000000
         H            3.136410326015     0.069421785083     1.438607644712     1.007825032230
         H            1.265811326015     1.612508785083     0.723431644712     1.007825032230
         H           -3.511059673985     1.425508785083    -0.146151355288     1.007825032230
         H           -3.971052673985     0.305647785083    -1.423878355288     1.007825032230
         H            3.306299326015     0.783377785083    -1.525595355288     1.007825032230
         H            3.699344326015     1.890552785083    -0.188966355288     1.007825032230
         H            4.695116326015     0.453333785083    -0.462690355288     1.007825032230
         H            0.347814826015    -1.212066914917    -0.089997055288     1.007825032230
         H           -2.057029673985    -1.238060214917    -0.732269355288     1.007825032230
         H           -1.164513673985     1.508164785083     0.304629644712     1.007825032230
         H           -4.525227673985    -1.445158214917     0.301462644712     1.007825032230
         H           -5.485024673985     0.023806785083     0.529213644712     1.007825032230
         H           -4.093989673985    -0.302370214917     1.579675644712     1.007825032230
         H            3.603150326015    -1.676777214917    -0.006194355288     1.007825032230

  Basis Set: AUG-CC-PVTZ
    Blend: AUG-CC-PVTZ
  Basis Set: (AUG-CC-PVTZ AUX)
    Blend: AUG-CC-PVTZ-JKFIT
	 Reference Energy          =    -386.0581380806822267 [Eh]
	 Singles Energy            =      -0.0000000000000000 [Eh]
	 Same-Spin Energy          =      -0.4006101543100685 [Eh]
	 Opposite-Spin Energy      =      -1.3788843260533579 [Eh]
	 Correlation Energy        =      -1.7794944803634263 [Eh]
	 Total Energy              =    -387.8376325610456661 [Eh]

	 ================> DF-SCS-MP2 Energies <==================
	-----------------------------------------------------------
	 SCS Same-Spin Scale       =       0.3333333333333333 [-]
	 SCS Opposite-Spin Scale   =       1.2000000000000000 [-]
	 SCS Same-Spin Energy      =      -0.1335367181033562 [Eh]
	 SCS Opposite-Spin Energy  =      -1.6546611912640294 [Eh]
	 SCS Correlation Energy    =      -1.7881979093673857 [Eh]
	 SCS Total Energy          =    -387.8463359900496243 [Eh]
	-----------------------------------------------------------

  Dipole Moment: [D]
     X:     1.1902      Y:     0.7055      Z:     0.4582     Total:     1.4575

*** Psi4 exiting successfully. Buy a developer a beer!
