                               Psi4 1.4a2.dev612

  ==> Input File <==

--------------------------------------------------------------------------
#psi4
#
memory 32 gb

molecule  {
0 1
  O        2.6932640    -1.3344870    -0.0264310
  C        2.7508540     0.0254460     0.4069810
  C        1.3606810     0.5764810     0.3953890
  C       -3.5492030     0.3621160    -0.4101590
  C        3.6709050     0.8409920    -0.4958550
  C        0.2704120    -0.1024690    -0.0006590
  C       -2.1631840    -0.2004740    -0.4090490
  C       -1.0635270     0.4697970    -0.0176060
  C       -4.4702810    -0.3835230     0.5583970
  H        3.1361180     0.0688010     1.4404840
  H        1.2655190     1.6118880     0.7253080
  H       -3.5113520     1.4248880    -0.1442750
  H       -3.9713450     0.3050270    -1.4220020
  H        3.3060070     0.7827570    -1.5237190
  H        3.6990520     1.8899320    -0.1870900
  H        4.6948240     0.4527130    -0.4608140
  H        0.3841050    -1.1350190    -0.3229170
  H       -2.0370952    -1.1916268    -0.8713780
  H       -1.1648060     1.5075440     0.3065060
  H       -4.5255200    -1.4457790     0.3033390
  H       -5.4853170     0.0231860     0.5310900
  H       -4.0942820    -0.3029910     1.5815520
  H        3.6028580    -1.6773980    -0.0043180
units angstrom
no_reorient  #important for SAPT in psi4, default
symmetry c1  #important for SAPT in psi4, default
}

set PROPERTIES_ORIGIN ["COM"]
properties('MP2/aug-cc-pvtz', properties = ['dipole'])
--------------------------------------------------------------------------

    Molecular point group: c1
  Charge       = 0
  Multiplicity = 1
  Basis Set: AUG-CC-PVTZ
    Blend: AUG-CC-PVTZ
  Basis Set: (AUG-CC-PVTZ AUX)
    Blend: AUG-CC-PVTZ-JKFIT

    Orbital Energies [Eh]
    ---------------------

    Doubly Occupied:

       1A    -20.558774     2A    -11.286597     3A    -11.226699
       4A    -11.223911     5A    -11.223373     6A    -11.223092
       7A    -11.221918     8A    -11.220707     9A    -11.212345
      10A     -1.360678    11A     -1.097781    12A     -1.061218
      13A     -1.016163    14A     -0.962489    15A     -0.876685
      16A     -0.828468    17A     -0.750732    18A     -0.748081
      19A     -0.695220    20A     -0.637124    21A     -0.628494
      22A     -0.616846    23A     -0.590271    24A     -0.581791
      25A     -0.546638    26A     -0.544469    27A     -0.527227
      28A     -0.518446    29A     -0.500634    30A     -0.492666
      31A     -0.477351    32A     -0.467768    33A     -0.452989
      34A     -0.418170    35A     -0.297484

  @DF-RHF Final Energy:  -386.06125914922757

   => Energetics <=

    Nuclear Repulsion Energy =            417.9321315449240046
    One-Electron Energy =               -1351.8001779323835763
    Two-Electron Energy =                 547.8067872382320047
    Total Energy =                       -386.0612591492275669
  Basis Set: (AUG-CC-PVTZ AUX)
    Blend: AUG-CC-PVTZ-RI
    Molecular point group: c1

    Geometry (in Angstrom), charge = 0, multiplicity = 1:

       Center              X                  Y                   Z               Mass
    ------------   -----------------  -----------------  -----------------  -----------------
         O            2.693102306924    -1.334862998501    -0.025304116659    15.994914619570
         C            2.750692306924     0.025070001499     0.408107883341    12.000000000000
         C            1.360519306924     0.576105001499     0.396515883341    12.000000000000
         C           -3.549364693076     0.361740001499    -0.409032116659    12.000000000000
         C            3.670743306924     0.840616001499    -0.494728116659    12.000000000000
         C            0.270250306924    -0.102844998501     0.000467883341    12.000000000000
         C           -2.163345693076    -0.200849998501    -0.407922116659    12.000000000000
         C           -1.063688693076     0.469421001499    -0.016479116659    12.000000000000
         C           -4.470442693076    -0.383898998501     0.559523883341    12.000000000000
         H            3.135956306924     0.068425001499     1.441610883341     1.007825032230
         H            1.265357306924     1.611512001499     0.726434883341     1.007825032230
         H           -3.511513693076     1.424512001499    -0.143148116659     1.007825032230
         H           -3.971506693076     0.304651001499    -1.420875116659     1.007825032230
         H            3.305845306924     0.782381001499    -1.522592116659     1.007825032230
         H            3.698890306924     1.889556001499    -0.185963116659     1.007825032230
         H            4.694662306924     0.452337001499    -0.459687116659     1.007825032230
         H            0.383943306924    -1.135394998501    -0.321790116659     1.007825032230
         H           -2.037256893076    -1.192002798501    -0.870251116659     1.007825032230
         H           -1.164967693076     1.507168001499     0.307632883341     1.007825032230
         H           -4.525681693076    -1.446154998501     0.304465883341     1.007825032230
         H           -5.485478693076     0.022810001499     0.532216883341     1.007825032230
         H           -4.094443693076    -0.303366998501     1.582678883341     1.007825032230
         H            3.602696306924    -1.677773998501    -0.003191116659     1.007825032230

  Basis Set: AUG-CC-PVTZ
    Blend: AUG-CC-PVTZ
  Basis Set: (AUG-CC-PVTZ AUX)
    Blend: AUG-CC-PVTZ-JKFIT
	 Reference Energy          =    -386.0612591492275669 [Eh]
	 Singles Energy            =      -0.0000000000000000 [Eh]
	 Same-Spin Energy          =      -0.4004049193524907 [Eh]
	 Opposite-Spin Energy      =      -1.3784980037864645 [Eh]
	 Correlation Energy        =      -1.7789029231389550 [Eh]
	 Total Energy              =    -387.8401620723665246 [Eh]

	 ================> DF-SCS-MP2 Energies <==================
	-----------------------------------------------------------
	 SCS Same-Spin Scale       =       0.3333333333333333 [-]
	 SCS Opposite-Spin Scale   =       1.2000000000000000 [-]
	 SCS Same-Spin Energy      =      -0.1334683064508302 [Eh]
	 SCS Opposite-Spin Energy  =      -1.6541976045437574 [Eh]
	 SCS Correlation Energy    =      -1.7876659109945876 [Eh]
	 SCS Total Energy          =    -387.8489250602221432 [Eh]
	-----------------------------------------------------------

  Dipole Moment: [D]
     X:     1.2396      Y:     0.7657      Z:     0.2266     Total:     1.4745

*** Psi4 exiting successfully. Buy a developer a beer!
