                               Psi4 1.4a2.dev612

  ==> Input File <==

--------------------------------------------------------------------------
#psi4
#
memory 32 gb

molecule  {
0 1
  O        2.6932640    -1.3344870    -0.0264310
  C        2.7508540     0.0254460     0.4069810
  C        1.3606810     0.5764810     0.3953890
  C       -3.5492030     0.3621160    -0.4101590
  C        3.6709050     0.8409920    -0.4958550
  C        0.2704120    -0.1024690    -0.0006590
  C       -2.1631840    -0.2004740    -0.4090490
  C       -1.0635270     0.4697970    -0.0176060
  C       -4.4702810    -0.3835230     0.5583970
  H        3.1361180     0.0688010     1.4404840
  H        1.2793020     1.6436191     0.6314828
  H       -3.5113520     1.4248880    -0.1442750
  H       -3.9713450     0.3050270    -1.4220020
  H        3.3060070     0.7827570    -1.5237190
  H        3.6990520     1.8899320    -0.1870900
  H        4.6948240     0.4527130    -0.4608140
  H        0.3841050    -1.1350190    -0.3229170
  H       -2.0573220    -1.2386810    -0.7303930
  H       -1.1648060     1.5075440     0.3065060
  H       -4.5255200    -1.4457790     0.3033390
  H       -5.4853170     0.0231860     0.5310900
  H       -4.0942820    -0.3029910     1.5815520
  H        3.6028580    -1.6773980    -0.0043180
units angstrom
no_reorient  #important for SAPT in psi4, default
symmetry c1  #important for SAPT in psi4, default
}

set PROPERTIES_ORIGIN ["COM"]
properties('MP2/aug-cc-pvtz', properties = ['dipole'])
--------------------------------------------------------------------------

    Molecular point group: c1
  Charge       = 0
  Multiplicity = 1
  Basis Set: AUG-CC-PVTZ
    Blend: AUG-CC-PVTZ
  Basis Set: (AUG-CC-PVTZ AUX)
    Blend: AUG-CC-PVTZ-JKFIT

    Orbital Energies [Eh]
    ---------------------

    Doubly Occupied:

       1A    -20.558746     2A    -11.286444     3A    -11.226017
       4A    -11.223876     5A    -11.223325     6A    -11.223097
       7A    -11.222023     8A    -11.220727     9A    -11.212795
      10A     -1.360622    11A     -1.097874    12A     -1.061346
      13A     -1.016230    14A     -0.962392    15A     -0.876511
      16A     -0.828632    17A     -0.752538    18A     -0.747544
      19A     -0.695104    20A     -0.637394    21A     -0.628569
      22A     -0.616586    23A     -0.589563    24A     -0.582592
      25A     -0.546583    26A     -0.542758    27A     -0.527924
      28A     -0.518769    29A     -0.500600    30A     -0.492430
      31A     -0.479189    32A     -0.468245    33A     -0.452748
      34A     -0.418240    35A     -0.297507

  @DF-RHF Final Energy:  -386.06196841398059

   => Energetics <=

    Nuclear Repulsion Energy =            418.0005465036599048
    One-Electron Energy =               -1351.9339500746023077
    Two-Electron Energy =                 547.8714351569617520
    Total Energy =                       -386.0619684139805941
  Basis Set: (AUG-CC-PVTZ AUX)
    Blend: AUG-CC-PVTZ-RI
    Molecular point group: c1

    Geometry (in Angstrom), charge = 0, multiplicity = 1:

       Center              X                  Y                   Z               Mass
    ------------   -----------------  -----------------  -----------------  -----------------
         O            2.693153805679    -1.334740536511    -0.025681017088    15.994914619570
         C            2.750743805679     0.025192463489     0.407730982912    12.000000000000
         C            1.360570805679     0.576227463489     0.396138982912    12.000000000000
         C           -3.549313194321     0.361862463489    -0.409409017088    12.000000000000
         C            3.670794805679     0.840738463489    -0.495105017088    12.000000000000
         C            0.270301805679    -0.102722536511     0.000090982912    12.000000000000
         C           -2.163294194321    -0.200727536511    -0.408299017088    12.000000000000
         C           -1.063637194321     0.469543463489    -0.016856017088    12.000000000000
         C           -4.470391194321    -0.383776536511     0.559146982912    12.000000000000
         H            3.136007805679     0.068547463489     1.441233982912     1.007825032230
         H            1.279191805679     1.643365563489     0.632232782912     1.007825032230
         H           -3.511462194321     1.424634463489    -0.143525017088     1.007825032230
         H           -3.971455194321     0.304773463489    -1.421252017088     1.007825032230
         H            3.305896805679     0.782503463489    -1.522969017088     1.007825032230
         H            3.698941805679     1.889678463489    -0.186340017088     1.007825032230
         H            4.694713805679     0.452459463489    -0.460064017088     1.007825032230
         H            0.383994805679    -1.135272536511    -0.322167017088     1.007825032230
         H           -2.057432194321    -1.238934536511    -0.729643017088     1.007825032230
         H           -1.164916194321     1.507290463489     0.307255982912     1.007825032230
         H           -4.525630194321    -1.446032536511     0.304088982912     1.007825032230
         H           -5.485427194321     0.022932463489     0.531839982912     1.007825032230
         H           -4.094392194321    -0.303244536511     1.582301982912     1.007825032230
         H            3.602747805679    -1.677651536511    -0.003568017088     1.007825032230

  Basis Set: AUG-CC-PVTZ
    Blend: AUG-CC-PVTZ
  Basis Set: (AUG-CC-PVTZ AUX)
    Blend: AUG-CC-PVTZ-JKFIT
	 Reference Energy          =    -386.0619684139805941 [Eh]
	 Singles Energy            =      -0.0000000000000000 [Eh]
	 Same-Spin Energy          =      -0.4003937326001732 [Eh]
	 Opposite-Spin Energy      =      -1.3783847389816766 [Eh]
	 Correlation Energy        =      -1.7787784715818498 [Eh]
	 Total Energy              =    -387.8407468855624529 [Eh]

	 ================> DF-SCS-MP2 Energies <==================
	-----------------------------------------------------------
	 SCS Same-Spin Scale       =       0.3333333333333333 [-]
	 SCS Opposite-Spin Scale   =       1.2000000000000000 [-]
	 SCS Same-Spin Energy      =      -0.1334645775333911 [Eh]
	 SCS Opposite-Spin Energy  =      -1.6540616867780118 [Eh]
	 SCS Correlation Energy    =      -1.7875262643114029 [Eh]
	 SCS Total Energy          =    -387.8494946782919897 [Eh]
	-----------------------------------------------------------

  Dipole Moment: [D]
     X:     1.2111      Y:     0.7386      Z:     0.2478     Total:     1.4400

*** Psi4 exiting successfully. Buy a developer a beer!
