                               Psi4 1.4a2.dev612

  ==> Input File <==

--------------------------------------------------------------------------
#psi4
#
memory 32 gb

molecule  {
0 1
  O        2.6932640    -1.3344870    -0.0264310
  C        2.7508540     0.0254460     0.4069810
  C        1.3606810     0.5764810     0.3953890
  C       -3.5492030     0.3621160    -0.4101590
  C        3.6709050     0.8409920    -0.4958550
  C        0.2704120    -0.1024690    -0.0006590
  C       -2.1631840    -0.2004740    -0.4090490
  C       -1.0635270     0.4697970    -0.0176060
  C       -4.4702810    -0.3835230     0.5583970
  H        3.1361180     0.0688010     1.4404840
  H        1.2861936     1.6594846     0.5845702
  H       -3.5113520     1.4248880    -0.1442750
  H       -3.9713450     0.3050270    -1.4220020
  H        3.3060070     0.7827570    -1.5237190
  H        3.6990520     1.8899320    -0.1870900
  H        4.6948240     0.4527130    -0.4608140
  H        0.3841050    -1.1350190    -0.3229170
  H       -2.0573220    -1.2386810    -0.7303930
  H       -1.1648060     1.5075440     0.3065060
  H       -4.5255200    -1.4457790     0.3033390
  H       -5.4853170     0.0231860     0.5310900
  H       -4.0942820    -0.3029910     1.5815520
  H        3.6028580    -1.6773980    -0.0043180
units angstrom
no_reorient  #important for SAPT in psi4, default
symmetry c1  #important for SAPT in psi4, default
}

set PROPERTIES_ORIGIN ["COM"]
properties('MP2/aug-cc-pvtz', properties = ['dipole'])
--------------------------------------------------------------------------

    Molecular point group: c1
  Charge       = 0
  Multiplicity = 1
  Basis Set: AUG-CC-PVTZ
    Blend: AUG-CC-PVTZ
  Basis Set: (AUG-CC-PVTZ AUX)
    Blend: AUG-CC-PVTZ-JKFIT

    Orbital Energies [Eh]
    ---------------------

    Doubly Occupied:

       1A    -20.558769     2A    -11.286409     3A    -11.226152
       4A    -11.224237     5A    -11.223430     6A    -11.223224
       7A    -11.222333     8A    -11.220781     9A    -11.212834
      10A     -1.360639    11A     -1.097918    12A     -1.061333
      13A     -1.016295    14A     -0.962352    15A     -0.876470
      16A     -0.828699    17A     -0.752614    18A     -0.746846
      19A     -0.695018    20A     -0.637452    21A     -0.628821
      22A     -0.616535    23A     -0.589364    24A     -0.582366
      25A     -0.546560    26A     -0.542130    27A     -0.528162
      28A     -0.518775    29A     -0.500467    30A     -0.492473
      31A     -0.479264    32A     -0.468443    33A     -0.452523
      34A     -0.418195    35A     -0.297548

  @DF-RHF Final Energy:  -386.06118655654660

   => Energetics <=

    Nuclear Repulsion Energy =            417.9879740474543155
    One-Electron Energy =               -1351.9074585732580545
    Two-Electron Energy =                 547.8582979692571371
    Total Energy =                       -386.0611865565465450
  Basis Set: (AUG-CC-PVTZ AUX)
    Blend: AUG-CC-PVTZ-RI
    Molecular point group: c1

    Geometry (in Angstrom), charge = 0, multiplicity = 1:

       Center              X                  Y                   Z               Mass
    ------------   -----------------  -----------------  -----------------  -----------------
         O            2.693098728113    -1.334867333354    -0.025306092278    15.994914619570
         C            2.750688728113     0.025065666646     0.408105907722    12.000000000000
         C            1.360515728113     0.576100666646     0.396513907722    12.000000000000
         C           -3.549368271887     0.361735666646    -0.409034092278    12.000000000000
         C            3.670739728113     0.840611666646    -0.494730092278    12.000000000000
         C            0.270246728113    -0.102849333354     0.000465907722    12.000000000000
         C           -2.163349271887    -0.200854333354    -0.407924092278    12.000000000000
         C           -1.063692271887     0.469416666646    -0.016481092278    12.000000000000
         C           -4.470446271887    -0.383903333354     0.559521907722    12.000000000000
         H            3.135952728113     0.068420666646     1.441608907722     1.007825032230
         H            1.286028328113     1.659104266646     0.585695107722     1.007825032230
         H           -3.511517271887     1.424507666646    -0.143150092278     1.007825032230
         H           -3.971510271887     0.304646666646    -1.420877092278     1.007825032230
         H            3.305841728113     0.782376666646    -1.522594092278     1.007825032230
         H            3.698886728113     1.889551666646    -0.185965092278     1.007825032230
         H            4.694658728113     0.452332666646    -0.459689092278     1.007825032230
         H            0.383939728113    -1.135399333354    -0.321792092278     1.007825032230
         H           -2.057487271887    -1.239061333354    -0.729268092278     1.007825032230
         H           -1.164971271887     1.507163666646     0.307630907722     1.007825032230
         H           -4.525685271887    -1.446159333354     0.304463907722     1.007825032230
         H           -5.485482271887     0.022805666646     0.532214907722     1.007825032230
         H           -4.094447271887    -0.303371333354     1.582676907722     1.007825032230
         H            3.602692728113    -1.677778333354    -0.003193092278     1.007825032230

  Basis Set: AUG-CC-PVTZ
    Blend: AUG-CC-PVTZ
  Basis Set: (AUG-CC-PVTZ AUX)
    Blend: AUG-CC-PVTZ-JKFIT
	 Reference Energy          =    -386.0611865565466019 [Eh]
	 Singles Energy            =      -0.0000000000000000 [Eh]
	 Same-Spin Energy          =      -0.4004418458685421 [Eh]
	 Opposite-Spin Energy      =      -1.3784852254988105 [Eh]
	 Correlation Energy        =      -1.7789270713673526 [Eh]
	 Total Energy              =    -387.8401136279139791 [Eh]

	 ================> DF-SCS-MP2 Energies <==================
	-----------------------------------------------------------
	 SCS Same-Spin Scale       =       0.3333333333333333 [-]
	 SCS Opposite-Spin Scale   =       1.2000000000000000 [-]
	 SCS Same-Spin Energy      =      -0.1334806152895140 [Eh]
	 SCS Opposite-Spin Energy  =      -1.6541822705985725 [Eh]
	 SCS Correlation Energy    =      -1.7876628858880865 [Eh]
	 SCS Total Energy          =    -387.8488494424346982 [Eh]
	-----------------------------------------------------------

  Dipole Moment: [D]
     X:     1.2096      Y:     0.7386      Z:     0.2157     Total:     1.4336

*** Psi4 exiting successfully. Buy a developer a beer!
