                               Psi4 1.4a2.dev612

  ==> Input File <==

--------------------------------------------------------------------------
#psi4
#
memory 32 gb

molecule  {
0 1
  O        2.6932640    -1.3344870    -0.0264310
  C        2.7508540     0.0254460     0.4069810
  C        1.3606810     0.5764810     0.3953890
  C       -3.5492030     0.3621160    -0.4101590
  C        3.6709050     0.8409920    -0.4958550
  C        0.2704120    -0.1024690    -0.0006590
  C       -2.1631840    -0.2004740    -0.4090490
  C       -1.0635270     0.4697970    -0.0176060
  C       -4.4702810    -0.3835230     0.5583970
  H        3.1361180     0.0688010     1.4404840
  H        1.2655190     1.6118880     0.7253080
  H       -3.5113520     1.4248880    -0.1442750
  H       -3.9713450     0.3050270    -1.4220020
  H        3.3060070     0.7827570    -1.5237190
  H        3.6990520     1.8899320    -0.1870900
  H        4.6948240     0.4527130    -0.4608140
  H        0.3767885    -1.1505527    -0.2759577
  H       -2.0573220    -1.2386810    -0.7303930
  H       -1.1648060     1.5075440     0.3065060
  H       -4.5255200    -1.4457790     0.3033390
  H       -5.4853170     0.0231860     0.5310900
  H       -4.0942820    -0.3029910     1.5815520
  H        3.6028580    -1.6773980    -0.0043180
units angstrom
no_reorient  #important for SAPT in psi4, default
symmetry c1  #important for SAPT in psi4, default
}

set PROPERTIES_ORIGIN ["COM"]
properties('MP2/aug-cc-pvtz', properties = ['dipole'])
--------------------------------------------------------------------------

    Molecular point group: c1
  Charge       = 0
  Multiplicity = 1
  Basis Set: AUG-CC-PVTZ
    Blend: AUG-CC-PVTZ
  Basis Set: (AUG-CC-PVTZ AUX)
    Blend: AUG-CC-PVTZ-JKFIT

    Orbital Energies [Eh]
    ---------------------

    Doubly Occupied:

       1A    -20.558685     2A    -11.286482     3A    -11.225899
       4A    -11.223693     5A    -11.223239     6A    -11.222980
       7A    -11.221822     8A    -11.220524     9A    -11.212807
      10A     -1.360579    11A     -1.097816    12A     -1.061309
      13A     -1.016123    14A     -0.962463    15A     -0.876577
      16A     -0.828522    17A     -0.752402    18A     -0.747909
      19A     -0.695269    20A     -0.637294    21A     -0.628057
      22A     -0.616612    23A     -0.589917    24A     -0.582759
      25A     -0.546425    26A     -0.543815    27A     -0.527425
      28A     -0.518562    29A     -0.500754    30A     -0.492292
      31A     -0.479122    32A     -0.467879    33A     -0.452978
      34A     -0.418182    35A     -0.297467

  @DF-RHF Final Energy:  -386.06241637391821

   => Energetics <=

    Nuclear Repulsion Energy =            417.9915426221539860
    One-Electron Energy =               -1351.9186311525995734
    Two-Electron Energy =                 547.8646721565273765
    Total Energy =                       -386.0624163739182677
  Basis Set: (AUG-CC-PVTZ AUX)
    Blend: AUG-CC-PVTZ-RI
    Molecular point group: c1

    Geometry (in Angstrom), charge = 0, multiplicity = 1:

       Center              X                  Y                   Z               Mass
    ------------   -----------------  -----------------  -----------------  -----------------
         O            2.693322432573    -1.334362796924    -0.026806164743    15.994914619570
         C            2.750912432573     0.025570203076     0.406605835257    12.000000000000
         C            1.360739432573     0.576605203076     0.395013835257    12.000000000000
         C           -3.549144567427     0.362240203076    -0.410534164743    12.000000000000
         C            3.670963432573     0.841116203076    -0.496230164743    12.000000000000
         C            0.270470432573    -0.102344796924    -0.001034164743    12.000000000000
         C           -2.163125567427    -0.200349796924    -0.409424164743    12.000000000000
         C           -1.063468567427     0.469921203076    -0.017981164743    12.000000000000
         C           -4.470222567427    -0.383398796924     0.558021835257    12.000000000000
         H            3.136176432573     0.068925203076     1.440108835257     1.007825032230
         H            1.265577432573     1.612012203076     0.724932835257     1.007825032230
         H           -3.511293567427     1.425012203076    -0.144650164743     1.007825032230
         H           -3.971286567427     0.305151203076    -1.422377164743     1.007825032230
         H            3.306065432573     0.782881203076    -1.524094164743     1.007825032230
         H            3.699110432573     1.890056203076    -0.187465164743     1.007825032230
         H            4.694882432573     0.452837203076    -0.461189164743     1.007825032230
         H            0.376846932573    -1.150428496924    -0.276332864743     1.007825032230
         H           -2.057263567427    -1.238556796924    -0.730768164743     1.007825032230
         H           -1.164747567427     1.507668203076     0.306130835257     1.007825032230
         H           -4.525461567427    -1.445654796924     0.302963835257     1.007825032230
         H           -5.485258567427     0.023310203076     0.530714835257     1.007825032230
         H           -4.094223567427    -0.302866796924     1.581176835257     1.007825032230
         H            3.602916432573    -1.677273796924    -0.004693164743     1.007825032230

  Basis Set: AUG-CC-PVTZ
    Blend: AUG-CC-PVTZ
  Basis Set: (AUG-CC-PVTZ AUX)
    Blend: AUG-CC-PVTZ-JKFIT
	 Reference Energy          =    -386.0624163739182109 [Eh]
	 Singles Energy            =      -0.0000000000000000 [Eh]
	 Same-Spin Energy          =      -0.4003640071199898 [Eh]
	 Opposite-Spin Energy      =      -1.3783480235933663 [Eh]
	 Correlation Energy        =      -1.7787120307133559 [Eh]
	 Total Energy              =    -387.8411284046315473 [Eh]

	 ================> DF-SCS-MP2 Energies <==================
	-----------------------------------------------------------
	 SCS Same-Spin Scale       =       0.3333333333333333 [-]
	 SCS Opposite-Spin Scale   =       1.2000000000000000 [-]
	 SCS Same-Spin Energy      =      -0.1334546690399966 [Eh]
	 SCS Opposite-Spin Energy  =      -1.6540176283120396 [Eh]
	 SCS Correlation Energy    =      -1.7874722973520361 [Eh]
	 SCS Total Energy          =    -387.8498886712702642 [Eh]
	-----------------------------------------------------------

  Dipole Moment: [D]
     X:     1.2009      Y:     0.7204      Z:     0.3382     Total:     1.4406

*** Psi4 exiting successfully. Buy a developer a beer!
