                               Psi4 1.4a2.dev612

  ==> Input File <==

--------------------------------------------------------------------------
#psi4
#
memory 32 gb

molecule  {
0 1
  O        2.6932640    -1.3344870    -0.0264310
  C        2.7508540     0.0254460     0.4069810
  C        1.3606810     0.5764810     0.3953890
  C       -3.5492030     0.3621160    -0.4101590
  C        3.6709050     0.8409920    -0.4958550
  C        0.2704120    -0.1024690    -0.0006590
  C       -2.1631840    -0.2004740    -0.4090490
  C       -1.0635270     0.4697970    -0.0176060
  C       -4.4702810    -0.3835230     0.5583970
  H        3.1361180     0.0688010     1.4404840
  H        1.2999766     1.6912157     0.4907450
  H       -3.5113520     1.4248880    -0.1442750
  H       -3.9713450     0.3050270    -1.4220020
  H        3.3060070     0.7827570    -1.5237190
  H        3.6990520     1.8899320    -0.1870900
  H        4.6948240     0.4527130    -0.4608140
  H        0.3841050    -1.1350190    -0.3229170
  H       -2.0573220    -1.2386810    -0.7303930
  H       -1.1648060     1.5075440     0.3065060
  H       -4.5255200    -1.4457790     0.3033390
  H       -5.4853170     0.0231860     0.5310900
  H       -4.0942820    -0.3029910     1.5815520
  H        3.6028580    -1.6773980    -0.0043180
units angstrom
no_reorient  #important for SAPT in psi4, default
symmetry c1  #important for SAPT in psi4, default
}

set PROPERTIES_ORIGIN ["COM"]
properties('MP2/aug-cc-pvtz', properties = ['dipole'])
--------------------------------------------------------------------------

    Molecular point group: c1
  Charge       = 0
  Multiplicity = 1
  Basis Set: AUG-CC-PVTZ
    Blend: AUG-CC-PVTZ
  Basis Set: (AUG-CC-PVTZ AUX)
    Blend: AUG-CC-PVTZ-JKFIT

    Orbital Energies [Eh]
    ---------------------

    Doubly Occupied:

       1A    -20.558809     2A    -11.286305     3A    -11.226570
       4A    -11.225582     5A    -11.223840     6A    -11.223561
       7A    -11.223048     8A    -11.220818     9A    -11.212981
      10A     -1.360671    11A     -1.098054    12A     -1.061255
      13A     -1.016454    14A     -0.962271    15A     -0.876398
      16A     -0.828875    17A     -0.752818    18A     -0.744651
      19A     -0.694827    20A     -0.637612    21A     -0.629231
      22A     -0.616463    23A     -0.589092    24A     -0.581650
      25A     -0.546458    26A     -0.540539    27A     -0.528578
      28A     -0.518750    29A     -0.499933    30A     -0.492583
      31A     -0.479482    32A     -0.468897    33A     -0.451859
      34A     -0.418046    35A     -0.297671

  @DF-RHF Final Energy:  -386.05851896140257

   => Energetics <=

    Nuclear Repulsion Energy =            417.9377558866191293
    One-Electron Energy =               -1351.8032879437525935
    Two-Electron Energy =                 547.8070130957308947
    Total Energy =                       -386.0585189614025694
  Basis Set: (AUG-CC-PVTZ AUX)
    Blend: AUG-CC-PVTZ-RI
    Molecular point group: c1

    Geometry (in Angstrom), charge = 0, multiplicity = 1:

       Center              X                  Y                   Z               Mass
    ------------   -----------------  -----------------  -----------------  -----------------
         O            2.692988574580    -1.335120927839    -0.024556242658    15.994914619570
         C            2.750578574580     0.024812072161     0.408855757342    12.000000000000
         C            1.360405574580     0.575847072161     0.397263757342    12.000000000000
         C           -3.549478425420     0.361482072161    -0.408284242658    12.000000000000
         C            3.670629574580     0.840358072161    -0.493980242658    12.000000000000
         C            0.270136574580    -0.103102927839     0.001215757342    12.000000000000
         C           -2.163459425420    -0.201107927839    -0.407174242658    12.000000000000
         C           -1.063802425420     0.469163072161    -0.015731242658    12.000000000000
         C           -4.470556425420    -0.384156927839     0.560271757342    12.000000000000
         H            3.135842574580     0.068167072161     1.442358757342     1.007825032230
         H            1.299701174580     1.690581772161     0.492619757342     1.007825032230
         H           -3.511627425420     1.424254072161    -0.142400242658     1.007825032230
         H           -3.971620425420     0.304393072161    -1.420127242658     1.007825032230
         H            3.305731574580     0.782123072161    -1.521844242658     1.007825032230
         H            3.698776574580     1.889298072161    -0.185215242658     1.007825032230
         H            4.694548574580     0.452079072161    -0.458939242658     1.007825032230
         H            0.383829574580    -1.135652927839    -0.321042242658     1.007825032230
         H           -2.057597425420    -1.239314927839    -0.728518242658     1.007825032230
         H           -1.165081425420     1.506910072161     0.308380757342     1.007825032230
         H           -4.525795425420    -1.446412927839     0.305213757342     1.007825032230
         H           -5.485592425420     0.022552072161     0.532964757342     1.007825032230
         H           -4.094557425420    -0.303624927839     1.583426757342     1.007825032230
         H            3.602582574580    -1.678031927839    -0.002443242658     1.007825032230

  Basis Set: AUG-CC-PVTZ
    Blend: AUG-CC-PVTZ
  Basis Set: (AUG-CC-PVTZ AUX)
    Blend: AUG-CC-PVTZ-JKFIT
	 Reference Energy          =    -386.0585189614025694 [Eh]
	 Singles Energy            =      -0.0000000000000000 [Eh]
	 Same-Spin Energy          =      -0.4005877570571665 [Eh]
	 Opposite-Spin Energy      =      -1.3788307146932475 [Eh]
	 Correlation Energy        =      -1.7794184717504140 [Eh]
	 Total Energy              =    -387.8379374331530016 [Eh]

	 ================> DF-SCS-MP2 Energies <==================
	-----------------------------------------------------------
	 SCS Same-Spin Scale       =       0.3333333333333333 [-]
	 SCS Opposite-Spin Scale   =       1.2000000000000000 [-]
	 SCS Same-Spin Energy      =      -0.1335292523523888 [Eh]
	 SCS Opposite-Spin Energy  =      -1.6545968576318970 [Eh]
	 SCS Correlation Energy    =      -1.7881261099842858 [Eh]
	 SCS Total Energy          =    -387.8466450713868312 [Eh]
	-----------------------------------------------------------

  Dipole Moment: [D]
     X:     1.1989      Y:     0.7290      Z:     0.1496     Total:     1.4111

*** Psi4 exiting successfully. Buy a developer a beer!
