                               Psi4 1.4a2.dev612

  ==> Input File <==

--------------------------------------------------------------------------
#psi4
#
memory 32 gb

molecule  {
0 1
  O        2.6932640    -1.3344870    -0.0264310
  C        2.7508540     0.0254460     0.4069810
  C        1.3606810     0.5764810     0.3953890
  C       -3.5492030     0.3621160    -0.4101590
  C        3.6709050     0.8409920    -0.4958550
  C        0.2704120    -0.1024690    -0.0006590
  C       -2.1631840    -0.2004740    -0.4090490
  C       -1.0635270     0.4697970    -0.0176060
  C       -4.4702810    -0.3835230     0.5583970
  H        3.1361180     0.0688010     1.4404840
  H        1.2655190     1.6118880     0.7253080
  H       -3.5113520     1.4248880    -0.1442750
  H       -3.9713450     0.3050270    -1.4220020
  H        3.3060070     0.7827570    -1.5237190
  H        3.6990520     1.8899320    -0.1870900
  H        4.6948240     0.4527130    -0.4608140
  H        0.3841050    -1.1350190    -0.3229170
  H       -2.0573220    -1.2386810    -0.7303930
  H       -1.1357464     1.5693140     0.1185166
  H       -4.5255200    -1.4457790     0.3033390
  H       -5.4853170     0.0231860     0.5310900
  H       -4.0942820    -0.3029910     1.5815520
  H        3.6028580    -1.6773980    -0.0043180
units angstrom
no_reorient  #important for SAPT in psi4, default
symmetry c1  #important for SAPT in psi4, default
}

set PROPERTIES_ORIGIN ["COM"]
properties('MP2/aug-cc-pvtz', properties = ['dipole'])
--------------------------------------------------------------------------

    Molecular point group: c1
  Charge       = 0
  Multiplicity = 1
  Basis Set: AUG-CC-PVTZ
    Blend: AUG-CC-PVTZ
  Basis Set: (AUG-CC-PVTZ AUX)
    Blend: AUG-CC-PVTZ-JKFIT

    Orbital Energies [Eh]
    ---------------------

    Doubly Occupied:

       1A    -20.558658     2A    -11.286421     3A    -11.226828
       4A    -11.224861     5A    -11.223388     6A    -11.223311
       7A    -11.221711     8A    -11.220579     9A    -11.212955
      10A     -1.360556    11A     -1.097658    12A     -1.061379
      13A     -1.016059    14A     -0.962472    15A     -0.876562
      16A     -0.828438    17A     -0.751550    18A     -0.746814
      19A     -0.694851    20A     -0.637047    21A     -0.627777
      22A     -0.616509    23A     -0.589065    24A     -0.583258
      25A     -0.546529    26A     -0.543959    27A     -0.526308
      28A     -0.519093    29A     -0.499753    30A     -0.492599
      31A     -0.478957    32A     -0.468327    33A     -0.452553
      34A     -0.416843    35A     -0.297610

  @DF-RHF Final Energy:  -386.05994908427999

   => Energetics <=

    Nuclear Repulsion Energy =            417.9146456912617396
    One-Electron Energy =               -1351.7667082722348368
    Two-Electron Energy =                 547.7921134966931049
    Total Energy =                       -386.0599490842799923
  Basis Set: (AUG-CC-PVTZ AUX)
    Blend: AUG-CC-PVTZ-RI
    Molecular point group: c1

    Geometry (in Angstrom), charge = 0, multiplicity = 1:

       Center              X                  Y                   Z               Mass
    ------------   -----------------  -----------------  -----------------  -----------------
         O            2.693031715316    -1.334980606959    -0.024928458185    15.994914619570
         C            2.750621715316     0.024952393041     0.408483541815    12.000000000000
         C            1.360448715316     0.575987393041     0.396891541815    12.000000000000
         C           -3.549435284684     0.361622393041    -0.408656458185    12.000000000000
         C            3.670672715316     0.840498393041    -0.494352458185    12.000000000000
         C            0.270179715316    -0.102962606959     0.000843541815    12.000000000000
         C           -2.163416284684    -0.200967606959    -0.407546458185    12.000000000000
         C           -1.063759284684     0.469303393041    -0.016103458185    12.000000000000
         C           -4.470513284684    -0.384016606959     0.559899541815    12.000000000000
         H            3.135885715316     0.068307393041     1.441986541815     1.007825032230
         H            1.265286715316     1.611394393041     0.726810541815     1.007825032230
         H           -3.511584284684     1.424394393041    -0.142772458185     1.007825032230
         H           -3.971577284684     0.304533393041    -1.420499458185     1.007825032230
         H            3.305774715316     0.782263393041    -1.522216458185     1.007825032230
         H            3.698819715316     1.889438393041    -0.185587458185     1.007825032230
         H            4.694591715316     0.452219393041    -0.459311458185     1.007825032230
         H            0.383872715316    -1.135512606959    -0.321414458185     1.007825032230
         H           -2.057554284684    -1.239174606959    -0.728890458185     1.007825032230
         H           -1.135978684684     1.568820393041     0.120019141815     1.007825032230
         H           -4.525752284684    -1.446272606959     0.304841541815     1.007825032230
         H           -5.485549284684     0.022692393041     0.532592541815     1.007825032230
         H           -4.094514284684    -0.303484606959     1.583054541815     1.007825032230
         H            3.602625715316    -1.677891606959    -0.002815458185     1.007825032230

  Basis Set: AUG-CC-PVTZ
    Blend: AUG-CC-PVTZ
  Basis Set: (AUG-CC-PVTZ AUX)
    Blend: AUG-CC-PVTZ-JKFIT
	 Reference Energy          =    -386.0599490842799923 [Eh]
	 Singles Energy            =      -0.0000000000000000 [Eh]
	 Same-Spin Energy          =      -0.4004914553175279 [Eh]
	 Opposite-Spin Energy      =      -1.3786538869023017 [Eh]
	 Correlation Energy        =      -1.7791453422198296 [Eh]
	 Total Energy              =    -387.8390944264997984 [Eh]

	 ================> DF-SCS-MP2 Energies <==================
	-----------------------------------------------------------
	 SCS Same-Spin Scale       =       0.3333333333333333 [-]
	 SCS Opposite-Spin Scale   =       1.2000000000000000 [-]
	 SCS Same-Spin Energy      =      -0.1334971517725093 [Eh]
	 SCS Opposite-Spin Energy  =      -1.6543846642827620 [Eh]
	 SCS Correlation Energy    =      -1.7878818160552714 [Eh]
	 SCS Total Energy          =    -387.8478309003352820 [Eh]
	-----------------------------------------------------------

  Dipole Moment: [D]
     X:     1.2188      Y:     0.7417      Z:     0.1939     Total:     1.4399

*** Psi4 exiting successfully. Buy a developer a beer!
