                               Psi4 1.4a2.dev612

  ==> Input File <==

--------------------------------------------------------------------------
#psi4
#
memory 32 gb

molecule  {
0 1
  O        2.6932640    -1.3344870    -0.0264310
  C        2.7508540     0.0254460     0.4069810
  C        1.3606810     0.5764810     0.3953890
  C       -3.5492030     0.3621160    -0.4101590
  C        3.6709050     0.8409920    -0.4958550
  C        0.2704120    -0.1024690    -0.0006590
  C       -2.1631840    -0.2004740    -0.4090490
  C       -1.0635270     0.4697970    -0.0176060
  C       -4.4702810    -0.3835230     0.5583970
  H        3.1361180     0.0688010     1.4404840
  H        1.2655190     1.6118880     0.7253080
  H       -3.5113520     1.4248880    -0.1442750
  H       -3.9713450     0.3050270    -1.4220020
  H        3.3060070     0.7827570    -1.5237190
  H        3.6990520     1.8899320    -0.1870900
  H        4.6948240     0.4527130    -0.4608140
  H        0.3841050    -1.1350190    -0.3229170
  H       -2.0303529    -1.1759421    -0.9183731
  H       -1.1648060     1.5075440     0.3065060
  H       -4.5255200    -1.4457790     0.3033390
  H       -5.4853170     0.0231860     0.5310900
  H       -4.0942820    -0.3029910     1.5815520
  H        3.6028580    -1.6773980    -0.0043180
units angstrom
no_reorient  #important for SAPT in psi4, default
symmetry c1  #important for SAPT in psi4, default
}

set PROPERTIES_ORIGIN ["COM"]
properties('MP2/aug-cc-pvtz', properties = ['dipole'])
--------------------------------------------------------------------------

    Molecular point group: c1
  Charge       = 0
  Multiplicity = 1
  Basis Set: AUG-CC-PVTZ
    Blend: AUG-CC-PVTZ
  Basis Set: (AUG-CC-PVTZ AUX)
    Blend: AUG-CC-PVTZ-JKFIT

    Orbital Energies [Eh]
    ---------------------

    Doubly Occupied:

       1A    -20.558837     2A    -11.286690     3A    -11.227366
       4A    -11.224165     5A    -11.223581     6A    -11.223066
       7A    -11.222043     8A    -11.220803     9A    -11.212170
      10A     -1.360745    11A     -1.097766    12A     -1.061189
      13A     -1.016209    14A     -0.962488    15A     -0.876703
      16A     -0.828471    17A     -0.749836    18A     -0.747929
      19A     -0.695147    20A     -0.637004    21A     -0.628601
      22A     -0.616907    23A     -0.590351    24A     -0.581486
      25A     -0.546657    26A     -0.544615    27A     -0.527184
      28A     -0.518218    29A     -0.500647    30A     -0.492764
      31A     -0.476609    32A     -0.467623    33A     -0.453021
      34A     -0.418045    35A     -0.297493

  @DF-RHF Final Energy:  -386.06015609014236

   => Energetics <=

    Nuclear Repulsion Energy =            417.8928554345596353
    One-Electron Energy =               -1351.7211619004440308
    Two-Electron Energy =                 547.7681503757421524
    Total Energy =                       -386.0601560901422999
  Basis Set: (AUG-CC-PVTZ AUX)
    Blend: AUG-CC-PVTZ-RI
    Molecular point group: c1

    Geometry (in Angstrom), charge = 0, multiplicity = 1:

       Center              X                  Y                   Z               Mass
    ------------   -----------------  -----------------  -----------------  -----------------
         O            2.693048422562    -1.334988350393    -0.024928532510    15.994914619570
         C            2.750638422562     0.024944649607     0.408483467490    12.000000000000
         C            1.360465422562     0.575979649607     0.396891467490    12.000000000000
         C           -3.549418577438     0.361614649607    -0.408656532510    12.000000000000
         C            3.670689422562     0.840490649607    -0.494352532510    12.000000000000
         C            0.270196422562    -0.102970350393     0.000843467490    12.000000000000
         C           -2.163399577438    -0.200975350393    -0.407546532510    12.000000000000
         C           -1.063742577438     0.469295649607    -0.016103532510    12.000000000000
         C           -4.470496577438    -0.384024350393     0.559899467490    12.000000000000
         H            3.135902422562     0.068299649607     1.441986467490     1.007825032230
         H            1.265303422562     1.611386649607     0.726810467490     1.007825032230
         H           -3.511567577438     1.424386649607    -0.142772532510     1.007825032230
         H           -3.971560577438     0.304525649607    -1.420499532510     1.007825032230
         H            3.305791422562     0.782255649607    -1.522216532510     1.007825032230
         H            3.698836422562     1.889430649607    -0.185587532510     1.007825032230
         H            4.694608422562     0.452211649607    -0.459311532510     1.007825032230
         H            0.383889422562    -1.135520350393    -0.321414532510     1.007825032230
         H           -2.030568477438    -1.176443450393    -0.916870632510     1.007825032230
         H           -1.165021577438     1.507042649607     0.308008467490     1.007825032230
         H           -4.525735577438    -1.446280350393     0.304841467490     1.007825032230
         H           -5.485532577438     0.022684649607     0.532592467490     1.007825032230
         H           -4.094497577438    -0.303492350393     1.583054467490     1.007825032230
         H            3.602642422562    -1.677899350393    -0.002815532510     1.007825032230

  Basis Set: AUG-CC-PVTZ
    Blend: AUG-CC-PVTZ
  Basis Set: (AUG-CC-PVTZ AUX)
    Blend: AUG-CC-PVTZ-JKFIT
	 Reference Energy          =    -386.0601560901423568 [Eh]
	 Singles Energy            =      -0.0000000000000000 [Eh]
	 Same-Spin Energy          =      -0.4004569378787360 [Eh]
	 Opposite-Spin Energy      =      -1.3786380361003712 [Eh]
	 Correlation Energy        =      -1.7790949739791073 [Eh]
	 Total Energy              =    -387.8392510641214699 [Eh]

	 ================> DF-SCS-MP2 Energies <==================
	-----------------------------------------------------------
	 SCS Same-Spin Scale       =       0.3333333333333333 [-]
	 SCS Opposite-Spin Scale   =       1.2000000000000000 [-]
	 SCS Same-Spin Energy      =      -0.1334856459595787 [Eh]
	 SCS Opposite-Spin Energy  =      -1.6543656433204454 [Eh]
	 SCS Correlation Energy    =      -1.7878512892800242 [Eh]
	 SCS Total Energy          =    -387.8480073794223699 [Eh]
	-----------------------------------------------------------

  Dipole Moment: [D]
     X:     1.2555      Y:     0.7837      Z:     0.2022     Total:     1.4938

*** Psi4 exiting successfully. Buy a developer a beer!
