                               Psi4 1.4a2.dev612

  ==> Input File <==

--------------------------------------------------------------------------
#psi4
#
memory 32 gb

molecule  {
0 1
  O        2.6932640    -1.3344870    -0.0264310
  C        2.7508540     0.0254460     0.4069810
  C        1.3606810     0.5764810     0.3953890
  C       -3.5492030     0.3621160    -0.4101590
  C        3.6709050     0.8409920    -0.4958550
  C        0.2704120    -0.1024690    -0.0006590
  C       -2.1631840    -0.2004740    -0.4090490
  C       -1.0635270     0.4697970    -0.0176060
  C       -4.4702810    -0.3835230     0.5583970
  H        3.1361180     0.0688010     1.4404840
  H        1.2655190     1.6118880     0.7253080
  H       -3.5113520     1.4248880    -0.1442750
  H       -3.9713450     0.3050270    -1.4220020
  H        3.3060070     0.7827570    -1.5237190
  H        3.6990520     1.8899320    -0.1870900
  H        4.6948240     0.4527130    -0.4608140
  H        0.3841050    -1.1350190    -0.3229170
  H       -2.0573220    -1.2386810    -0.7303930
  H       -1.1430113     1.5538715     0.1655140
  H       -4.5255200    -1.4457790     0.3033390
  H       -5.4853170     0.0231860     0.5310900
  H       -4.0942820    -0.3029910     1.5815520
  H        3.6028580    -1.6773980    -0.0043180
units angstrom
no_reorient  #important for SAPT in psi4, default
symmetry c1  #important for SAPT in psi4, default
}

set PROPERTIES_ORIGIN ["COM"]
properties('MP2/aug-cc-pvtz', properties = ['dipole'])
--------------------------------------------------------------------------

    Molecular point group: c1
  Charge       = 0
  Multiplicity = 1
  Basis Set: AUG-CC-PVTZ
    Blend: AUG-CC-PVTZ
  Basis Set: (AUG-CC-PVTZ AUX)
    Blend: AUG-CC-PVTZ-JKFIT

    Orbital Energies [Eh]
    ---------------------

    Doubly Occupied:

       1A    -20.558670     2A    -11.286442     3A    -11.226427
       4A    -11.224219     5A    -11.223334     6A    -11.223264
       7A    -11.221726     8A    -11.220576     9A    -11.212881
      10A     -1.360568    11A     -1.097727    12A     -1.061347
      13A     -1.016091    14A     -0.962470    15A     -0.876567
      16A     -0.828462    17A     -0.751870    18A     -0.747393
      19A     -0.695033    20A     -0.637165    21A     -0.627821
      22A     -0.616585    23A     -0.589392    24A     -0.583180
      25A     -0.546539    26A     -0.543915    27A     -0.526648
      28A     -0.518999    29A     -0.500004    30A     -0.492590
      31A     -0.478975    32A     -0.468197    33A     -0.452702
      34A     -0.417478    35A     -0.297551

  @DF-RHF Final Energy:  -386.06112989523075

   => Energetics <=

    Nuclear Repulsion Energy =            417.9490155849387634
    One-Electron Energy =               -1351.8346783994199996
    Two-Electron Energy =                 547.8245329192506006
    Total Energy =                       -386.0611298952306925
  Basis Set: (AUG-CC-PVTZ AUX)
    Blend: AUG-CC-PVTZ-RI
    Molecular point group: c1

    Geometry (in Angstrom), charge = 0, multiplicity = 1:

       Center              X                  Y                   Z               Mass
    ------------   -----------------  -----------------  -----------------  -----------------
         O            2.693089776290    -1.334857190726    -0.025304060715    15.994914619570
         C            2.750679776290     0.025075809274     0.408107939285    12.000000000000
         C            1.360506776290     0.576110809274     0.396515939285    12.000000000000
         C           -3.549377223710     0.361745809274    -0.409032060715    12.000000000000
         C            3.670730776290     0.840621809274    -0.494728060715    12.000000000000
         C            0.270237776290    -0.102839190726     0.000467939285    12.000000000000
         C           -2.163358223710    -0.200844190726    -0.407922060715    12.000000000000
         C           -1.063701223710     0.469426809274    -0.016479060715    12.000000000000
         C           -4.470455223710    -0.383893190726     0.559523939285    12.000000000000
         H            3.135943776290     0.068430809274     1.441610939285     1.007825032230
         H            1.265344776290     1.611517809274     0.726434939285     1.007825032230
         H           -3.511526223710     1.424517809274    -0.143148060715     1.007825032230
         H           -3.971519223710     0.304656809274    -1.420875060715     1.007825032230
         H            3.305832776290     0.782386809274    -1.522592060715     1.007825032230
         H            3.698877776290     1.889561809274    -0.185963060715     1.007825032230
         H            4.694649776290     0.452342809274    -0.459687060715     1.007825032230
         H            0.383930776290    -1.135389190726    -0.321790060715     1.007825032230
         H           -2.057496223710    -1.239051190726    -0.729266060715     1.007825032230
         H           -1.143185523710     1.553501309274     0.166640939285     1.007825032230
         H           -4.525694223710    -1.446149190726     0.304465939285     1.007825032230
         H           -5.485491223710     0.022815809274     0.532216939285     1.007825032230
         H           -4.094456223710    -0.303361190726     1.582678939285     1.007825032230
         H            3.602683776290    -1.677768190726    -0.003191060715     1.007825032230

  Basis Set: AUG-CC-PVTZ
    Blend: AUG-CC-PVTZ
  Basis Set: (AUG-CC-PVTZ AUX)
    Blend: AUG-CC-PVTZ-JKFIT
	 Reference Energy          =    -386.0611298952307493 [Eh]
	 Singles Energy            =      -0.0000000000000000 [Eh]
	 Same-Spin Energy          =      -0.4004315161618031 [Eh]
	 Opposite-Spin Energy      =      -1.3785058676629902 [Eh]
	 Correlation Energy        =      -1.7789373838247933 [Eh]
	 Total Energy              =    -387.8400672790555177 [Eh]

	 ================> DF-SCS-MP2 Energies <==================
	-----------------------------------------------------------
	 SCS Same-Spin Scale       =       0.3333333333333333 [-]
	 SCS Opposite-Spin Scale   =       1.2000000000000000 [-]
	 SCS Same-Spin Energy      =      -0.1334771720539344 [Eh]
	 SCS Opposite-Spin Energy  =      -1.6542070411955883 [Eh]
	 SCS Correlation Energy    =      -1.7876842132495225 [Eh]
	 SCS Total Energy          =    -387.8488141084802692 [Eh]
	-----------------------------------------------------------

  Dipole Moment: [D]
     X:     1.2161      Y:     0.7426      Z:     0.2236     Total:     1.4424

*** Psi4 exiting successfully. Buy a developer a beer!
