                               Psi4 1.4a2.dev612

  ==> Input File <==

--------------------------------------------------------------------------
#psi4
#
memory 32 gb

molecule  {
0 1
  O        2.6932640    -1.3344870    -0.0264310
  C        2.7508540     0.0254460     0.4069810
  C        1.3606810     0.5764810     0.3953890
  C       -3.5492030     0.3621160    -0.4101590
  C        3.6709050     0.8409920    -0.4958550
  C        0.2704120    -0.1024690    -0.0006590
  C       -2.1631840    -0.2004740    -0.4090490
  C       -1.0635270     0.4697970    -0.0176060
  C       -4.4702810    -0.3835230     0.5583970
  H        3.1361180     0.0688010     1.4404840
  H        1.2655190     1.6118880     0.7253080
  H       -3.5113520     1.4248880    -0.1442750
  H       -3.9713450     0.3050270    -1.4220020
  H        3.3060070     0.7827570    -1.5237190
  H        3.6990520     1.8899320    -0.1870900
  H        4.6948240     0.4527130    -0.4608140
  H        0.3402060    -1.2282214    -0.0411615
  H       -2.0573220    -1.2386810    -0.7303930
  H       -1.1648060     1.5075440     0.3065060
  H       -4.5255200    -1.4457790     0.3033390
  H       -5.4853170     0.0231860     0.5310900
  H       -4.0942820    -0.3029910     1.5815520
  H        3.6028580    -1.6773980    -0.0043180
units angstrom
no_reorient  #important for SAPT in psi4, default
symmetry c1  #important for SAPT in psi4, default
}

set PROPERTIES_ORIGIN ["COM"]
properties('MP2/aug-cc-pvtz', properties = ['dipole'])
--------------------------------------------------------------------------

    Molecular point group: c1
  Charge       = 0
  Multiplicity = 1
  Basis Set: AUG-CC-PVTZ
    Blend: AUG-CC-PVTZ
  Basis Set: (AUG-CC-PVTZ AUX)
    Blend: AUG-CC-PVTZ-JKFIT

    Orbital Energies [Eh]
    ---------------------

    Doubly Occupied:

       1A    -20.558577     2A    -11.286870     3A    -11.226787
       4A    -11.225652     5A    -11.223915     6A    -11.223124
       7A    -11.222847     8A    -11.220728     9A    -11.212792
      10A     -1.360480    11A     -1.097405    12A     -1.061388
      13A     -1.015946    14A     -0.962485    15A     -0.876375
      16A     -0.828323    17A     -0.752351    18A     -0.743411
      19A     -0.695225    20A     -0.635165    21A     -0.628448
      22A     -0.616015    23A     -0.589223    24A     -0.582518
      25A     -0.545689    26A     -0.544103    27A     -0.527565
      28A     -0.517614    29A     -0.499744    30A     -0.491426
      31A     -0.479034    32A     -0.467891    33A     -0.452599
      34A     -0.414691    35A     -0.297626

  @DF-RHF Final Energy:  -386.05600648109368

   => Energetics <=

    Nuclear Repulsion Energy =            417.8108131994277414
    One-Electron Energy =               -1351.5655753287485368
    Two-Electron Energy =                 547.6987556482272339
    Total Energy =                       -386.0560064810936183
  Basis Set: (AUG-CC-PVTZ AUX)
    Blend: AUG-CC-PVTZ-RI
    Molecular point group: c1

    Geometry (in Angstrom), charge = 0, multiplicity = 1:

       Center              X                  Y                   Z               Mass
    ------------   -----------------  -----------------  -----------------  -----------------
         O            2.693614799376    -1.333742069815    -0.028682652524    15.994914619570
         C            2.751204799376     0.026190930185     0.404729347476    12.000000000000
         C            1.361031799376     0.577225930185     0.393137347476    12.000000000000
         C           -3.548852200624     0.362860930185    -0.412410652524    12.000000000000
         C            3.671255799376     0.841736930185    -0.498106652524    12.000000000000
         C            0.270762799376    -0.101724069815    -0.002910652524    12.000000000000
         C           -2.162833200624    -0.199729069815    -0.411300652524    12.000000000000
         C           -1.063176200624     0.470541930185    -0.019857652524    12.000000000000
         C           -4.469930200624    -0.382778069815     0.556145347476    12.000000000000
         H            3.136468799376     0.069545930185     1.438232347476     1.007825032230
         H            1.265869799376     1.612632930185     0.723056347476     1.007825032230
         H           -3.511001200624     1.425632930185    -0.146526652524     1.007825032230
         H           -3.970994200624     0.305771930185    -1.424253652524     1.007825032230
         H            3.306357799376     0.783501930185    -1.525970652524     1.007825032230
         H            3.699402799376     1.890676930185    -0.189341652524     1.007825032230
         H            4.695174799376     0.453457930185    -0.463065652524     1.007825032230
         H            0.340556799376    -1.227476469815    -0.043413152524     1.007825032230
         H           -2.056971200624    -1.237936069815    -0.732644652524     1.007825032230
         H           -1.164455200624     1.508288930185     0.304254347476     1.007825032230
         H           -4.525169200624    -1.445034069815     0.301087347476     1.007825032230
         H           -5.484966200624     0.023930930185     0.528838347476     1.007825032230
         H           -4.093931200624    -0.302246069815     1.579300347476     1.007825032230
         H            3.603208799376    -1.676653069815    -0.006569652524     1.007825032230

  Basis Set: AUG-CC-PVTZ
    Blend: AUG-CC-PVTZ
  Basis Set: (AUG-CC-PVTZ AUX)
    Blend: AUG-CC-PVTZ-JKFIT
	 Reference Energy          =    -386.0560064810936751 [Eh]
	 Singles Energy            =      -0.0000000000000000 [Eh]
	 Same-Spin Energy          =      -0.4007159388820177 [Eh]
	 Opposite-Spin Energy      =      -1.3791391693362056 [Eh]
	 Correlation Energy        =      -1.7798551082182232 [Eh]
	 Total Energy              =    -387.8358615893118895 [Eh]

	 ================> DF-SCS-MP2 Energies <==================
	-----------------------------------------------------------
	 SCS Same-Spin Scale       =       0.3333333333333333 [-]
	 SCS Opposite-Spin Scale   =       1.2000000000000000 [-]
	 SCS Same-Spin Energy      =      -0.1335719796273392 [Eh]
	 SCS Opposite-Spin Energy  =      -1.6549670032034467 [Eh]
	 SCS Correlation Energy    =      -1.7885389828307861 [Eh]
	 SCS Total Energy          =    -387.8445454639244758 [Eh]
	-----------------------------------------------------------

  Dipole Moment: [D]
     X:     1.1891      Y:     0.7066      Z:     0.4888     Total:     1.4670

*** Psi4 exiting successfully. Buy a developer a beer!
