                               Psi4 1.4a2.dev612

  ==> Input File <==

--------------------------------------------------------------------------
#psi4
#
memory 32 gb

molecule  {
0 1
  O        2.6932640    -1.3344870    -0.0264310
  C        2.7508540     0.0254460     0.4069810
  C        1.3606810     0.5764810     0.3953890
  C       -3.5492030     0.3621160    -0.4101590
  C        3.6709050     0.8409920    -0.4958550
  C        0.2704120    -0.1024690    -0.0006590
  C       -2.1631840    -0.2004740    -0.4090490
  C       -1.0635270     0.4697970    -0.0176060
  C       -4.4702810    -0.3835230     0.5583970
  H        3.1361180     0.0688010     1.4404840
  H        1.2930851     1.6753502     0.5376576
  H       -3.5113520     1.4248880    -0.1442750
  H       -3.9713450     0.3050270    -1.4220020
  H        3.3060070     0.7827570    -1.5237190
  H        3.6990520     1.8899320    -0.1870900
  H        4.6948240     0.4527130    -0.4608140
  H        0.3841050    -1.1350190    -0.3229170
  H       -2.0573220    -1.2386810    -0.7303930
  H       -1.1648060     1.5075440     0.3065060
  H       -4.5255200    -1.4457790     0.3033390
  H       -5.4853170     0.0231860     0.5310900
  H       -4.0942820    -0.3029910     1.5815520
  H        3.6028580    -1.6773980    -0.0043180
units angstrom
no_reorient  #important for SAPT in psi4, default
symmetry c1  #important for SAPT in psi4, default
}

set PROPERTIES_ORIGIN ["COM"]
properties('MP2/aug-cc-pvtz', properties = ['dipole'])
--------------------------------------------------------------------------

    Molecular point group: c1
  Charge       = 0
  Multiplicity = 1
  Basis Set: AUG-CC-PVTZ
    Blend: AUG-CC-PVTZ
  Basis Set: (AUG-CC-PVTZ AUX)
    Blend: AUG-CC-PVTZ-JKFIT

    Orbital Energies [Eh]
    ---------------------

    Doubly Occupied:

       1A    -20.558790     2A    -11.286361     3A    -11.226336
       4A    -11.224803     5A    -11.223582     6A    -11.223382
       7A    -11.222699     8A    -11.220812     9A    -11.212896
      10A     -1.360654    11A     -1.097978    12A     -1.061302
      13A     -1.016370    14A     -0.962311    15A     -0.876431
      16A     -0.828780    17A     -0.752705    18A     -0.745873
      19A     -0.694925    20A     -0.637525    21A     -0.629042
      22A     -0.616493    23A     -0.589202    24A     -0.582049
      25A     -0.546517    26A     -0.541389    27A     -0.528382
      28A     -0.518770    29A     -0.500250    30A     -0.492523
      31A     -0.479362    32A     -0.468662    33A     -0.452225
      34A     -0.418131    35A     -0.297603

  @DF-RHF Final Energy:  -386.06005012715377

   => Energetics <=

    Nuclear Repulsion Energy =            417.9669149594966484
    One-Electron Energy =               -1351.8636990713503110
    Two-Electron Energy =                 547.8367339846998902
    Total Energy =                       -386.0600501271537723
  Basis Set: (AUG-CC-PVTZ AUX)
    Blend: AUG-CC-PVTZ-RI
    Molecular point group: c1

    Geometry (in Angstrom), charge = 0, multiplicity = 1:

       Center              X                  Y                   Z               Mass
    ------------   -----------------  -----------------  -----------------  -----------------
         O            2.693043651346    -1.334994130996    -0.024931167468    15.994914619570
         C            2.750633651346     0.024938869004     0.408480832532    12.000000000000
         C            1.360460651346     0.575973869004     0.396888832532    12.000000000000
         C           -3.549423348654     0.361608869004    -0.408659167468    12.000000000000
         C            3.670684651346     0.840484869004    -0.494355167468    12.000000000000
         C            0.270191651346    -0.102976130996     0.000840832532    12.000000000000
         C           -2.163404348654    -0.200981130996    -0.407549167468    12.000000000000
         C           -1.063747348654     0.469289869004    -0.016106167468    12.000000000000
         C           -4.470501348654    -0.384030130996     0.559896832532    12.000000000000
         H            3.135897651346     0.068293869004     1.441983832532     1.007825032230
         H            1.292864751346     1.674843069004     0.539157432532     1.007825032230
         H           -3.511572348654     1.424380869004    -0.142775167468     1.007825032230
         H           -3.971565348654     0.304519869004    -1.420502167468     1.007825032230
         H            3.305786651346     0.782249869004    -1.522219167468     1.007825032230
         H            3.698831651346     1.889424869004    -0.185590167468     1.007825032230
         H            4.694603651346     0.452205869004    -0.459314167468     1.007825032230
         H            0.383884651346    -1.135526130996    -0.321417167468     1.007825032230
         H           -2.057542348654    -1.239188130996    -0.728893167468     1.007825032230
         H           -1.165026348654     1.507036869004     0.308005832532     1.007825032230
         H           -4.525740348654    -1.446286130996     0.304838832532     1.007825032230
         H           -5.485537348654     0.022678869004     0.532589832532     1.007825032230
         H           -4.094502348654    -0.303498130996     1.583051832532     1.007825032230
         H            3.602637651346    -1.677905130996    -0.002818167468     1.007825032230

  Basis Set: AUG-CC-PVTZ
    Blend: AUG-CC-PVTZ
  Basis Set: (AUG-CC-PVTZ AUX)
    Blend: AUG-CC-PVTZ-JKFIT
	 Reference Energy          =    -386.0600501271537723 [Eh]
	 Singles Energy            =      -0.0000000000000000 [Eh]
	 Same-Spin Energy          =      -0.4005066825987856 [Eh]
	 Opposite-Spin Energy      =      -1.3786337237896693 [Eh]
	 Correlation Energy        =      -1.7791404063884548 [Eh]
	 Total Energy              =    -387.8391905335422507 [Eh]

	 ================> DF-SCS-MP2 Energies <==================
	-----------------------------------------------------------
	 SCS Same-Spin Scale       =       0.3333333333333333 [-]
	 SCS Opposite-Spin Scale   =       1.2000000000000000 [-]
	 SCS Same-Spin Energy      =      -0.1335022275329285 [Eh]
	 SCS Opposite-Spin Energy  =      -1.6543604685476032 [Eh]
	 SCS Correlation Energy    =      -1.7878626960805317 [Eh]
	 SCS Total Energy          =    -387.8479128232343101 [Eh]
	-----------------------------------------------------------

  Dipole Moment: [D]
     X:     1.2055      Y:     0.7354      Z:     0.1828     Total:     1.4239

*** Psi4 exiting successfully. Buy a developer a beer!
