                               Psi4 1.4a2.dev612

  ==> Input File <==

--------------------------------------------------------------------------
#psi4
#
memory 32 gb

molecule  {
0 1
  O        2.6932640    -1.3344870    -0.0264310
  C        2.7508540     0.0254460     0.4069810
  C        1.3606810     0.5764810     0.3953890
  C       -3.5492030     0.3621160    -0.4101590
  C        3.6709050     0.8409920    -0.4958550
  C        0.2704120    -0.1024690    -0.0006590
  C       -2.1631840    -0.2004740    -0.4090490
  C       -1.0635270     0.4697970    -0.0176060
  C       -4.4702810    -0.3835230     0.5583970
  H        3.1361180     0.0688010     1.4404840
  H        1.2655190     1.6118880     0.7253080
  H       -3.5113520     1.4248880    -0.1442750
  H       -3.9713450     0.3050270    -1.4220020
  H        3.3060070     0.7827570    -1.5237190
  H        3.6990520     1.8899320    -0.1870900
  H        4.6948240     0.4527130    -0.4608140
  H        0.3841050    -1.1350190    -0.3229170
  H       -2.0236107    -1.1602574    -0.9653681
  H       -1.1648060     1.5075440     0.3065060
  H       -4.5255200    -1.4457790     0.3033390
  H       -5.4853170     0.0231860     0.5310900
  H       -4.0942820    -0.3029910     1.5815520
  H        3.6028580    -1.6773980    -0.0043180
units angstrom
no_reorient  #important for SAPT in psi4, default
symmetry c1  #important for SAPT in psi4, default
}

set PROPERTIES_ORIGIN ["COM"]
properties('MP2/aug-cc-pvtz', properties = ['dipole'])
--------------------------------------------------------------------------

    Molecular point group: c1
  Charge       = 0
  Multiplicity = 1
  Basis Set: AUG-CC-PVTZ
    Blend: AUG-CC-PVTZ
  Basis Set: (AUG-CC-PVTZ AUX)
    Blend: AUG-CC-PVTZ-JKFIT

    Orbital Energies [Eh]
    ---------------------

    Doubly Occupied:

       1A    -20.558916     2A    -11.286807     3A    -11.228231
       4A    -11.224527     5A    -11.223813     6A    -11.223030
       7A    -11.222194     8A    -11.220917     9A    -11.211984
      10A     -1.360830    11A     -1.097756    12A     -1.061161
      13A     -1.016271    14A     -0.962484    15A     -0.876716
      16A     -0.828491    17A     -0.749230    18A     -0.747289
      19A     -0.695042    20A     -0.636858    21A     -0.628674
      22A     -0.616974    23A     -0.590427    24A     -0.581206
      25A     -0.546675    26A     -0.544695    27A     -0.527145
      28A     -0.517932    29A     -0.500669    30A     -0.492860
      31A     -0.475832    32A     -0.467392    33A     -0.453060
      34A     -0.417870    35A     -0.297504

  @DF-RHF Final Energy:  -386.05866848927684

   => Energetics <=

    Nuclear Repulsion Energy =            417.8456858390943012
    One-Electron Energy =               -1351.6257775859585308
    Two-Electron Energy =                 547.7214232575872757
    Total Energy =                       -386.0586684892768972
  Basis Set: (AUG-CC-PVTZ AUX)
    Blend: AUG-CC-PVTZ-RI
    Molecular point group: c1

    Geometry (in Angstrom), charge = 0, multiplicity = 1:

       Center              X                  Y                   Z               Mass
    ------------   -----------------  -----------------  -----------------  -----------------
         O            2.692994538998    -1.335113702285    -0.024552949161    15.994914619570
         C            2.750584538998     0.024819297715     0.408859050839    12.000000000000
         C            1.360411538998     0.575854297715     0.397267050839    12.000000000000
         C           -3.549472461002     0.361489297715    -0.408280949161    12.000000000000
         C            3.670635538998     0.840365297715    -0.493976949161    12.000000000000
         C            0.270142538998    -0.103095702285     0.001219050839    12.000000000000
         C           -2.163453461002    -0.201100702285    -0.407170949161    12.000000000000
         C           -1.063796461002     0.469170297715    -0.015727949161    12.000000000000
         C           -4.470550461002    -0.384149702285     0.560275050839    12.000000000000
         H            3.135848538998     0.068174297715     1.442362050839     1.007825032230
         H            1.265249538998     1.611261297715     0.727186050839     1.007825032230
         H           -3.511621461002     1.424261297715    -0.142396949161     1.007825032230
         H           -3.971614461002     0.304400297715    -1.420123949161     1.007825032230
         H            3.305737538998     0.782130297715    -1.521840949161     1.007825032230
         H            3.698782538998     1.889305297715    -0.185211949161     1.007825032230
         H            4.694554538998     0.452086297715    -0.458935949161     1.007825032230
         H            0.383835538998    -1.135645702285    -0.321038949161     1.007825032230
         H           -2.023880161002    -1.160884102285    -0.963490049161     1.007825032230
         H           -1.165075461002     1.506917297715     0.308384050839     1.007825032230
         H           -4.525789461002    -1.446405702285     0.305217050839     1.007825032230
         H           -5.485586461002     0.022559297715     0.532968050839     1.007825032230
         H           -4.094551461002    -0.303617702285     1.583430050839     1.007825032230
         H            3.602588538998    -1.678024702285    -0.002439949161     1.007825032230

  Basis Set: AUG-CC-PVTZ
    Blend: AUG-CC-PVTZ
  Basis Set: (AUG-CC-PVTZ AUX)
    Blend: AUG-CC-PVTZ-JKFIT
	 Reference Energy          =    -386.0586684892768403 [Eh]
	 Singles Energy            =      -0.0000000000000000 [Eh]
	 Same-Spin Energy          =      -0.4005245603847443 [Eh]
	 Opposite-Spin Energy      =      -1.3788209871618506 [Eh]
	 Correlation Energy        =      -1.7793455475465949 [Eh]
	 Total Energy              =    -387.8380140368234379 [Eh]

	 ================> DF-SCS-MP2 Energies <==================
	-----------------------------------------------------------
	 SCS Same-Spin Scale       =       0.3333333333333333 [-]
	 SCS Opposite-Spin Scale   =       1.2000000000000000 [-]
	 SCS Same-Spin Energy      =      -0.1335081867949147 [Eh]
	 SCS Opposite-Spin Energy  =      -1.6545851845942208 [Eh]
	 SCS Correlation Energy    =      -1.7880933713891356 [Eh]
	 SCS Total Energy          =    -387.8467618606659926 [Eh]
	-----------------------------------------------------------

  Dipole Moment: [D]
     X:     1.2733      Y:     0.8044      Z:     0.1795     Total:     1.5168

*** Psi4 exiting successfully. Buy a developer a beer!
