                               Psi4 1.4a2.dev612

  ==> Input File <==

--------------------------------------------------------------------------
#psi4
#
memory 32 gb

molecule  {
0 1
  O        2.6932640    -1.3344870    -0.0264310
  C        2.7508540     0.0254460     0.4069810
  C        1.3606810     0.5764810     0.3953890
  C       -3.5492030     0.3621160    -0.4101590
  C        3.6709050     0.8409920    -0.4958550
  C        0.2704120    -0.1024690    -0.0006590
  C       -2.1631840    -0.2004740    -0.4090490
  C       -1.0635270     0.4697970    -0.0176060
  C       -4.4702810    -0.3835230     0.5583970
  H        3.1361180     0.0688010     1.4404840
  H        1.2655190     1.6118880     0.7253080
  H       -3.5113520     1.4248880    -0.1442750
  H       -3.9713450     0.3050270    -1.4220020
  H        3.3060070     0.7827570    -1.5237190
  H        3.6990520     1.8899320    -0.1870900
  H        4.6948240     0.4527130    -0.4608140
  H        0.3841050    -1.1350190    -0.3229170
  H       -2.0573220    -1.2386810    -0.7303930
  H       -1.1648060     1.5075440     0.3065060
  H       -4.5255200    -1.4457790     0.3033390
  H       -5.4853170     0.0231860     0.5310900
  H       -4.0942820    -0.3029910     1.5815520
  H        3.6028580    -1.6773980    -0.0043180
units angstrom
no_reorient  #important for SAPT in psi4, default
symmetry c1  #important for SAPT in psi4, default
}

set PROPERTIES_ORIGIN ["COM"]
properties('MP2/aug-cc-pvtz', properties = ['dipole'])
--------------------------------------------------------------------------

    Molecular point group: c1
  Charge       = 0
  Multiplicity = 1
  Basis Set: AUG-CC-PVTZ
    Blend: AUG-CC-PVTZ
  Basis Set: (AUG-CC-PVTZ AUX)
    Blend: AUG-CC-PVTZ-JKFIT

    Orbital Energies [Eh]
    ---------------------

    Doubly Occupied:

       1A    -20.558685     2A    -11.286468     3A    -11.225906
       4A    -11.223628     5A    -11.223232     6A    -11.222967
       7A    -11.221736     8A    -11.220544     9A    -11.212791
      10A     -1.360583    11A     -1.097828    12A     -1.061309
      13A     -1.016129    14A     -0.962458    15A     -0.876597
      16A     -0.828546    17A     -0.752409    18A     -0.748047
      19A     -0.695255    20A     -0.637321    21A     -0.627988
      22A     -0.616710    23A     -0.589988    24A     -0.582779
      25A     -0.546543    26A     -0.543688    27A     -0.527403
      28A     -0.518732    29A     -0.500655    30A     -0.492369
      31A     -0.479113    32A     -0.467930    33A     -0.452957
      34A     -0.418275    35A     -0.297462

  @DF-RHF Final Energy:  -386.06259008859371

   => Energetics <=

    Nuclear Repulsion Energy =            417.9991893243596337
    One-Electron Energy =               -1351.9334987535503387
    Two-Electron Energy =                 547.8717193405969965
    Total Energy =                       -386.0625900885937654
  Basis Set: (AUG-CC-PVTZ AUX)
    Blend: AUG-CC-PVTZ-RI
    Molecular point group: c1

    Geometry (in Angstrom), charge = 0, multiplicity = 1:

       Center              X                  Y                   Z               Mass
    ------------   -----------------  -----------------  -----------------  -----------------
         O            2.693263959213    -1.334486942026    -0.026430866708    15.994914619570
         C            2.750853959213     0.025446057974     0.406981133292    12.000000000000
         C            1.360680959213     0.576481057974     0.395389133292    12.000000000000
         C           -3.549203040787     0.362116057974    -0.410158866708    12.000000000000
         C            3.670904959213     0.840992057974    -0.495854866708    12.000000000000
         C            0.270411959213    -0.102468942026    -0.000658866708    12.000000000000
         C           -2.163184040787    -0.200473942026    -0.409048866708    12.000000000000
         C           -1.063527040787     0.469797057974    -0.017605866708    12.000000000000
         C           -4.470281040787    -0.383522942026     0.558397133292    12.000000000000
         H            3.136117959213     0.068801057974     1.440484133292     1.007825032230
         H            1.265518959213     1.611888057974     0.725308133292     1.007825032230
         H           -3.511352040787     1.424888057974    -0.144274866708     1.007825032230
         H           -3.971345040787     0.305027057974    -1.422001866708     1.007825032230
         H            3.306006959213     0.782757057974    -1.523718866708     1.007825032230
         H            3.699051959213     1.889932057974    -0.187089866708     1.007825032230
         H            4.694823959213     0.452713057974    -0.460813866708     1.007825032230
         H            0.384104959213    -1.135018942026    -0.322916866708     1.007825032230
         H           -2.057322040787    -1.238680942026    -0.730392866708     1.007825032230
         H           -1.164806040787     1.507544057974     0.306506133292     1.007825032230
         H           -4.525520040787    -1.445778942026     0.303339133292     1.007825032230
         H           -5.485317040787     0.023186057974     0.531090133292     1.007825032230
         H           -4.094282040787    -0.302990942026     1.581552133292     1.007825032230
         H            3.602857959213    -1.677397942026    -0.004317866708     1.007825032230

  Basis Set: AUG-CC-PVTZ
    Blend: AUG-CC-PVTZ
  Basis Set: (AUG-CC-PVTZ AUX)
    Blend: AUG-CC-PVTZ-JKFIT
	 Reference Energy          =    -386.0625900885937085 [Eh]
	 Singles Energy            =      -0.0000000000000000 [Eh]
	 Same-Spin Energy          =      -0.4003485864996649 [Eh]
	 Opposite-Spin Energy      =      -1.3783203983701160 [Eh]
	 Correlation Energy        =      -1.7786689848697810 [Eh]
	 Total Energy              =    -387.8412590734635046 [Eh]

	 ================> DF-SCS-MP2 Energies <==================
	-----------------------------------------------------------
	 SCS Same-Spin Scale       =       0.3333333333333333 [-]
	 SCS Opposite-Spin Scale   =       1.2000000000000000 [-]
	 SCS Same-Spin Energy      =      -0.1334495288332216 [Eh]
	 SCS Opposite-Spin Energy  =      -1.6539844780441391 [Eh]
	 SCS Correlation Energy    =      -1.7874340068773606 [Eh]
	 SCS Total Energy          =    -387.8500240954710421 [Eh]
	-----------------------------------------------------------

  Dipole Moment: [D]
     X:     1.2054      Y:     0.7288      Z:     0.3094     Total:     1.4422

*** Psi4 exiting successfully. Buy a developer a beer!
