                               Psi4 1.4a2.dev612

  ==> Input File <==

--------------------------------------------------------------------------
#psi4
#
memory 32 gb

molecule  {
0 1
  O        2.6932640    -1.3344870    -0.0264310
  C        2.7508540     0.0254460     0.4069810
  C        1.3606810     0.5764810     0.3953890
  C       -3.5492030     0.3621160    -0.4101590
  C        3.6709050     0.8409920    -0.4958550
  C        0.2704120    -0.1024690    -0.0006590
  C       -2.1631840    -0.2004740    -0.4090490
  C       -1.0635270     0.4697970    -0.0176060
  C       -4.4702810    -0.3835230     0.5583970
  H        3.1361180     0.0688010     1.4404840
  H        1.3068681     1.7070812     0.4438324
  H       -3.5113520     1.4248880    -0.1442750
  H       -3.9713450     0.3050270    -1.4220020
  H        3.3060070     0.7827570    -1.5237190
  H        3.6990520     1.8899320    -0.1870900
  H        4.6948240     0.4527130    -0.4608140
  H        0.3841050    -1.1350190    -0.3229170
  H       -2.0573220    -1.2386810    -0.7303930
  H       -1.1648060     1.5075440     0.3065060
  H       -4.5255200    -1.4457790     0.3033390
  H       -5.4853170     0.0231860     0.5310900
  H       -4.0942820    -0.3029910     1.5815520
  H        3.6028580    -1.6773980    -0.0043180
units angstrom
no_reorient  #important for SAPT in psi4, default
symmetry c1  #important for SAPT in psi4, default
}

set PROPERTIES_ORIGIN ["COM"]
properties('MP2/aug-cc-pvtz', properties = ['dipole'])
--------------------------------------------------------------------------

    Molecular point group: c1
  Charge       = 0
  Multiplicity = 1
  Basis Set: AUG-CC-PVTZ
    Blend: AUG-CC-PVTZ
  Basis Set: (AUG-CC-PVTZ AUX)
    Blend: AUG-CC-PVTZ-JKFIT

    Orbital Energies [Eh]
    ---------------------

    Doubly Occupied:

       1A    -20.558830     2A    -11.286243     3A    -11.226851
       4A    -11.226564     5A    -11.224272     6A    -11.223741
       7A    -11.223326     8A    -11.220803     9A    -11.213087
      10A     -1.360690    11A     -1.098148    12A     -1.061193
      13A     -1.016546    14A     -0.962236    15A     -0.876373
      16A     -0.828985    17A     -0.752956    18A     -0.743217
      19A     -0.694724    20A     -0.637714    21A     -0.629388
      22A     -0.616445    23A     -0.589040    24A     -0.581183
      25A     -0.546386    26A     -0.539595    27A     -0.528748
      28A     -0.518710    29A     -0.499495    30A     -0.492651
      31A     -0.479622    32A     -0.469143    33A     -0.451429
      34A     -0.417938    35A     -0.297753

  @DF-RHF Final Energy:  -386.05654998620031

   => Energetics <=

    Nuclear Repulsion Energy =            417.9009614481615245
    One-Electron Energy =               -1351.7269761311686125
    Two-Electron Energy =                 547.7694646968067218
    Total Energy =                       -386.0565499862003662
  Basis Set: (AUG-CC-PVTZ AUX)
    Blend: AUG-CC-PVTZ-RI
    Molecular point group: c1

    Geometry (in Angstrom), charge = 0, multiplicity = 1:

       Center              X                  Y                   Z               Mass
    ------------   -----------------  -----------------  -----------------  -----------------
         O            2.692933497813    -1.335247724682    -0.024181317848    15.994914619570
         C            2.750523497813     0.024685275318     0.409230682152    12.000000000000
         C            1.360350497813     0.575720275318     0.397638682152    12.000000000000
         C           -3.549533502187     0.361355275318    -0.407909317848    12.000000000000
         C            3.670574497813     0.840231275318    -0.493605317848    12.000000000000
         C            0.270081497813    -0.103229724682     0.001590682152    12.000000000000
         C           -2.163514502187    -0.201234724682    -0.406799317848    12.000000000000
         C           -1.063857502187     0.469036275318    -0.015356317848    12.000000000000
         C           -4.470611502187    -0.384283724682     0.560646682152    12.000000000000
         H            3.135787497813     0.068040275318     1.442733682152     1.007825032230
         H            1.306537597813     1.706320475318     0.446082082152     1.007825032230
         H           -3.511682502187     1.424127275318    -0.142025317848     1.007825032230
         H           -3.971675502187     0.304266275318    -1.419752317848     1.007825032230
         H            3.305676497813     0.781996275318    -1.521469317848     1.007825032230
         H            3.698721497813     1.889171275318    -0.184840317848     1.007825032230
         H            4.694493497813     0.451952275318    -0.458564317848     1.007825032230
         H            0.383774497813    -1.135779724682    -0.320667317848     1.007825032230
         H           -2.057652502187    -1.239441724682    -0.728143317848     1.007825032230
         H           -1.165136502187     1.506783275318     0.308755682152     1.007825032230
         H           -4.525850502187    -1.446539724682     0.305588682152     1.007825032230
         H           -5.485647502187     0.022425275318     0.533339682152     1.007825032230
         H           -4.094612502187    -0.303751724682     1.583801682152     1.007825032230
         H            3.602527497813    -1.678158724682    -0.002068317848     1.007825032230

  Basis Set: AUG-CC-PVTZ
    Blend: AUG-CC-PVTZ
  Basis Set: (AUG-CC-PVTZ AUX)
    Blend: AUG-CC-PVTZ-JKFIT
	 Reference Energy          =    -386.0565499862003094 [Eh]
	 Singles Energy            =      -0.0000000000000000 [Eh]
	 Same-Spin Energy          =      -0.4006843901776026 [Eh]
	 Opposite-Spin Energy      =      -1.3790757705890759 [Eh]
	 Correlation Energy        =      -1.7797601607666786 [Eh]
	 Total Energy              =    -387.8363101469669800 [Eh]

	 ================> DF-SCS-MP2 Energies <==================
	-----------------------------------------------------------
	 SCS Same-Spin Scale       =       0.3333333333333333 [-]
	 SCS Opposite-Spin Scale   =       1.2000000000000000 [-]
	 SCS Same-Spin Energy      =      -0.1335614633925342 [Eh]
	 SCS Opposite-Spin Energy  =      -1.6548909247068910 [Eh]
	 SCS Correlation Energy    =      -1.7884523880994252 [Eh]
	 SCS Total Energy          =    -387.8450023742997246 [Eh]
	-----------------------------------------------------------

  Dipole Moment: [D]
     X:     1.1902      Y:     0.7195      Z:     0.1162     Total:     1.3956

*** Psi4 exiting successfully. Buy a developer a beer!
