                               Psi4 1.4a2.dev612

  ==> Input File <==

--------------------------------------------------------------------------
#psi4
#
memory 32 gb

molecule  {
0 1
  O        2.6932640    -1.3344870    -0.0264310
  C        2.7508540     0.0254460     0.4069810
  C        1.3606810     0.5764810     0.3953890
  C       -3.5492030     0.3621160    -0.4101590
  C        3.6709050     0.8409920    -0.4958550
  C        0.2704120    -0.1024690    -0.0006590
  C       -2.1631840    -0.2004740    -0.4090490
  C       -1.0635270     0.4697970    -0.0176060
  C       -4.4702810    -0.3835230     0.5583970
  H        3.1361180     0.0688010     1.4404840
  H        1.2655190     1.6118880     0.7253080
  H       -3.5113520     1.4248880    -0.1442750
  H       -3.9713450     0.3050270    -1.4220020
  H        3.3060070     0.7827570    -1.5237190
  H        3.6990520     1.8899320    -0.1870900
  H        4.6948240     0.4527130    -0.4608140
  H        0.3841050    -1.1350190    -0.3229170
  H       -2.0573220    -1.2386810    -0.7303930
  H       -1.1502762     1.5384290     0.2125113
  H       -4.5255200    -1.4457790     0.3033390
  H       -5.4853170     0.0231860     0.5310900
  H       -4.0942820    -0.3029910     1.5815520
  H        3.6028580    -1.6773980    -0.0043180
units angstrom
no_reorient  #important for SAPT in psi4, default
symmetry c1  #important for SAPT in psi4, default
}

set PROPERTIES_ORIGIN ["COM"]
properties('MP2/aug-cc-pvtz', properties = ['dipole'])
--------------------------------------------------------------------------

    Molecular point group: c1
  Charge       = 0
  Multiplicity = 1
  Basis Set: AUG-CC-PVTZ
    Blend: AUG-CC-PVTZ
  Basis Set: (AUG-CC-PVTZ AUX)
    Blend: AUG-CC-PVTZ-JKFIT

    Orbital Energies [Eh]
    ---------------------

    Doubly Occupied:

       1A    -20.558679     2A    -11.286456     3A    -11.226147
       4A    -11.223820     5A    -11.223292     6A    -11.223159
       7A    -11.221733     8A    -11.220570     9A    -11.212828
      10A     -1.360577    11A     -1.097780    12A     -1.061324
      13A     -1.016114    14A     -0.962468    15A     -0.876575
      16A     -0.828489    17A     -0.752160    18A     -0.747766
      19A     -0.695162    20A     -0.637251    21A     -0.627872
      22A     -0.616644    23A     -0.589659    24A     -0.583071
      25A     -0.546545    26A     -0.543855    27A     -0.526945
      28A     -0.518906    29A     -0.500242    30A     -0.492544
      31A     -0.479006    32A     -0.468084    33A     -0.452821
      34A     -0.417931    35A     -0.297506

  @DF-RHF Final Energy:  -386.06194524010334

   => Energetics <=

    Nuclear Repulsion Energy =            417.9747474628374562
    One-Electron Energy =               -1351.8854204220388056
    Two-Electron Energy =                 547.8487277190979512
    Total Energy =                       -386.0619452401033413
  Basis Set: (AUG-CC-PVTZ AUX)
    Blend: AUG-CC-PVTZ-RI
    Molecular point group: c1

    Geometry (in Angstrom), charge = 0, multiplicity = 1:

       Center              X                  Y                   Z               Mass
    ------------   -----------------  -----------------  -----------------  -----------------
         O            2.693147837265    -1.334733774492    -0.025679662446    15.994914619570
         C            2.750737837265     0.025199225508     0.407732337554    12.000000000000
         C            1.360564837265     0.576234225508     0.396140337554    12.000000000000
         C           -3.549319162735     0.361869225508    -0.409407662446    12.000000000000
         C            3.670788837265     0.840745225508    -0.495103662446    12.000000000000
         C            0.270295837265    -0.102715774492     0.000092337554    12.000000000000
         C           -2.163300162735    -0.200720774492    -0.408297662446    12.000000000000
         C           -1.063643162735     0.469550225508    -0.016854662446    12.000000000000
         C           -4.470397162735    -0.383769774492     0.559148337554    12.000000000000
         H            3.136001837265     0.068554225508     1.441235337554     1.007825032230
         H            1.265402837265     1.611641225508     0.726059337554     1.007825032230
         H           -3.511468162735     1.424641225508    -0.143523662446     1.007825032230
         H           -3.971461162735     0.304780225508    -1.421250662446     1.007825032230
         H            3.305890837265     0.782510225508    -1.522967662446     1.007825032230
         H            3.698935837265     1.889685225508    -0.186338662446     1.007825032230
         H            4.694707837265     0.452466225508    -0.460062662446     1.007825032230
         H            0.383988837265    -1.135265774492    -0.322165662446     1.007825032230
         H           -2.057438162735    -1.238927774492    -0.729641662446     1.007825032230
         H           -1.150392362735     1.538182225508     0.213262637554     1.007825032230
         H           -4.525636162735    -1.446025774492     0.304090337554     1.007825032230
         H           -5.485433162735     0.022939225508     0.531841337554     1.007825032230
         H           -4.094398162735    -0.303237774492     1.582303337554     1.007825032230
         H            3.602741837265    -1.677644774492    -0.003566662446     1.007825032230

  Basis Set: AUG-CC-PVTZ
    Blend: AUG-CC-PVTZ
  Basis Set: (AUG-CC-PVTZ AUX)
    Blend: AUG-CC-PVTZ-JKFIT
	 Reference Energy          =    -386.0619452401033413 [Eh]
	 Singles Energy            =      -0.0000000000000000 [Eh]
	 Same-Spin Energy          =      -0.4003874943236333 [Eh]
	 Opposite-Spin Energy      =      -1.3784028257114174 [Eh]
	 Correlation Energy        =      -1.7787903200350508 [Eh]
	 Total Energy              =    -387.8407355601383983 [Eh]

	 ================> DF-SCS-MP2 Energies <==================
	-----------------------------------------------------------
	 SCS Same-Spin Scale       =       0.3333333333333333 [-]
	 SCS Opposite-Spin Scale   =       1.2000000000000000 [-]
	 SCS Same-Spin Energy      =      -0.1334624981078777 [Eh]
	 SCS Opposite-Spin Energy  =      -1.6540833908537007 [Eh]
	 SCS Correlation Energy    =      -1.7875458889615785 [Eh]
	 SCS Total Energy          =    -387.8494911290649156 [Eh]
	-----------------------------------------------------------

  Dipole Moment: [D]
     X:     1.2130      Y:     0.7408      Z:     0.2528     Total:     1.4437

*** Psi4 exiting successfully. Buy a developer a beer!
