                               Psi4 1.3.2 release

  ==> Input File <==

--------------------------------------------------------------------------
#psi4
#
memory 32 gb

molecule  {
-1 1
  O        2.3621300     1.1457750    -0.0000250
  O        2.3621310    -1.1457740    -0.0000570
  C        0.2818590     0.0000000    -0.0000440
  C       -0.4337530    -1.2036740    -0.0001190
  C       -0.4337540     1.2036740     0.0001100
  C       -1.8301680    -1.2073330    -0.0000540
  C       -1.8301700     1.2073330     0.0001830
  C       -2.5366520     0.0000000     0.0001000
  C        1.9149323     0.1814398    -0.0000982
  H        0.1460340    -2.1233920    -0.0002260
  H        0.1460330     2.1233920     0.0001590
  H       -2.3743460    -2.1522190    -0.0001220
  H       -2.3743480     2.1522190     0.0003060
  H       -3.6263880    -0.0000020     0.0001550
units angstrom
no_reorient  #important for SAPT in psi4, default
symmetry c1  #important for SAPT in psi4, default
}

set PROPERTIES_ORIGIN ["COM"]
properties('MP2/aug-cc-pvtz', properties = ['dipole'])
--------------------------------------------------------------------------

    Molecular point group: c1
  Charge       = -1
  Multiplicity = 1
  Basis Set: AUG-CC-PVTZ
    Blend: AUG-CC-PVTZ
  Basis Set: (AUG-CC-PVTZ AUX)
    Blend: AUG-CC-PVTZ-JKFIT

    Orbital Energies [Eh]
    ---------------------

    Doubly Occupied:

       1A    -20.360005     2A    -20.275095     3A    -11.155895
       4A    -11.109678     5A    -11.106666     6A    -11.105518
       7A    -11.090247     8A    -11.089717     9A    -11.079758
      10A     -1.318607    11A     -1.030957    12A     -1.006060
      13A     -0.875352    14A     -0.869342    15A     -0.689220
      16A     -0.680780    17A     -0.583412    18A     -0.551687
      19A     -0.503900    20A     -0.486300    21A     -0.470164
      22A     -0.447327    23A     -0.445479    24A     -0.426356
      25A     -0.383596    26A     -0.361772    27A     -0.347925
      28A     -0.223739    29A     -0.209134    30A     -0.200958
      31A     -0.181768    32A     -0.180592

  @DF-RHF Final Energy:  -417.83495909138952

   => Energetics <=

    Nuclear Repulsion Energy =            391.0769018900599576
    One-Electron Energy =               -1356.1297086491881601
    Two-Electron Energy =                 547.2178476677386243
    Total Energy =                       -417.8349590913895781
  Basis Set: (AUG-CC-PVTZ AUX)
    Blend: AUG-CC-PVTZ-RI
    Molecular point group: c1

    Geometry (in Angstrom), charge = -1, multiplicity = 1:

       Center              X                  Y                   Z               Mass
    ------------   -----------------  -----------------  -----------------  -----------------
         O            2.287722862243     1.127785159552    -0.000024141903    15.994914619570
         O            2.287723862243    -1.163763840448    -0.000056141903    15.994914619570
         C            0.207451862243    -0.017989840448    -0.000043141903    12.000000000000
         C           -0.508160137757    -1.221663840448    -0.000118141903    12.000000000000
         C           -0.508161137757     1.185684159552     0.000110858097    12.000000000000
         C           -1.904575137757    -1.225322840448    -0.000053141903    12.000000000000
         C           -1.904577137757     1.189343159552     0.000183858097    12.000000000000
         C           -2.611059137757    -0.017989840448     0.000100858097    12.000000000000
         C            1.840525162243     0.163449959552    -0.000097341903    12.000000000000
         H            0.071626862243    -2.141381840448    -0.000225141903     1.007825032230
         H            0.071625862243     2.105402159552     0.000159858097     1.007825032230
         H           -2.448753137757    -2.170208840448    -0.000121141903     1.007825032230
         H           -2.448755137757     2.134229159552     0.000306858097     1.007825032230
         H           -3.700795137757    -0.017991840448     0.000155858097     1.007825032230

  Basis Set: AUG-CC-PVTZ
    Blend: AUG-CC-PVTZ
  Basis Set: (AUG-CC-PVTZ AUX)
    Blend: AUG-CC-PVTZ-JKFIT
	 Reference Energy          =    -417.8349590913895213 [Eh]
	 Singles Energy            =      -0.0000000000000000 [Eh]
	 Same-Spin Energy          =      -0.4420392058686542 [Eh]
	 Opposite-Spin Energy      =      -1.3179670932786656 [Eh]
	 Correlation Energy        =      -1.7600062991473198 [Eh]
	 Total Energy              =    -419.5949653905368564 [Eh]

	 ================> DF-SCS-MP2 Energies <==================
	-----------------------------------------------------------
	 SCS Same-Spin Scale       =       0.3333333333333333 [-]
	 SCS Opposite-Spin Scale   =       1.2000000000000000 [-]
	 SCS Same-Spin Energy      =      -0.1473464019562181 [Eh]
	 SCS Opposite-Spin Energy  =      -1.5815605119343987 [Eh]
	 SCS Correlation Energy    =      -1.7289069138906168 [Eh]
	 SCS Total Energy          =    -419.5638660052801470 [Eh]
	-----------------------------------------------------------

  Dipole Moment: [D]
     X:    -7.8510      Y:     1.8599      Z:     0.0001     Total:     8.0683

*** Psi4 exiting successfully. Buy a developer a beer!
