                               Psi4 1.4a3.dev225

  ==> Input File <==

--------------------------------------------------------------------------
#psi4
#
memory 32 gb

molecule  {
-1 1
  O        0.0000000     1.1363720    -2.3728160
  O        0.0000000    -1.1363720    -2.3728160
  C        0.0000000     0.0000000    -0.2802600
  C        0.0017180    -1.2051330     0.4346350
  C       -0.0017180     1.2051330     0.4346350
  C        0.0017610    -1.2079500     1.8312180
  C       -0.0017610     1.2079500     1.8312180
  C        0.0000000     0.0000000     2.5358620
  C        0.0000000    -0.0448564    -1.8353245
  H        0.0030420    -2.1363990    -0.1247460
  H       -0.0030420     2.1363990    -0.1247460
  H        0.0031530    -2.1518800     2.3731470
  H       -0.0031530     2.1518800     2.3731470
  H        0.0000000     0.0000000     3.6238220
units angstrom
no_reorient  #important for SAPT in psi4, default
symmetry c1  #important for SAPT in psi4, default
}

set PROPERTIES_ORIGIN ["COM"]
properties('MP2/aug-cc-pvtz', properties = ['dipole'])
--------------------------------------------------------------------------

    Molecular point group: c1
  Charge       = -1
  Multiplicity = 1
  Basis Set: AUG-CC-PVTZ
    Blend: AUG-CC-PVTZ
  Basis Set: (AUG-CC-PVTZ AUX)
    Blend: AUG-CC-PVTZ-JKFIT

    Orbital Energies [Eh]
    ---------------------

    Doubly Occupied:

       1A    -20.317940     2A    -20.296957     3A    -11.156305
       4A    -11.116716     5A    -11.111746     6A    -11.111501
       7A    -11.099027     8A    -11.098884     9A    -11.091455
      10A     -1.192912    11A     -1.075217    12A     -1.016157
      13A     -0.882592    14A     -0.881237    15A     -0.701484
      16A     -0.690355    17A     -0.592753    18A     -0.544014
      19A     -0.490127    20A     -0.484333    21A     -0.459361
      22A     -0.455009    23A     -0.408018    24A     -0.393315
      25A     -0.378864    26A     -0.354703    27A     -0.354273
      28A     -0.229012    29A     -0.216593    30A     -0.212873
      31A     -0.203279    32A     -0.195242

  @DF-RHF Final Energy:  -417.90609440691441

   => Energetics <=

    Nuclear Repulsion Energy =            390.7187015864689670
    One-Electron Energy =               -1355.6250801766811946
    Two-Electron Energy =                 547.0002841832978220
    Total Energy =                       -417.9060944069143488
  Basis Set: (AUG-CC-PVTZ AUX)
    Blend: AUG-CC-PVTZ-RI
    Molecular point group: c1

    Geometry (in Angstrom), charge = -1, multiplicity = 1:

       Center              X                  Y                   Z               Mass
    ------------   -----------------  -----------------  -----------------  -----------------
         O            0.000000000000     1.140819504340    -2.304253823680    15.994914619570
         O            0.000000000000    -1.131924495660    -2.304253823680    15.994914619570
         C            0.000000000000     0.004447504340    -0.211697823680    12.000000000000
         C            0.001718000000    -1.200685495660     0.503197176320    12.000000000000
         C           -0.001718000000     1.209580504340     0.503197176320    12.000000000000
         C            0.001761000000    -1.203502495660     1.899780176320    12.000000000000
         C           -0.001761000000     1.212397504340     1.899780176320    12.000000000000
         C            0.000000000000     0.004447504340     2.604424176320    12.000000000000
         C            0.000000000000    -0.040408895660    -1.766762323680    12.000000000000
         H            0.003042000000    -2.131951495660    -0.056183823680     1.007825032230
         H           -0.003042000000     2.140846504340    -0.056183823680     1.007825032230
         H            0.003153000000    -2.147432495660     2.441709176320     1.007825032230
         H           -0.003153000000     2.156327504340     2.441709176320     1.007825032230
         H            0.000000000000     0.004447504340     3.692384176320     1.007825032230

  Basis Set: AUG-CC-PVTZ
    Blend: AUG-CC-PVTZ
  Basis Set: (AUG-CC-PVTZ AUX)
    Blend: AUG-CC-PVTZ-JKFIT
	 Reference Energy          =    -417.9060944069144057 [Eh]
	 Singles Energy            =      -0.0000000000000000 [Eh]
	 Same-Spin Energy          =      -0.4428365395666137 [Eh]
	 Opposite-Spin Energy      =      -1.3199743557643442 [Eh]
	 Correlation Energy        =      -1.7628108953309578 [Eh]
	 Total Energy              =    -419.6689053022453777 [Eh]

	 ================> DF-SCS-MP2 Energies <==================
	-----------------------------------------------------------
	 SCS Same-Spin Scale       =       0.3333333333333333 [-]
	 SCS Opposite-Spin Scale   =       1.2000000000000000 [-]
	 SCS Same-Spin Energy      =      -0.1476121798555379 [Eh]
	 SCS Opposite-Spin Energy  =      -1.5839692269172130 [Eh]
	 SCS Correlation Energy    =      -1.7315814067727509 [Eh]
	 SCS Total Energy          =    -419.6376758136871672 [Eh]
	-----------------------------------------------------------

  Dipole Moment: [D]
     X:    -0.0001      Y:    -0.4279      Z:     8.6551     Total:     8.6657

*** Psi4 exiting successfully. Buy a developer a beer!
