                               Psi4 1.3.2 release

  ==> Input File <==

--------------------------------------------------------------------------
#psi4
#
memory 32 gb

molecule  {
-1 1
  O        2.3621300     1.1457750    -0.0000250
  O        2.3621310    -1.1457740    -0.0000570
  C        0.2818590     0.0000000    -0.0000440
  C       -0.3913095    -1.2279153    -0.0001230
  C       -0.4337540     1.2036740     0.0001100
  C       -1.8301680    -1.2073330    -0.0000540
  C       -1.8301700     1.2073330     0.0001830
  C       -2.5366520     0.0000000     0.0001000
  C        1.8307920     0.0000000    -0.0001120
  H        0.1460340    -2.1233920    -0.0002260
  H        0.1460330     2.1233920     0.0001590
  H       -2.3743460    -2.1522190    -0.0001220
  H       -2.3743480     2.1522190     0.0003060
  H       -3.6263880    -0.0000020     0.0001550
units angstrom
no_reorient  #important for SAPT in psi4, default
symmetry c1  #important for SAPT in psi4, default
}

set PROPERTIES_ORIGIN ["COM"]
properties('MP2/aug-cc-pvtz', properties = ['dipole'])
--------------------------------------------------------------------------

    Molecular point group: c1
  Charge       = -1
  Multiplicity = 1
  Basis Set: AUG-CC-PVTZ
    Blend: AUG-CC-PVTZ
  Basis Set: (AUG-CC-PVTZ AUX)
    Blend: AUG-CC-PVTZ-JKFIT

    Orbital Energies [Eh]
    ---------------------

    Doubly Occupied:

       1A    -20.308806     2A    -20.308726     3A    -11.157599
       4A    -11.117703     5A    -11.116251     6A    -11.112375
       7A    -11.100015     8A    -11.099039     9A    -11.090282
      10A     -1.179438    11A     -1.082703    12A     -1.012206
      13A     -0.883525    14A     -0.876950    15A     -0.698721
      16A     -0.694485    17A     -0.591350    18A     -0.547274
      19A     -0.489024    20A     -0.485857    21A     -0.456782
      22A     -0.453320    23A     -0.408630    24A     -0.390136
      25A     -0.376316    26A     -0.358718    27A     -0.349681
      28A     -0.228687    29A     -0.220429    30A     -0.212252
      31A     -0.199278    32A     -0.198714

  @DF-RHF Final Energy:  -417.90478399754818

   => Energetics <=

    Nuclear Repulsion Energy =            390.3500674788115816
    One-Electron Energy =               -1354.8991564204893621
    Two-Electron Energy =                 546.6443049441296580
    Total Energy =                       -417.9047839975481793
  Basis Set: (AUG-CC-PVTZ AUX)
    Blend: AUG-CC-PVTZ-RI
    Molecular point group: c1

    Geometry (in Angstrom), charge = -1, multiplicity = 1:

       Center              X                  Y                   Z               Mass
    ------------   -----------------  -----------------  -----------------  -----------------
         O            2.291857092787     1.148178405220    -0.000022377036    15.994914619570
         O            2.291858092787    -1.143370594780    -0.000054377036    15.994914619570
         C            0.211586092787     0.002403405220    -0.000041377036    12.000000000000
         C           -0.461582407213    -1.225511894780    -0.000120377036    12.000000000000
         C           -0.504026907213     1.206077405220     0.000112622964    12.000000000000
         C           -1.900440907213    -1.204929594780    -0.000051377036    12.000000000000
         C           -1.900442907213     1.209736405220     0.000185622964    12.000000000000
         C           -2.606924907213     0.002403405220     0.000102622964    12.000000000000
         C            1.760519092787     0.002403405220    -0.000109377036    12.000000000000
         H            0.075761092787    -2.120988594780    -0.000223377036     1.007825032230
         H            0.075760092787     2.125795405220     0.000161622964     1.007825032230
         H           -2.444618907213    -2.149815594780    -0.000119377036     1.007825032230
         H           -2.444620907213     2.154622405220     0.000308622964     1.007825032230
         H           -3.696660907213     0.002401405220     0.000157622964     1.007825032230

  Basis Set: AUG-CC-PVTZ
    Blend: AUG-CC-PVTZ
  Basis Set: (AUG-CC-PVTZ AUX)
    Blend: AUG-CC-PVTZ-JKFIT
	 Reference Energy          =    -417.9047839975481793 [Eh]
	 Singles Energy            =      -0.0000000000000000 [Eh]
	 Same-Spin Energy          =      -0.4431520538153102 [Eh]
	 Opposite-Spin Energy      =      -1.3210294523349506 [Eh]
	 Correlation Energy        =      -1.7641815061502608 [Eh]
	 Total Energy              =    -419.6689655036984163 [Eh]

	 ================> DF-SCS-MP2 Energies <==================
	-----------------------------------------------------------
	 SCS Same-Spin Scale       =       0.3333333333333333 [-]
	 SCS Opposite-Spin Scale   =       1.2000000000000000 [-]
	 SCS Same-Spin Energy      =      -0.1477173512717700 [Eh]
	 SCS Opposite-Spin Energy  =      -1.5852353428019408 [Eh]
	 SCS Correlation Energy    =      -1.7329526940737108 [Eh]
	 SCS Total Energy          =    -419.6377366916219103 [Eh]
	-----------------------------------------------------------

  Dipole Moment: [D]
     X:    -8.5860      Y:    -0.0188      Z:     0.0001     Total:     8.5860

*** Psi4 exiting successfully. Buy a developer a beer!
