                               Psi4 1.3.2 release

  ==> Input File <==

--------------------------------------------------------------------------
#psi4
#
memory 32 gb

molecule  {
-1 1
  O        2.3621300     1.1457750    -0.0000250
  O        2.3621310    -1.1457740    -0.0000570
  C        0.2818590     0.0000000    -0.0000440
  C       -0.4546510    -1.1910015    -0.0001170
  C       -0.4337540     1.2036740     0.0001100
  C       -1.8301680    -1.2073330    -0.0000540
  C       -1.8301700     1.2073330     0.0001830
  C       -2.5366520     0.0000000     0.0001000
  C        1.8307920     0.0000000    -0.0001120
  H        0.1460340    -2.1233920    -0.0002260
  H        0.1460330     2.1233920     0.0001590
  H       -2.3743460    -2.1522190    -0.0001220
  H       -2.3743480     2.1522190     0.0003060
  H       -3.6263880    -0.0000020     0.0001550
units angstrom
no_reorient  #important for SAPT in psi4, default
symmetry c1  #important for SAPT in psi4, default
}

set PROPERTIES_ORIGIN ["COM"]
properties('MP2/aug-cc-pvtz', properties = ['dipole'])
--------------------------------------------------------------------------

    Molecular point group: c1
  Charge       = -1
  Multiplicity = 1
  Basis Set: AUG-CC-PVTZ
    Blend: AUG-CC-PVTZ
  Basis Set: (AUG-CC-PVTZ AUX)
    Blend: AUG-CC-PVTZ-JKFIT

    Orbital Energies [Eh]
    ---------------------

    Doubly Occupied:

       1A    -20.309863     2A    -20.309823     3A    -11.159721
       4A    -11.116978     5A    -11.111602     6A    -11.109454
       7A    -11.097864     8A    -11.097365     9A    -11.089968
      10A     -1.180233    11A     -1.083498    12A     -1.018208
      13A     -0.883404    14A     -0.881578    15A     -0.702575
      16A     -0.688612    17A     -0.593398    18A     -0.543468
      19A     -0.492034    20A     -0.480861    21A     -0.456502
      22A     -0.453676    23A     -0.408733    24A     -0.392321
      25A     -0.379715    26A     -0.352765    27A     -0.347414
      28A     -0.229509    29A     -0.222662    30A     -0.214835
      31A     -0.203824    32A     -0.196556

  @DF-RHF Final Energy:  -417.90726689389862

   => Energetics <=

    Nuclear Repulsion Energy =            390.9998507787832978
    One-Electron Energy =               -1356.1962059074692206
    Two-Electron Energy =                 547.2890882347873003
    Total Energy =                       -417.9072668938986226
  Basis Set: (AUG-CC-PVTZ AUX)
    Blend: AUG-CC-PVTZ-RI
    Molecular point group: c1

    Geometry (in Angstrom), charge = -1, multiplicity = 1:

       Center              X                  Y                   Z               Mass
    ------------   -----------------  -----------------  -----------------  -----------------
         O            2.298137391611     1.144518408302    -0.000022971935    15.994914619570
         O            2.298138391611    -1.147030591698    -0.000054971935    15.994914619570
         C            0.217866391611    -0.001256591698    -0.000041971935    12.000000000000
         C           -0.518643608389    -1.192258091698    -0.000114971935    12.000000000000
         C           -0.497746608389     1.202417408302     0.000112028065    12.000000000000
         C           -1.894160608389    -1.208589591698    -0.000051971935    12.000000000000
         C           -1.894162608389     1.206076408302     0.000185028065    12.000000000000
         C           -2.600644608389    -0.001256591698     0.000102028065    12.000000000000
         C            1.766799391611    -0.001256591698    -0.000109971935    12.000000000000
         H            0.082041391611    -2.124648591698    -0.000223971935     1.007825032230
         H            0.082040391611     2.122135408302     0.000161028065     1.007825032230
         H           -2.438338608389    -2.153475591698    -0.000119971935     1.007825032230
         H           -2.438340608389     2.150962408302     0.000308028065     1.007825032230
         H           -3.690380608389    -0.001258591698     0.000157028065     1.007825032230

  Basis Set: AUG-CC-PVTZ
    Blend: AUG-CC-PVTZ
  Basis Set: (AUG-CC-PVTZ AUX)
    Blend: AUG-CC-PVTZ-JKFIT
	 Reference Energy          =    -417.9072668938986226 [Eh]
	 Singles Energy            =      -0.0000000000000000 [Eh]
	 Same-Spin Energy          =      -0.4433495782747572 [Eh]
	 Opposite-Spin Energy      =      -1.3208338562143787 [Eh]
	 Correlation Energy        =      -1.7641834344891358 [Eh]
	 Total Energy              =    -419.6714503283877775 [Eh]

	 ================> DF-SCS-MP2 Energies <==================
	-----------------------------------------------------------
	 SCS Same-Spin Scale       =       0.3333333333333333 [-]
	 SCS Opposite-Spin Scale   =       1.2000000000000000 [-]
	 SCS Same-Spin Energy      =      -0.1477831927582524 [Eh]
	 SCS Opposite-Spin Energy  =      -1.5850006274572543 [Eh]
	 SCS Correlation Energy    =      -1.7327838202155068 [Eh]
	 SCS Total Energy          =    -419.6400507141141247 [Eh]
	-----------------------------------------------------------

  Dipole Moment: [D]
     X:    -8.5845      Y:     0.0129      Z:     0.0001     Total:     8.5845

*** Psi4 exiting successfully. Buy a developer a beer!
