                               Psi4 1.3.2 release

  ==> Input File <==

--------------------------------------------------------------------------
#psi4
#
memory 32 gb

molecule  {
-1 1
  O        2.3621300     1.1457750    -0.0000250
  O        2.3621310    -1.1457740    -0.0000570
  C        0.2818590     0.0000000    -0.0000440
  C       -0.4337530    -1.2036740    -0.0001190
  C       -0.4337540     1.2036740     0.0001100
  C       -1.8301680    -1.2073330    -0.0000540
  C       -1.8301700     1.2073330     0.0001830
  C       -2.5366520     0.0000000     0.0001000
  C        1.6307920     0.0000000    -0.0001032
  H        0.1460340    -2.1233920    -0.0002260
  H        0.1460330     2.1233920     0.0001590
  H       -2.3743460    -2.1522190    -0.0001220
  H       -2.3743480     2.1522190     0.0003060
  H       -3.6263880    -0.0000020     0.0001550
units angstrom
no_reorient  #important for SAPT in psi4, default
symmetry c1  #important for SAPT in psi4, default
}

set PROPERTIES_ORIGIN ["COM"]
properties('MP2/aug-cc-pvtz', properties = ['dipole'])
--------------------------------------------------------------------------

    Molecular point group: c1
  Charge       = -1
  Multiplicity = 1
  Basis Set: AUG-CC-PVTZ
    Blend: AUG-CC-PVTZ
  Basis Set: (AUG-CC-PVTZ AUX)
    Blend: AUG-CC-PVTZ-JKFIT

    Orbital Energies [Eh]
    ---------------------

    Doubly Occupied:

       1A    -20.299899     2A    -20.299867     3A    -11.156267
       4A    -11.133018     5A    -11.121911     6A    -11.121832
       7A    -11.114773     8A    -11.114744     9A    -11.093887
      10A     -1.128033    11A     -1.030323    12A     -1.016849
      13A     -0.912178    14A     -0.893627    15A     -0.745506
      16A     -0.705105    17A     -0.621528    18A     -0.559829
      19A     -0.508237    20A     -0.491097    21A     -0.465844
      22A     -0.440123    23A     -0.399960    24A     -0.384993
      25A     -0.383859    26A     -0.338381    27A     -0.327110
      28A     -0.234883    29A     -0.219332    30A     -0.202820
      31A     -0.194233    32A     -0.178222

  @DF-RHF Final Energy:  -417.84772945095625

   => Energetics <=

    Nuclear Repulsion Energy =            391.7347866817893305
    One-Electron Energy =               -1357.4884898235643504
    Two-Electron Energy =                 547.9059736908187688
    Total Energy =                       -417.8477294509563080
  Basis Set: (AUG-CC-PVTZ AUX)
    Blend: AUG-CC-PVTZ-RI
    Molecular point group: c1

    Geometry (in Angstrom), charge = -1, multiplicity = 1:

       Center              X                  Y                   Z               Mass
    ------------   -----------------  -----------------  -----------------  -----------------
         O            2.315895324088     1.145774884497    -0.000023646154    15.994914619570
         O            2.315896324088    -1.145774115503    -0.000055646154    15.994914619570
         C            0.235624324088    -0.000000115503    -0.000042646154    12.000000000000
         C           -0.479987675912    -1.203674115503    -0.000117646154    12.000000000000
         C           -0.479988675912     1.203673884497     0.000111353846    12.000000000000
         C           -1.876402675912    -1.207333115503    -0.000052646154    12.000000000000
         C           -1.876404675912     1.207332884497     0.000184353846    12.000000000000
         C           -2.582886675912    -0.000000115503     0.000101353846    12.000000000000
         C            1.584557324088    -0.000000115503    -0.000101846154    12.000000000000
         H            0.099799324088    -2.123392115503    -0.000224646154     1.007825032230
         H            0.099798324088     2.123391884497     0.000160353846     1.007825032230
         H           -2.420580675912    -2.152219115503    -0.000120646154     1.007825032230
         H           -2.420582675912     2.152218884497     0.000307353846     1.007825032230
         H           -3.672622675912    -0.000002115503     0.000156353846     1.007825032230

  Basis Set: AUG-CC-PVTZ
    Blend: AUG-CC-PVTZ
  Basis Set: (AUG-CC-PVTZ AUX)
    Blend: AUG-CC-PVTZ-JKFIT
	 Reference Energy          =    -417.8477294509562512 [Eh]
	 Singles Energy            =      -0.0000000000000000 [Eh]
	 Same-Spin Energy          =      -0.4488934798595370 [Eh]
	 Opposite-Spin Energy      =      -1.3333485548485693 [Eh]
	 Correlation Energy        =      -1.7822420347081063 [Eh]
	 Total Energy              =    -419.6299714856643845 [Eh]

	 ================> DF-SCS-MP2 Energies <==================
	-----------------------------------------------------------
	 SCS Same-Spin Scale       =       0.3333333333333333 [-]
	 SCS Opposite-Spin Scale   =       1.2000000000000000 [-]
	 SCS Same-Spin Energy      =      -0.1496311599531790 [Eh]
	 SCS Opposite-Spin Energy  =      -1.6000182658182831 [Eh]
	 SCS Correlation Energy    =      -1.7496494257714621 [Eh]
	 SCS Total Energy          =    -419.5973788767277028 [Eh]
	-----------------------------------------------------------

  Dipole Moment: [D]
     X:    -9.8445      Y:    -0.0000      Z:     0.0002     Total:     9.8445

*** Psi4 exiting successfully. Buy a developer a beer!
