                               Psi4 1.3.2 release

  ==> Input File <==

--------------------------------------------------------------------------
#psi4
#
memory 32 gb

molecule  {
-1 1
  O        2.3621300     1.1457750    -0.0000250
  O        2.3621310    -1.1457740    -0.0000570
  C        0.2818590     0.0000000    -0.0000440
  C       -0.3480458    -1.2506605    -0.0001269
  C       -0.4337540     1.2036740     0.0001100
  C       -1.8301680    -1.2073330    -0.0000540
  C       -1.8301700     1.2073330     0.0001830
  C       -2.5366520     0.0000000     0.0001000
  C        1.8307920     0.0000000    -0.0001120
  H        0.1460340    -2.1233920    -0.0002260
  H        0.1460330     2.1233920     0.0001590
  H       -2.3743460    -2.1522190    -0.0001220
  H       -2.3743480     2.1522190     0.0003060
  H       -3.6263880    -0.0000020     0.0001550
units angstrom
no_reorient  #important for SAPT in psi4, default
symmetry c1  #important for SAPT in psi4, default
}

set PROPERTIES_ORIGIN ["COM"]
properties('MP2/aug-cc-pvtz', properties = ['dipole'])
--------------------------------------------------------------------------

    Molecular point group: c1
  Charge       = -1
  Multiplicity = 1
  Basis Set: AUG-CC-PVTZ
    Blend: AUG-CC-PVTZ
  Basis Set: (AUG-CC-PVTZ AUX)
    Blend: AUG-CC-PVTZ-JKFIT

    Orbital Energies [Eh]
    ---------------------

    Doubly Occupied:

       1A    -20.308181     2A    -20.308010     3A    -11.156260
       4A    -11.120961     5A    -11.117637     6A    -11.112970
       7A    -11.101906     8A    -11.099940     9A    -11.090854
      10A     -1.178983    11A     -1.082244    12A     -1.008955
      13A     -0.884827    14A     -0.873356    15A     -0.701138
      16A     -0.694276    17A     -0.590400    18A     -0.551020
      19A     -0.494227    20A     -0.484830    21A     -0.456716
      22A     -0.450868    23A     -0.408572    24A     -0.389036
      25A     -0.376655    26A     -0.360048    27A     -0.347893
      28A     -0.228181    29A     -0.218857    30A     -0.211228
      31A     -0.200395    32A     -0.195825

  @DF-RHF Final Energy:  -417.89501558578434

   => Energetics <=

    Nuclear Repulsion Energy =            389.9742422076745356
    One-Electron Energy =               -1354.1280221583301682
    Two-Electron Energy =                 546.2587643648713538
    Total Energy =                       -417.8950155857843356
  Basis Set: (AUG-CC-PVTZ AUX)
    Blend: AUG-CC-PVTZ-RI
    Molecular point group: c1

    Geometry (in Angstrom), charge = -1, multiplicity = 1:

       Center              X                  Y                   Z               Mass
    ------------   -----------------  -----------------  -----------------  -----------------
         O            2.287567504377     1.150433587885    -0.000021990352    15.994914619570
         O            2.287568504377    -1.141115412115    -0.000053990352    15.994914619570
         C            0.207296504377     0.004658587885    -0.000040990352    12.000000000000
         C           -0.422608295623    -1.246001912115    -0.000123890352    12.000000000000
         C           -0.508316495623     1.208332587885     0.000113009648    12.000000000000
         C           -1.904730495623    -1.202674412115    -0.000050990352    12.000000000000
         C           -1.904732495623     1.211991587885     0.000186009648    12.000000000000
         C           -2.611214495623     0.004658587885     0.000103009648    12.000000000000
         C            1.756229504377     0.004658587885    -0.000108990352    12.000000000000
         H            0.071471504377    -2.118733412115    -0.000222990352     1.007825032230
         H            0.071470504377     2.128050587885     0.000162009648     1.007825032230
         H           -2.448908495623    -2.147560412115    -0.000118990352     1.007825032230
         H           -2.448910495623     2.156877587885     0.000309009648     1.007825032230
         H           -3.700950495623     0.004656587885     0.000158009648     1.007825032230

  Basis Set: AUG-CC-PVTZ
    Blend: AUG-CC-PVTZ
  Basis Set: (AUG-CC-PVTZ AUX)
    Blend: AUG-CC-PVTZ-JKFIT
	 Reference Energy          =    -417.8950155857843356 [Eh]
	 Singles Energy            =      -0.0000000000000000 [Eh]
	 Same-Spin Energy          =      -0.4431350389767470 [Eh]
	 Opposite-Spin Energy      =      -1.3216394216567009 [Eh]
	 Correlation Energy        =      -1.7647744606334479 [Eh]
	 Total Energy              =    -419.6597900464178110 [Eh]

	 ================> DF-SCS-MP2 Energies <==================
	-----------------------------------------------------------
	 SCS Same-Spin Scale       =       0.3333333333333333 [-]
	 SCS Opposite-Spin Scale   =       1.2000000000000000 [-]
	 SCS Same-Spin Energy      =      -0.1477116796589157 [Eh]
	 SCS Opposite-Spin Energy  =      -1.5859673059880410 [Eh]
	 SCS Correlation Energy    =      -1.7336789856469568 [Eh]
	 SCS Total Energy          =    -419.6286945714313106 [Eh]
	-----------------------------------------------------------

  Dipole Moment: [D]
     X:    -8.5826      Y:    -0.0291      Z:     0.0001     Total:     8.5827

*** Psi4 exiting successfully. Buy a developer a beer!
