                               Psi4 1.3.2 release

  ==> Input File <==

--------------------------------------------------------------------------
#psi4
#
memory 32 gb

molecule  {
-1 1
  O        2.4789854     1.0839584    -0.0000102
  O        2.3621310    -1.1457740    -0.0000570
  C        0.2818590     0.0000000    -0.0000440
  C       -0.4337530    -1.2036740    -0.0001190
  C       -0.4337540     1.2036740     0.0001100
  C       -1.8301680    -1.2073330    -0.0000540
  C       -1.8301700     1.2073330     0.0001830
  C       -2.5366520     0.0000000     0.0001000
  C        1.8307920     0.0000000    -0.0001120
  H        0.1460340    -2.1233920    -0.0002260
  H        0.1460330     2.1233920     0.0001590
  H       -2.3743460    -2.1522190    -0.0001220
  H       -2.3743480     2.1522190     0.0003060
  H       -3.6263880    -0.0000020     0.0001550
units angstrom
no_reorient  #important for SAPT in psi4, default
symmetry c1  #important for SAPT in psi4, default
}

set PROPERTIES_ORIGIN ["COM"]
properties('MP2/aug-cc-pvtz', properties = ['dipole'])
--------------------------------------------------------------------------

    Molecular point group: c1
  Charge       = -1
  Multiplicity = 1
  Basis Set: AUG-CC-PVTZ
    Blend: AUG-CC-PVTZ
  Basis Set: (AUG-CC-PVTZ AUX)
    Blend: AUG-CC-PVTZ-JKFIT

    Orbital Energies [Eh]
    ---------------------

    Doubly Occupied:

       1A    -20.305052     2A    -20.300982     3A    -11.155347
       4A    -11.120716     5A    -11.115422     6A    -11.115088
       7A    -11.103131     8A    -11.102359     9A    -11.096668
      10A     -1.178420    11A     -1.071143    12A     -1.020041
      13A     -0.886897    14A     -0.884664    15A     -0.704960
      16A     -0.694494    17A     -0.595746    18A     -0.545571
      19A     -0.493821    20A     -0.485463    21A     -0.457807
      22A     -0.454986    23A     -0.401616    24A     -0.391553
      25A     -0.382047    26A     -0.355364    27A     -0.351480
      28A     -0.226268    29A     -0.217163    30A     -0.213022
      31A     -0.202301    32A     -0.197543

  @DF-RHF Final Energy:  -417.90571962126899

   => Energetics <=

    Nuclear Repulsion Energy =            389.8860349083333858
    One-Electron Energy =               -1353.9292427362672697
    Two-Electron Energy =                 546.1374882066648979
    Total Energy =                       -417.9057196212689860
  Basis Set: (AUG-CC-PVTZ AUX)
    Blend: AUG-CC-PVTZ-RI
    Molecular point group: c1

    Geometry (in Angstrom), charge = -1, multiplicity = 1:

       Center              X                  Y                   Z               Mass
    ------------   -----------------  -----------------  -----------------  -----------------
         O            2.397477411458     1.092127827429    -0.000009929570    15.994914619570
         O            2.280623011458    -1.137604572571    -0.000056729570    15.994914619570
         C            0.200351011458     0.008169427429    -0.000043729570    12.000000000000
         C           -0.515260988542    -1.195504572571    -0.000118729570    12.000000000000
         C           -0.515261988542     1.211843427429     0.000110270430    12.000000000000
         C           -1.911675988542    -1.199163572571    -0.000053729570    12.000000000000
         C           -1.911677988542     1.215502427429     0.000183270430    12.000000000000
         C           -2.618159988542     0.008169427429     0.000100270430    12.000000000000
         C            1.749284011458     0.008169427429    -0.000111729570    12.000000000000
         H            0.064526011458    -2.115222572571    -0.000225729570     1.007825032230
         H            0.064525011458     2.131561427429     0.000159270430     1.007825032230
         H           -2.455853988542    -2.144049572571    -0.000121729570     1.007825032230
         H           -2.455855988542     2.160388427429     0.000306270430     1.007825032230
         H           -3.707895988542     0.008167427429     0.000155270430     1.007825032230

  Basis Set: AUG-CC-PVTZ
    Blend: AUG-CC-PVTZ
  Basis Set: (AUG-CC-PVTZ AUX)
    Blend: AUG-CC-PVTZ-JKFIT
	 Reference Energy          =    -417.9057196212689860 [Eh]
	 Singles Energy            =      -0.0000000000000000 [Eh]
	 Same-Spin Energy          =      -0.4430177300478155 [Eh]
	 Opposite-Spin Energy      =      -1.3206525547743264 [Eh]
	 Correlation Energy        =      -1.7636702848221419 [Eh]
	 Total Energy              =    -419.6693899060911122 [Eh]

	 ================> DF-SCS-MP2 Energies <==================
	-----------------------------------------------------------
	 SCS Same-Spin Scale       =       0.3333333333333333 [-]
	 SCS Opposite-Spin Scale   =       1.2000000000000000 [-]
	 SCS Same-Spin Energy      =      -0.1476725766826052 [Eh]
	 SCS Opposite-Spin Energy  =      -1.5847830657291917 [Eh]
	 SCS Correlation Energy    =      -1.7324556424117969 [Eh]
	 SCS Total Energy          =    -419.6381752636808073 [Eh]
	-----------------------------------------------------------

  Dipole Moment: [D]
     X:    -9.0312      Y:     0.0676      Z:     0.0001     Total:     9.0314

*** Psi4 exiting successfully. Buy a developer a beer!
