                               Psi4 1.3.2 release

  ==> Input File <==

--------------------------------------------------------------------------
#psi4
#
memory 32 gb

molecule  {
-1 1
  O        2.3820456     1.1363274    -0.0000225
  O        2.3621310    -1.1457740    -0.0000570
  C        0.2818590     0.0000000    -0.0000440
  C       -0.4337530    -1.2036740    -0.0001190
  C       -0.4337540     1.2036740     0.0001100
  C       -1.8301680    -1.2073330    -0.0000540
  C       -1.8301700     1.2073330     0.0001830
  C       -2.5366520     0.0000000     0.0001000
  C        1.8307920     0.0000000    -0.0001120
  H        0.1460340    -2.1233920    -0.0002260
  H        0.1460330     2.1233920     0.0001590
  H       -2.3743460    -2.1522190    -0.0001220
  H       -2.3743480     2.1522190     0.0003060
  H       -3.6263880    -0.0000020     0.0001550
units angstrom
no_reorient  #important for SAPT in psi4, default
symmetry c1  #important for SAPT in psi4, default
}

set PROPERTIES_ORIGIN ["COM"]
properties('MP2/aug-cc-pvtz', properties = ['dipole'])
--------------------------------------------------------------------------

    Molecular point group: c1
  Charge       = -1
  Multiplicity = 1
  Basis Set: AUG-CC-PVTZ
    Blend: AUG-CC-PVTZ
  Basis Set: (AUG-CC-PVTZ AUX)
    Blend: AUG-CC-PVTZ-JKFIT

    Orbital Energies [Eh]
    ---------------------

    Doubly Occupied:

       1A    -20.308789     2A    -20.308082     3A    -11.158377
       4A    -11.117760     5A    -11.112515     6A    -11.112357
       7A    -11.099089     8A    -11.098935     9A    -11.091132
      10A     -1.179631    11A     -1.081259    12A     -1.016740
      13A     -0.883134    14A     -0.881634    15A     -0.701726
      16A     -0.691321    17A     -0.593170    18A     -0.544652
      19A     -0.490842    20A     -0.483132    21A     -0.456265
      22A     -0.454814    23A     -0.407531    24A     -0.391462
      25A     -0.379068    26A     -0.352661    27A     -0.351706
      28A     -0.227372    29A     -0.222708    30A     -0.213303
      31A     -0.202195    32A     -0.197950

  @DF-RHF Final Energy:  -417.90817129545195

   => Energetics <=

    Nuclear Repulsion Energy =            390.6081012847806733
    One-Electron Energy =               -1355.4099234576622166
    Two-Electron Energy =                 546.8936508774295362
    Total Energy =                       -417.9081712954520071
  Basis Set: (AUG-CC-PVTZ AUX)
    Blend: AUG-CC-PVTZ-RI
    Molecular point group: c1

    Geometry (in Angstrom), charge = -1, multiplicity = 1:

       Center              X                  Y                   Z               Mass
    ------------   -----------------  -----------------  -----------------  -----------------
         O            2.313348957569     1.137575858080    -0.000020604030    15.994914619570
         O            2.293434357569    -1.144525541920    -0.000055104030    15.994914619570
         C            0.213162357569     0.001248458080    -0.000042104030    12.000000000000
         C           -0.502449642431    -1.202425541920    -0.000117104030    12.000000000000
         C           -0.502450642431     1.204922458080     0.000111895970    12.000000000000
         C           -1.898864642431    -1.206084541920    -0.000052104030    12.000000000000
         C           -1.898866642431     1.208581458080     0.000184895970    12.000000000000
         C           -2.605348642431     0.001248458080     0.000101895970    12.000000000000
         C            1.762095357569     0.001248458080    -0.000110104030    12.000000000000
         H            0.077337357569    -2.122143541920    -0.000224104030     1.007825032230
         H            0.077336357569     2.124640458080     0.000160895970     1.007825032230
         H           -2.443042642431    -2.150970541920    -0.000120104030     1.007825032230
         H           -2.443044642431     2.153467458080     0.000307895970     1.007825032230
         H           -3.695084642431     0.001246458080     0.000156895970     1.007825032230

  Basis Set: AUG-CC-PVTZ
    Blend: AUG-CC-PVTZ
  Basis Set: (AUG-CC-PVTZ AUX)
    Blend: AUG-CC-PVTZ-JKFIT
	 Reference Energy          =    -417.9081712954519503 [Eh]
	 Singles Energy            =      -0.0000000000000000 [Eh]
	 Same-Spin Energy          =      -0.4431986211155494 [Eh]
	 Opposite-Spin Energy      =      -1.3207399882019084 [Eh]
	 Correlation Energy        =      -1.7639386093174578 [Eh]
	 Total Energy              =    -419.6721099047693997 [Eh]

	 ================> DF-SCS-MP2 Energies <==================
	-----------------------------------------------------------
	 SCS Same-Spin Scale       =       0.3333333333333333 [-]
	 SCS Opposite-Spin Scale   =       1.2000000000000000 [-]
	 SCS Same-Spin Energy      =      -0.1477328737051831 [Eh]
	 SCS Opposite-Spin Energy  =      -1.5848879858422900 [Eh]
	 SCS Correlation Energy    =      -1.7326208595474730 [Eh]
	 SCS Total Energy          =    -419.6407921549994171 [Eh]
	-----------------------------------------------------------

  Dipole Moment: [D]
     X:    -8.6621      Y:     0.0095      Z:     0.0001     Total:     8.6621

*** Psi4 exiting successfully. Buy a developer a beer!
