                               Psi4 1.3.2 release

  ==> Input File <==

--------------------------------------------------------------------------
#psi4
#
memory 32 gb

molecule  {
-1 1
  O        2.3218194     1.1636205    -0.0000301
  O        2.3621310    -1.1457740    -0.0000570
  C        0.2818590     0.0000000    -0.0000440
  C       -0.4337530    -1.2036740    -0.0001190
  C       -0.4337540     1.2036740     0.0001100
  C       -1.8301680    -1.2073330    -0.0000540
  C       -1.8301700     1.2073330     0.0001830
  C       -2.5366520     0.0000000     0.0001000
  C        1.8307920     0.0000000    -0.0001120
  H        0.1460340    -2.1233920    -0.0002260
  H        0.1460330     2.1233920     0.0001590
  H       -2.3743460    -2.1522190    -0.0001220
  H       -2.3743480     2.1522190     0.0003060
  H       -3.6263880    -0.0000020     0.0001550
units angstrom
no_reorient  #important for SAPT in psi4, default
symmetry c1  #important for SAPT in psi4, default
}

set PROPERTIES_ORIGIN ["COM"]
properties('MP2/aug-cc-pvtz', properties = ['dipole'])
--------------------------------------------------------------------------

    Molecular point group: c1
  Charge       = -1
  Multiplicity = 1
  Basis Set: AUG-CC-PVTZ
    Blend: AUG-CC-PVTZ
  Basis Set: (AUG-CC-PVTZ AUX)
    Blend: AUG-CC-PVTZ-JKFIT

    Orbital Energies [Eh]
    ---------------------

    Doubly Occupied:

       1A    -20.312248     2A    -20.310799     3A    -11.160272
       4A    -11.115865     5A    -11.110718     6A    -11.110532
       7A    -11.096744     8A    -11.096479     9A    -11.087718
      10A     -1.180695    11A     -1.087098    12A     -1.014618
      13A     -0.880767    14A     -0.879651    15A     -0.699692
      16A     -0.689311    17A     -0.591555    18A     -0.544260
      19A     -0.489006    20A     -0.481596    21A     -0.456853
      22A     -0.453042    23A     -0.411030    24A     -0.391695
      25A     -0.377120    26A     -0.351562    27A     -0.350780
      28A     -0.232819    29A     -0.220263    30A     -0.215216
      31A     -0.202427    32A     -0.195731

  @DF-RHF Final Energy:  -417.90726041362655

   => Energetics <=

    Nuclear Repulsion Energy =            391.1195562566718991
    One-Electron Energy =               -1356.4573075481048363
    Two-Electron Energy =                 547.4304908778063918
    Total Energy =                       -417.9072604136265454
  Basis Set: (AUG-CC-PVTZ AUX)
    Blend: AUG-CC-PVTZ-RI
    Molecular point group: c1

    Geometry (in Angstrom), charge = -1, multiplicity = 1:

       Center              X                  Y                   Z               Mass
    ------------   -----------------  -----------------  -----------------  -----------------
         O            2.261082116812     1.161261963322    -0.000027199631    15.994914619570
         O            2.301393716812    -1.148132536678    -0.000054099631    15.994914619570
         C            0.221121716812    -0.002358536678    -0.000041099631    12.000000000000
         C           -0.494490283188    -1.206032536678    -0.000116099631    12.000000000000
         C           -0.494491283188     1.201315463322     0.000112900369    12.000000000000
         C           -1.890905283188    -1.209691536678    -0.000051099631    12.000000000000
         C           -1.890907283188     1.204974463322     0.000185900369    12.000000000000
         C           -2.597389283188    -0.002358536678     0.000102900369    12.000000000000
         C            1.770054716812    -0.002358536678    -0.000109099631    12.000000000000
         H            0.085296716812    -2.125750536678    -0.000223099631     1.007825032230
         H            0.085295716812     2.121033463322     0.000161900369     1.007825032230
         H           -2.435083283188    -2.154577536678    -0.000119099631     1.007825032230
         H           -2.435085283188     2.149860463322     0.000308900369     1.007825032230
         H           -3.687125283188    -0.002360536678     0.000157900369     1.007825032230

  Basis Set: AUG-CC-PVTZ
    Blend: AUG-CC-PVTZ
  Basis Set: (AUG-CC-PVTZ AUX)
    Blend: AUG-CC-PVTZ-JKFIT
	 Reference Energy          =    -417.9072604136265454 [Eh]
	 Singles Energy            =      -0.0000000000000000 [Eh]
	 Same-Spin Energy          =      -0.4434127490754822 [Eh]
	 Opposite-Spin Energy      =      -1.3209770284905105 [Eh]
	 Correlation Energy        =      -1.7643897775659927 [Eh]
	 Total Energy              =    -419.6716501911925548 [Eh]

	 ================> DF-SCS-MP2 Energies <==================
	-----------------------------------------------------------
	 SCS Same-Spin Scale       =       0.3333333333333333 [-]
	 SCS Opposite-Spin Scale   =       1.2000000000000000 [-]
	 SCS Same-Spin Energy      =      -0.1478042496918274 [Eh]
	 SCS Opposite-Spin Energy  =      -1.5851724341886124 [Eh]
	 SCS Correlation Energy    =      -1.7329766838804399 [Eh]
	 SCS Total Energy          =    -419.6402370975069971 [Eh]
	-----------------------------------------------------------

  Dipole Moment: [D]
     X:    -8.4295      Y:    -0.0170      Z:     0.0001     Total:     8.4295

*** Psi4 exiting successfully. Buy a developer a beer!
