                               Psi4 1.3.2 release

  ==> Input File <==

--------------------------------------------------------------------------
#psi4
#
memory 32 gb

molecule  {
-1 1
  O        2.3621300     1.1457750    -0.0000250
  O        2.3621310    -1.1457740    -0.0000570
  C        0.2818590     0.0000000    -0.0000440
  C       -0.4337530    -1.2036740    -0.0001190
  C       -0.4337540     1.2036740     0.0001100
  C       -1.8301680    -1.2073330    -0.0000540
  C       -1.8301700     1.2073330     0.0001830
  C       -2.5366520     0.0000000     0.0001000
  C        1.7307920     0.0000000    -0.0001076
  H        0.1460340    -2.1233920    -0.0002260
  H        0.1460330     2.1233920     0.0001590
  H       -2.3743460    -2.1522190    -0.0001220
  H       -2.3743480     2.1522190     0.0003060
  H       -3.6263880    -0.0000020     0.0001550
units angstrom
no_reorient  #important for SAPT in psi4, default
symmetry c1  #important for SAPT in psi4, default
}

set PROPERTIES_ORIGIN ["COM"]
properties('MP2/aug-cc-pvtz', properties = ['dipole'])
--------------------------------------------------------------------------

    Molecular point group: c1
  Charge       = -1
  Multiplicity = 1
  Basis Set: AUG-CC-PVTZ
    Blend: AUG-CC-PVTZ
  Basis Set: (AUG-CC-PVTZ AUX)
    Blend: AUG-CC-PVTZ-JKFIT

    Orbital Energies [Eh]
    ---------------------

    Doubly Occupied:

       1A    -20.304019     2A    -20.303986     3A    -11.157403
       4A    -11.124867     5A    -11.117121     6A    -11.117016
       7A    -11.106497     8A    -11.106441     9A    -11.094862
      10A     -1.153323    11A     -1.048917    12A     -1.023596
      13A     -0.896196    14A     -0.887469    15A     -0.721614
      16A     -0.697938    17A     -0.607653    18A     -0.552083
      19A     -0.499122    20A     -0.486556    21A     -0.460143
      22A     -0.449002    23A     -0.393422    24A     -0.390499
      25A     -0.381442    26A     -0.352295    27A     -0.339173
      28A     -0.232020    29A     -0.214616    30A     -0.211307
      31A     -0.201920    32A     -0.191607

  @DF-RHF Final Energy:  -417.89117798765761

   => Energetics <=

    Nuclear Repulsion Energy =            391.1995107385357073
    One-Electron Energy =               -1356.5331296351528181
    Two-Electron Energy =                 547.4424409089594974
    Total Energy =                       -417.8911779876575565
  Basis Set: (AUG-CC-PVTZ AUX)
    Blend: AUG-CC-PVTZ-RI
    Molecular point group: c1

    Geometry (in Angstrom), charge = -1, multiplicity = 1:

       Center              X                  Y                   Z               Mass
    ------------   -----------------  -----------------  -----------------  -----------------
         O            2.305980341298     1.145774884497    -0.000023209895    15.994914619570
         O            2.305981341298    -1.145774115503    -0.000055209895    15.994914619570
         C            0.225709341298    -0.000000115503    -0.000042209895    12.000000000000
         C           -0.489902658702    -1.203674115503    -0.000117209895    12.000000000000
         C           -0.489903658702     1.203673884497     0.000111790105    12.000000000000
         C           -1.886317658702    -1.207333115503    -0.000052209895    12.000000000000
         C           -1.886319658702     1.207332884497     0.000184790105    12.000000000000
         C           -2.592801658702    -0.000000115503     0.000101790105    12.000000000000
         C            1.674642341298    -0.000000115503    -0.000105809895    12.000000000000
         H            0.089884341298    -2.123392115503    -0.000224209895     1.007825032230
         H            0.089883341298     2.123391884497     0.000160790105     1.007825032230
         H           -2.430495658702    -2.152219115503    -0.000120209895     1.007825032230
         H           -2.430497658702     2.152218884497     0.000307790105     1.007825032230
         H           -3.682537658702    -0.000002115503     0.000156790105     1.007825032230

  Basis Set: AUG-CC-PVTZ
    Blend: AUG-CC-PVTZ
  Basis Set: (AUG-CC-PVTZ AUX)
    Blend: AUG-CC-PVTZ-JKFIT
	 Reference Energy          =    -417.8911779876576134 [Eh]
	 Singles Energy            =      -0.0000000000000000 [Eh]
	 Same-Spin Energy          =      -0.4454507614731751 [Eh]
	 Opposite-Spin Energy      =      -1.3259498815313904 [Eh]
	 Correlation Energy        =      -1.7714006430045655 [Eh]
	 Total Energy              =    -419.6625786306621535 [Eh]

	 ================> DF-SCS-MP2 Energies <==================
	-----------------------------------------------------------
	 SCS Same-Spin Scale       =       0.3333333333333333 [-]
	 SCS Opposite-Spin Scale   =       1.2000000000000000 [-]
	 SCS Same-Spin Energy      =      -0.1484835871577250 [Eh]
	 SCS Opposite-Spin Energy  =      -1.5911398578376683 [Eh]
	 SCS Correlation Energy    =      -1.7396234449953933 [Eh]
	 SCS Total Energy          =    -419.6308014326530156 [Eh]
	-----------------------------------------------------------

  Dipole Moment: [D]
     X:    -9.3024      Y:    -0.0000      Z:     0.0001     Total:     9.3024

*** Psi4 exiting successfully. Buy a developer a beer!
