                               Psi4 1.3.2 release

  ==> Input File <==

--------------------------------------------------------------------------
#psi4
#
memory 32 gb

molecule  {
-1 1
  O        2.3621300     1.1457750    -0.0000250
  O        2.3621310    -1.1457740    -0.0000570
  C        0.2818590     0.0000000    -0.0000440
  C       -0.3040146    -1.2718820    -0.0001307
  C       -0.4337540     1.2036740     0.0001100
  C       -1.8301680    -1.2073330    -0.0000540
  C       -1.8301700     1.2073330     0.0001830
  C       -2.5366520     0.0000000     0.0001000
  C        1.8307920     0.0000000    -0.0001120
  H        0.1460340    -2.1233920    -0.0002260
  H        0.1460330     2.1233920     0.0001590
  H       -2.3743460    -2.1522190    -0.0001220
  H       -2.3743480     2.1522190     0.0003060
  H       -3.6263880    -0.0000020     0.0001550
units angstrom
no_reorient  #important for SAPT in psi4, default
symmetry c1  #important for SAPT in psi4, default
}

set PROPERTIES_ORIGIN ["COM"]
properties('MP2/aug-cc-pvtz', properties = ['dipole'])
--------------------------------------------------------------------------

    Molecular point group: c1
  Charge       = -1
  Multiplicity = 1
  Basis Set: AUG-CC-PVTZ
    Blend: AUG-CC-PVTZ
  Basis Set: (AUG-CC-PVTZ AUX)
    Blend: AUG-CC-PVTZ-JKFIT

    Orbital Energies [Eh]
    ---------------------

    Doubly Occupied:

       1A    -20.307629     2A    -20.307357     3A    -11.155014
       4A    -11.124727     5A    -11.118007     6A    -11.113616
       7A    -11.103944     8A    -11.100894     9A    -11.091725
      10A     -1.178621    11A     -1.081875    12A     -1.006212
      13A     -0.886184    14A     -0.870297    15A     -0.706309
      16A     -0.692197    17A     -0.589837    18A     -0.555696
      19A     -0.500160    20A     -0.483978    21A     -0.456432
      22A     -0.447501    23A     -0.408561    24A     -0.388185
      25A     -0.379605    26A     -0.356020    27A     -0.346307
      28A     -0.227740    29A     -0.217224    30A     -0.210554
      31A     -0.202105    32A     -0.192429

  @DF-RHF Final Energy:  -417.87885077712377

   => Energetics <=

    Nuclear Repulsion Energy =            389.6449935111815535
    One-Electron Energy =               -1353.4338059558160694
    Two-Electron Energy =                 545.9099616675107427
    Total Energy =                       -417.8788507771237164
  Basis Set: (AUG-CC-PVTZ AUX)
    Blend: AUG-CC-PVTZ-RI
    Molecular point group: c1

    Geometry (in Angstrom), charge = -1, multiplicity = 1:

       Center              X                  Y                   Z               Mass
    ------------   -----------------  -----------------  -----------------  -----------------
         O            2.283201818475     1.152537695958    -0.000021613582    15.994914619570
         O            2.283202818475    -1.139011304042    -0.000053613582    15.994914619570
         C            0.202930818475     0.006762695958    -0.000040613582    12.000000000000
         C           -0.382942781525    -1.265119304042    -0.000127313582    12.000000000000
         C           -0.512682181525     1.210436695958     0.000113386418    12.000000000000
         C           -1.909096181525    -1.200570304042    -0.000050613582    12.000000000000
         C           -1.909098181525     1.214095695958     0.000186386418    12.000000000000
         C           -2.615580181525     0.006762695958     0.000103386418    12.000000000000
         C            1.751863818475     0.006762695958    -0.000108613582    12.000000000000
         H            0.067105818475    -2.116629304042    -0.000222613582     1.007825032230
         H            0.067104818475     2.130154695958     0.000162386418     1.007825032230
         H           -2.453274181525    -2.145456304042    -0.000118613582     1.007825032230
         H           -2.453276181525     2.158981695958     0.000309386418     1.007825032230
         H           -3.705316181525     0.006760695958     0.000158386418     1.007825032230

  Basis Set: AUG-CC-PVTZ
    Blend: AUG-CC-PVTZ
  Basis Set: (AUG-CC-PVTZ AUX)
    Blend: AUG-CC-PVTZ-JKFIT
	 Reference Energy          =    -417.8788507771237732 [Eh]
	 Singles Energy            =      -0.0000000000000000 [Eh]
	 Same-Spin Energy          =      -0.4432129615714331 [Eh]
	 Opposite-Spin Energy      =      -1.3226208753363884 [Eh]
	 Correlation Energy        =      -1.7658338369078215 [Eh]
	 Total Energy              =    -419.6446846140315756 [Eh]

	 ================> DF-SCS-MP2 Energies <==================
	-----------------------------------------------------------
	 SCS Same-Spin Scale       =       0.3333333333333333 [-]
	 SCS Opposite-Spin Scale   =       1.2000000000000000 [-]
	 SCS Same-Spin Energy      =      -0.1477376538571444 [Eh]
	 SCS Opposite-Spin Energy  =      -1.5871450504036659 [Eh]
	 SCS Correlation Energy    =      -1.7348827042608104 [Eh]
	 SCS Total Energy          =    -419.6137334813845996 [Eh]
	-----------------------------------------------------------

  Dipole Moment: [D]
     X:    -8.5729      Y:    -0.0317      Z:     0.0001     Total:     8.5730

*** Psi4 exiting successfully. Buy a developer a beer!
