                               Psi4 1.3.2 release

  ==> Input File <==

--------------------------------------------------------------------------
#psi4
#
memory 32 gb

molecule  {
-1 1
  O        2.3621300     1.1457750    -0.0000250
  O        2.3621310    -1.1457740    -0.0000570
  C        0.2818590     0.0000000    -0.0000440
  C       -0.4337530    -1.2036740    -0.0001190
  C       -0.4337540     1.2036740     0.0001100
  C       -1.8301680    -1.2073330    -0.0000540
  C       -1.8301700     1.2073330     0.0001830
  C       -2.5366520     0.0000000     0.0001000
  C        1.9307920     0.0000000    -0.0001164
  H        0.1460340    -2.1233920    -0.0002260
  H        0.1460330     2.1233920     0.0001590
  H       -2.3743460    -2.1522190    -0.0001220
  H       -2.3743480     2.1522190     0.0003060
  H       -3.6263880    -0.0000020     0.0001550
units angstrom
no_reorient  #important for SAPT in psi4, default
symmetry c1  #important for SAPT in psi4, default
}

set PROPERTIES_ORIGIN ["COM"]
properties('MP2/aug-cc-pvtz', properties = ['dipole'])
--------------------------------------------------------------------------

    Molecular point group: c1
  Charge       = -1
  Multiplicity = 1
  Basis Set: AUG-CC-PVTZ
    Blend: AUG-CC-PVTZ
  Basis Set: (AUG-CC-PVTZ AUX)
    Blend: AUG-CC-PVTZ-JKFIT

    Orbital Energies [Eh]
    ---------------------

    Doubly Occupied:

       1A    -20.318491     2A    -20.318458     3A    -11.164336
       4A    -11.108982     5A    -11.105757     6A    -11.105525
       7A    -11.089178     8A    -11.089115     9A    -11.078582
      10A     -1.207262    11A     -1.119916    12A     -1.007510
      13A     -0.873570    14A     -0.869442    15A     -0.684000
      16A     -0.682599    17A     -0.578520    18A     -0.538757
      19A     -0.480878    20A     -0.480306    21A     -0.461419
      22A     -0.447768    23A     -0.430608    24A     -0.400787
      25A     -0.376619    26A     -0.356311    27A     -0.346030
      28A     -0.248665    29A     -0.228077    30A     -0.204379
      31A     -0.199664    32A     -0.189553

  @DF-RHF Final Energy:  -417.90400964237898

   => Energetics <=

    Nuclear Repulsion Energy =            390.3765624934538891
    One-Electron Energy =               -1354.9790178618677601
    Two-Electron Energy =                 546.6984457260349473
    Total Energy =                       -417.9040096423789237
  Basis Set: (AUG-CC-PVTZ AUX)
    Blend: AUG-CC-PVTZ-RI
    Molecular point group: c1

    Geometry (in Angstrom), charge = -1, multiplicity = 1:

       Center              X                  Y                   Z               Mass
    ------------   -----------------  -----------------  -----------------  -----------------
         O            2.286150375717     1.145774884497    -0.000022337376    15.994914619570
         O            2.286151375717    -1.145774115503    -0.000054337376    15.994914619570
         C            0.205879375717    -0.000000115503    -0.000041337376    12.000000000000
         C           -0.509732624283    -1.203674115503    -0.000116337376    12.000000000000
         C           -0.509733624283     1.203673884497     0.000112662624    12.000000000000
         C           -1.906147624283    -1.207333115503    -0.000051337376    12.000000000000
         C           -1.906149624283     1.207332884497     0.000185662624    12.000000000000
         C           -2.612631624283    -0.000000115503     0.000102662624    12.000000000000
         C            1.854812375717    -0.000000115503    -0.000113737376    12.000000000000
         H            0.070054375717    -2.123392115503    -0.000223337376     1.007825032230
         H            0.070053375717     2.123391884497     0.000161662624     1.007825032230
         H           -2.450325624283    -2.152219115503    -0.000119337376     1.007825032230
         H           -2.450327624283     2.152218884497     0.000308662624     1.007825032230
         H           -3.702367624283    -0.000002115503     0.000157662624     1.007825032230

  Basis Set: AUG-CC-PVTZ
    Blend: AUG-CC-PVTZ
  Basis Set: (AUG-CC-PVTZ AUX)
    Blend: AUG-CC-PVTZ-JKFIT
	 Reference Energy          =    -417.9040096423789805 [Eh]
	 Singles Energy            =      -0.0000000000000000 [Eh]
	 Same-Spin Energy          =      -0.4423579090214363 [Eh]
	 Opposite-Spin Energy      =      -1.3179840639397116 [Eh]
	 Correlation Energy        =      -1.7603419729611478 [Eh]
	 Total Energy              =    -419.6643516153401379 [Eh]

	 ================> DF-SCS-MP2 Energies <==================
	-----------------------------------------------------------
	 SCS Same-Spin Scale       =       0.3333333333333333 [-]
	 SCS Opposite-Spin Scale   =       1.2000000000000000 [-]
	 SCS Same-Spin Energy      =      -0.1474526363404788 [Eh]
	 SCS Opposite-Spin Energy  =      -1.5815808767276538 [Eh]
	 SCS Correlation Energy    =      -1.7290335130681325 [Eh]
	 SCS Total Energy          =    -419.6330431554471261 [Eh]
	-----------------------------------------------------------

  Dipole Moment: [D]
     X:    -7.6590      Y:    -0.0000      Z:     0.0001     Total:     7.6590

*** Psi4 exiting successfully. Buy a developer a beer!
