                               Psi4 1.3.2 release

  ==> Input File <==

--------------------------------------------------------------------------
#psi4
#
memory 32 gb

molecule  {
-1 1
  O        2.3621300     1.1457750    -0.0000250
  O        2.3621310    -1.1457740    -0.0000570
  C        0.2818590     0.0000000    -0.0000440
  C       -0.5556510    -1.1222783    -0.0001065
  C       -0.4337540     1.2036740     0.0001100
  C       -1.8301680    -1.2073330    -0.0000540
  C       -1.8301700     1.2073330     0.0001830
  C       -2.5366520     0.0000000     0.0001000
  C        1.8307920     0.0000000    -0.0001120
  H        0.1460340    -2.1233920    -0.0002260
  H        0.1460330     2.1233920     0.0001590
  H       -2.3743460    -2.1522190    -0.0001220
  H       -2.3743480     2.1522190     0.0003060
  H       -3.6263880    -0.0000020     0.0001550
units angstrom
no_reorient  #important for SAPT in psi4, default
symmetry c1  #important for SAPT in psi4, default
}

set PROPERTIES_ORIGIN ["COM"]
properties('MP2/aug-cc-pvtz', properties = ['dipole'])
--------------------------------------------------------------------------

    Molecular point group: c1
  Charge       = -1
  Multiplicity = 1
  Basis Set: AUG-CC-PVTZ
    Blend: AUG-CC-PVTZ
  Basis Set: (AUG-CC-PVTZ AUX)
    Blend: AUG-CC-PVTZ-JKFIT

    Orbital Energies [Eh]
    ---------------------

    Doubly Occupied:

       1A    -20.311702     2A    -20.311639     3A    -11.163400
       4A    -11.116746     5A    -11.110715     6A    -11.097584
       7A    -11.096613     8A    -11.093569     9A    -11.090879
      10A     -1.181686    11A     -1.084924    12A     -1.031805
      13A     -0.896044    14A     -0.878978    15A     -0.710548
      16A     -0.679509    17A     -0.598268    18A     -0.541571
      19A     -0.503668    20A     -0.476634    21A     -0.457920
      22A     -0.445572    23A     -0.408699    24A     -0.397936
      25A     -0.384969    26A     -0.358862    27A     -0.315614
      28A     -0.230862    29A     -0.225940    30A     -0.223133
      31A     -0.208443    32A     -0.193792

  @DF-RHF Final Energy:  -417.87872952793043

   => Energetics <=

    Nuclear Repulsion Energy =            392.2975147320887572
    One-Electron Energy =               -1358.6960405743022875
    Two-Electron Energy =                 548.5197963142830986
    Total Energy =                       -417.8787295279304317
  Basis Set: (AUG-CC-PVTZ AUX)
    Blend: AUG-CC-PVTZ-RI
    Molecular point group: c1

    Geometry (in Angstrom), charge = -1, multiplicity = 1:

       Center              X                  Y                   Z               Mass
    ------------   -----------------  -----------------  -----------------  -----------------
         O            2.308151524229     1.137704514850    -0.000024013008    15.994914619570
         O            2.308152524229    -1.153844485150    -0.000056013008    15.994914619570
         C            0.227880524229    -0.008070485150    -0.000043013008    12.000000000000
         C           -0.609629475771    -1.130348785150    -0.000105513008    12.000000000000
         C           -0.487732475771     1.195603514850     0.000110986992    12.000000000000
         C           -1.884146475771    -1.215403485150    -0.000053013008    12.000000000000
         C           -1.884148475771     1.199262514850     0.000183986992    12.000000000000
         C           -2.590630475771    -0.008070485150     0.000100986992    12.000000000000
         C            1.776813524229    -0.008070485150    -0.000111013008    12.000000000000
         H            0.092055524229    -2.131462485150    -0.000225013008     1.007825032230
         H            0.092054524229     2.115321514850     0.000159986992     1.007825032230
         H           -2.428324475771    -2.160289485150    -0.000121013008     1.007825032230
         H           -2.428326475771     2.144148514850     0.000306986992     1.007825032230
         H           -3.680366475771    -0.008072485150     0.000155986992     1.007825032230

  Basis Set: AUG-CC-PVTZ
    Blend: AUG-CC-PVTZ
  Basis Set: (AUG-CC-PVTZ AUX)
    Blend: AUG-CC-PVTZ-JKFIT
	 Reference Energy          =    -417.8787295279304317 [Eh]
	 Singles Energy            =      -0.0000000000000000 [Eh]
	 Same-Spin Energy          =      -0.4441434725984661 [Eh]
	 Opposite-Spin Energy      =      -1.3223079003148168 [Eh]
	 Correlation Energy        =      -1.7664513729132829 [Eh]
	 Total Energy              =    -419.6451809008437408 [Eh]

	 ================> DF-SCS-MP2 Energies <==================
	-----------------------------------------------------------
	 SCS Same-Spin Scale       =       0.3333333333333333 [-]
	 SCS Opposite-Spin Scale   =       1.2000000000000000 [-]
	 SCS Same-Spin Energy      =      -0.1480478241994887 [Eh]
	 SCS Opposite-Spin Energy  =      -1.5867694803777801 [Eh]
	 SCS Correlation Energy    =      -1.7348173045772688 [Eh]
	 SCS Total Energy          =    -419.6135468325077227 [Eh]
	-----------------------------------------------------------

  Dipole Moment: [D]
     X:    -8.5822      Y:     0.1177      Z:     0.0001     Total:     8.5830

*** Psi4 exiting successfully. Buy a developer a beer!
