                               Psi4 1.3.2 release

  ==> Input File <==

--------------------------------------------------------------------------
#psi4
#
memory 32 gb

molecule  {
-1 1
  O        2.3621300     1.1457750    -0.0000250
  O        2.2809115    -1.1800473    -0.0000511
  C        0.2818590     0.0000000    -0.0000440
  C       -0.4337530    -1.2036740    -0.0001190
  C       -0.4337540     1.2036740     0.0001100
  C       -1.8301680    -1.2073330    -0.0000540
  C       -1.8301700     1.2073330     0.0001830
  C       -2.5366520     0.0000000     0.0001000
  C        1.8307920     0.0000000    -0.0001120
  H        0.1460340    -2.1233920    -0.0002260
  H        0.1460330     2.1233920     0.0001590
  H       -2.3743460    -2.1522190    -0.0001220
  H       -2.3743480     2.1522190     0.0003060
  H       -3.6263880    -0.0000020     0.0001550
units angstrom
no_reorient  #important for SAPT in psi4, default
symmetry c1  #important for SAPT in psi4, default
}

set PROPERTIES_ORIGIN ["COM"]
properties('MP2/aug-cc-pvtz', properties = ['dipole'])
--------------------------------------------------------------------------

    Molecular point group: c1
  Charge       = -1
  Multiplicity = 1
  Basis Set: AUG-CC-PVTZ
    Blend: AUG-CC-PVTZ
  Basis Set: (AUG-CC-PVTZ AUX)
    Blend: AUG-CC-PVTZ-JKFIT

    Orbital Energies [Eh]
    ---------------------

    Doubly Occupied:

       1A    -20.314987     2A    -20.312044     3A    -11.161567
       4A    -11.114551     5A    -11.109504     6A    -11.109232
       7A    -11.095199     8A    -11.094687     9A    -11.085412
      10A     -1.181545    11A     -1.090909    12A     -1.013147
      13A     -0.879174    14A     -0.878231    15A     -0.698302
      16A     -0.687932    17A     -0.590452    18A     -0.544089
      19A     -0.487782    20A     -0.480503    21A     -0.457240
      22A     -0.451806    23A     -0.413336    24A     -0.391986
      25A     -0.375753    26A     -0.351335    27A     -0.349435
      28A     -0.236219    29A     -0.218421    30A     -0.217078
      31A     -0.201975    32A     -0.194106

  @DF-RHF Final Energy:  -417.90562029861729

   => Energetics <=

    Nuclear Repulsion Energy =            391.4939256135496066
    One-Electron Energy =               -1357.2232130972904542
    Two-Electron Energy =                 547.8236671851235542
    Total Energy =                       -417.9056202986172366
  Basis Set: (AUG-CC-PVTZ AUX)
    Blend: AUG-CC-PVTZ-RI
    Molecular point group: c1

    Geometry (in Angstrom), charge = -1, multiplicity = 1:

       Center              X                  Y                   Z               Mass
    ------------   -----------------  -----------------  -----------------  -----------------
         O            2.306799145099     1.150304366801    -0.000023553366    15.994914619570
         O            2.225580645099    -1.175517933199    -0.000049653366    15.994914619570
         C            0.226528145099     0.004529366801    -0.000042553366    12.000000000000
         C           -0.489083854901    -1.199144633199    -0.000117553366    12.000000000000
         C           -0.489084854901     1.208203366801     0.000111446634    12.000000000000
         C           -1.885498854901    -1.202803633199    -0.000052553366    12.000000000000
         C           -1.885500854901     1.211862366801     0.000184446634    12.000000000000
         C           -2.591982854901     0.004529366801     0.000101446634    12.000000000000
         C            1.775461145099     0.004529366801    -0.000110553366    12.000000000000
         H            0.090703145099    -2.118862633199    -0.000224553366     1.007825032230
         H            0.090702145099     2.127921366801     0.000160446634     1.007825032230
         H           -2.429676854901    -2.147689633199    -0.000120553366     1.007825032230
         H           -2.429678854901     2.156748366801     0.000307446634     1.007825032230
         H           -3.681718854901     0.004527366801     0.000156446634     1.007825032230

  Basis Set: AUG-CC-PVTZ
    Blend: AUG-CC-PVTZ
  Basis Set: (AUG-CC-PVTZ AUX)
    Blend: AUG-CC-PVTZ-JKFIT
	 Reference Energy          =    -417.9056202986172934 [Eh]
	 Singles Energy            =      -0.0000000000000000 [Eh]
	 Same-Spin Energy          =      -0.4436013065564596 [Eh]
	 Opposite-Spin Energy      =      -1.3212153214999709 [Eh]
	 Correlation Energy        =      -1.7648166280564306 [Eh]
	 Total Energy              =    -419.6704369266737444 [Eh]

	 ================> DF-SCS-MP2 Energies <==================
	-----------------------------------------------------------
	 SCS Same-Spin Scale       =       0.3333333333333333 [-]
	 SCS Opposite-Spin Scale   =       1.2000000000000000 [-]
	 SCS Same-Spin Energy      =      -0.1478671021854865 [Eh]
	 SCS Opposite-Spin Energy  =      -1.5854583857999651 [Eh]
	 SCS Correlation Energy    =      -1.7333254879854516 [Eh]
	 SCS Total Energy          =    -419.6389457866027328 [Eh]
	-----------------------------------------------------------

  Dipole Moment: [D]
     X:    -8.2702      Y:     0.0310      Z:     0.0001     Total:     8.2702

*** Psi4 exiting successfully. Buy a developer a beer!
