                               Psi4 1.3.2 release

  ==> Input File <==

--------------------------------------------------------------------------
#psi4
#
memory 32 gb

molecule  {
-1 1
  O        2.3420525     1.1548736    -0.0000276
  O        2.3621310    -1.1457740    -0.0000570
  C        0.2818590     0.0000000    -0.0000440
  C       -0.4337530    -1.2036740    -0.0001190
  C       -0.4337540     1.2036740     0.0001100
  C       -1.8301680    -1.2073330    -0.0000540
  C       -1.8301700     1.2073330     0.0001830
  C       -2.5366520     0.0000000     0.0001000
  C        1.8307920     0.0000000    -0.0001120
  H        0.1460340    -2.1233920    -0.0002260
  H        0.1460330     2.1233920     0.0001590
  H       -2.3743460    -2.1522190    -0.0001220
  H       -2.3743480     2.1522190     0.0003060
  H       -3.6263880    -0.0000020     0.0001550
units angstrom
no_reorient  #important for SAPT in psi4, default
symmetry c1  #important for SAPT in psi4, default
}

set PROPERTIES_ORIGIN ["COM"]
properties('MP2/aug-cc-pvtz', properties = ['dipole'])
--------------------------------------------------------------------------

    Molecular point group: c1
  Charge       = -1
  Multiplicity = 1
  Basis Set: AUG-CC-PVTZ
    Blend: AUG-CC-PVTZ
  Basis Set: (AUG-CC-PVTZ AUX)
    Blend: AUG-CC-PVTZ-JKFIT

    Orbital Energies [Eh]
    ---------------------

    Doubly Occupied:

       1A    -20.310867     2A    -20.310148     3A    -11.159634
       4A    -11.116506     5A    -11.111318     6A    -11.111159
       7A    -11.097500     8A    -11.097350     9A    -11.088863
      10A     -1.180312    11A     -1.085169    12A     -1.015337
      13A     -0.881562    14A     -0.880329    15A     -0.700378
      16A     -0.689989    17A     -0.592099    18A     -0.544374
      19A     -0.489619    20A     -0.482121    21A     -0.456653
      22A     -0.453649    23A     -0.409869    24A     -0.391591
      25A     -0.377783    26A     -0.351635    27A     -0.351426
      28A     -0.231048    29A     -0.221120    30A     -0.214438
      31A     -0.202487    32A     -0.196508

  @DF-RHF Final Energy:  -417.90776746732996

   => Energetics <=

    Nuclear Repulsion Energy =            390.9424481971682326
    One-Electron Energy =               -1356.0947473204837479
    Two-Electron Energy =                 547.2445316559854973
    Total Energy =                       -417.9077674673300180
  Basis Set: (AUG-CC-PVTZ AUX)
    Blend: AUG-CC-PVTZ-RI
    Molecular point group: c1

    Geometry (in Angstrom), charge = -1, multiplicity = 1:

       Center              X                  Y                   Z               Mass
    ------------   -----------------  -----------------  -----------------  -----------------
         O            2.278641255786     1.153671033968    -0.000025030025    15.994914619570
         O            2.298719755786    -1.146976566032    -0.000054430025    15.994914619570
         C            0.218447755786    -0.001202566032    -0.000041430025    12.000000000000
         C           -0.497164244214    -1.204876566032    -0.000116430025    12.000000000000
         C           -0.497165244214     1.202471433968     0.000112569975    12.000000000000
         C           -1.893579244214    -1.208535566032    -0.000051430025    12.000000000000
         C           -1.893581244214     1.206130433968     0.000185569975    12.000000000000
         C           -2.600063244214    -0.001202566032     0.000102569975    12.000000000000
         C            1.767380755786    -0.001202566032    -0.000109430025    12.000000000000
         H            0.082622755786    -2.124594566032    -0.000223430025     1.007825032230
         H            0.082621755786     2.122189433968     0.000161569975     1.007825032230
         H           -2.437757244214    -2.153421566032    -0.000119430025     1.007825032230
         H           -2.437759244214     2.151016433968     0.000308569975     1.007825032230
         H           -3.689799244214    -0.001204566032     0.000157569975     1.007825032230

  Basis Set: AUG-CC-PVTZ
    Blend: AUG-CC-PVTZ
  Basis Set: (AUG-CC-PVTZ AUX)
    Blend: AUG-CC-PVTZ-JKFIT
	 Reference Energy          =    -417.9077674673299612 [Eh]
	 Singles Energy            =      -0.0000000000000000 [Eh]
	 Same-Spin Energy          =      -0.4433323440206358 [Eh]
	 Opposite-Spin Energy      =      -1.3208822152644855 [Eh]
	 Correlation Energy        =      -1.7642145592851213 [Eh]
	 Total Energy              =    -419.6719820266150691 [Eh]

	 ================> DF-SCS-MP2 Energies <==================
	-----------------------------------------------------------
	 SCS Same-Spin Scale       =       0.3333333333333333 [-]
	 SCS Opposite-Spin Scale   =       1.2000000000000000 [-]
	 SCS Same-Spin Energy      =      -0.1477774480068786 [Eh]
	 SCS Opposite-Spin Energy  =      -1.5850586583173825 [Eh]
	 SCS Correlation Energy    =      -1.7328361063242610 [Eh]
	 SCS Total Energy          =    -419.6406035736542322 [Eh]
	-----------------------------------------------------------

  Dipole Moment: [D]
     X:    -8.5079      Y:    -0.0088      Z:     0.0001     Total:     8.5079

*** Psi4 exiting successfully. Buy a developer a beer!
