                               Psi4 1.3.2 release

  ==> Input File <==

--------------------------------------------------------------------------
#psi4
#
memory 32 gb

molecule  {
-1 1
  O        2.3621300     1.1457750    -0.0000250
  O        2.3621310    -1.1457740    -0.0000570
  C        0.2818590     0.0000000    -0.0000440
  C       -0.4337530    -1.2036740    -0.0001190
  C       -0.4337540     1.2036740     0.0001100
  C       -1.8301680    -1.2073330    -0.0000540
  C       -1.8301700     1.2073330     0.0001830
  C       -2.5366520     0.0000000     0.0001000
  C        1.9149325    -0.1814397    -0.0001033
  H        0.1460340    -2.1233920    -0.0002260
  H        0.1460330     2.1233920     0.0001590
  H       -2.3743460    -2.1522190    -0.0001220
  H       -2.3743480     2.1522190     0.0003060
  H       -3.6263880    -0.0000020     0.0001550
units angstrom
no_reorient  #important for SAPT in psi4, default
symmetry c1  #important for SAPT in psi4, default
}

set PROPERTIES_ORIGIN ["COM"]
properties('MP2/aug-cc-pvtz', properties = ['dipole'])
--------------------------------------------------------------------------

    Molecular point group: c1
  Charge       = -1
  Multiplicity = 1
  Basis Set: AUG-CC-PVTZ
    Blend: AUG-CC-PVTZ
  Basis Set: (AUG-CC-PVTZ AUX)
    Blend: AUG-CC-PVTZ-JKFIT

    Orbital Energies [Eh]
    ---------------------

    Doubly Occupied:

       1A    -20.360006     2A    -20.275095     3A    -11.155895
       4A    -11.109678     5A    -11.106666     6A    -11.105518
       7A    -11.090247     8A    -11.089717     9A    -11.079758
      10A     -1.318608    11A     -1.030957    12A     -1.006059
      13A     -0.875352    14A     -0.869342    15A     -0.689220
      16A     -0.680780    17A     -0.583412    18A     -0.551687
      19A     -0.503900    20A     -0.486300    21A     -0.470164
      22A     -0.447327    23A     -0.445479    24A     -0.426356
      25A     -0.383596    26A     -0.361772    27A     -0.347925
      28A     -0.223739    29A     -0.209134    30A     -0.200958
      31A     -0.181767    32A     -0.180592

  @DF-RHF Final Energy:  -417.83495858073110

   => Energetics <=

    Nuclear Repulsion Energy =            391.0769042726204248
    One-Electron Energy =               -1356.1297119931457473
    Two-Electron Energy =                 547.2178491397943390
    Total Energy =                       -417.8349585807310405
  Basis Set: (AUG-CC-PVTZ AUX)
    Blend: AUG-CC-PVTZ-RI
    Molecular point group: c1

    Geometry (in Angstrom), charge = -1, multiplicity = 1:

       Center              X                  Y                   Z               Mass
    ------------   -----------------  -----------------  -----------------  -----------------
         O            2.287722842413     1.163764599526    -0.000023636239    15.994914619570
         O            2.287723842413    -1.127784400474    -0.000055636239    15.994914619570
         C            0.207451842413     0.017989599526    -0.000042636239    12.000000000000
         C           -0.508160157587    -1.185684400474    -0.000117636239    12.000000000000
         C           -0.508161157587     1.221663599526     0.000111363761    12.000000000000
         C           -1.904575157587    -1.189343400474    -0.000052636239    12.000000000000
         C           -1.904577157587     1.225322599526     0.000184363761    12.000000000000
         C           -2.611059157587     0.017989599526     0.000101363761    12.000000000000
         C            1.840525342413    -0.163450100474    -0.000101936239    12.000000000000
         H            0.071626842413    -2.105402400474    -0.000224636239     1.007825032230
         H            0.071625842413     2.141381599526     0.000160363761     1.007825032230
         H           -2.448753157587    -2.134229400474    -0.000120636239     1.007825032230
         H           -2.448755157587     2.170208599526     0.000307363761     1.007825032230
         H           -3.700795157587     0.017987599526     0.000156363761     1.007825032230

  Basis Set: AUG-CC-PVTZ
    Blend: AUG-CC-PVTZ
  Basis Set: (AUG-CC-PVTZ AUX)
    Blend: AUG-CC-PVTZ-JKFIT
	 Reference Energy          =    -417.8349585807310973 [Eh]
	 Singles Energy            =      -0.0000000000000000 [Eh]
	 Same-Spin Energy          =      -0.4420392099661123 [Eh]
	 Opposite-Spin Energy      =      -1.3179671010750629 [Eh]
	 Correlation Energy        =      -1.7600063110411752 [Eh]
	 Total Energy              =    -419.5949648917722925 [Eh]

	 ================> DF-SCS-MP2 Energies <==================
	-----------------------------------------------------------
	 SCS Same-Spin Scale       =       0.3333333333333333 [-]
	 SCS Opposite-Spin Scale   =       1.2000000000000000 [-]
	 SCS Same-Spin Energy      =      -0.1473464033220374 [Eh]
	 SCS Opposite-Spin Energy  =      -1.5815605212900754 [Eh]
	 SCS Correlation Energy    =      -1.7289069246121129 [Eh]
	 SCS Total Energy          =    -419.5638655053431876 [Eh]
	-----------------------------------------------------------

  Dipole Moment: [D]
     X:    -7.8510      Y:    -1.8599      Z:     0.0001     Total:     8.0683

*** Psi4 exiting successfully. Buy a developer a beer!
