                               Psi4 1.3.2 release

  ==> Input File <==

--------------------------------------------------------------------------
#psi4
#
memory 32 gb

molecule  {
-1 1
  O        2.3621300     1.1457750    -0.0000250
  O        2.3621310    -1.1457740    -0.0000570
  C        0.2818590     0.0000000    -0.0000440
  C       -0.4337530    -1.2036740    -0.0001190
  C       -0.4337540     1.2036740     0.0001100
  C       -1.8301680    -1.2073330    -0.0000540
  C       -1.8301700     1.2073330     0.0001830
  C       -2.5366520     0.0000000     0.0001000
  C        1.8728622     0.0907199    -0.0001051
  H        0.1460340    -2.1233920    -0.0002260
  H        0.1460330     2.1233920     0.0001590
  H       -2.3743460    -2.1522190    -0.0001220
  H       -2.3743480     2.1522190     0.0003060
  H       -3.6263880    -0.0000020     0.0001550
units angstrom
no_reorient  #important for SAPT in psi4, default
symmetry c1  #important for SAPT in psi4, default
}

set PROPERTIES_ORIGIN ["COM"]
properties('MP2/aug-cc-pvtz', properties = ['dipole'])
--------------------------------------------------------------------------

    Molecular point group: c1
  Charge       = -1
  Multiplicity = 1
  Basis Set: AUG-CC-PVTZ
    Blend: AUG-CC-PVTZ
  Basis Set: (AUG-CC-PVTZ AUX)
    Blend: AUG-CC-PVTZ-JKFIT

    Orbital Energies [Eh]
    ---------------------

    Doubly Occupied:

       1A    -20.334180     2A    -20.291491     3A    -11.158795
       4A    -11.113666     5A    -11.109516     6A    -11.108993
       7A    -11.094456     8A    -11.094366     9A    -11.085889
      10A     -1.230152    11A     -1.067648    12A     -1.012056
      13A     -0.878687    14A     -0.875837    15A     -0.694129
      16A     -0.686661    17A     -0.586804    18A     -0.543320
      19A     -0.487788    20A     -0.484500    21A     -0.466736
      22A     -0.450993    23A     -0.415235    24A     -0.402852
      25A     -0.380528    26A     -0.359285    27A     -0.350328
      28A     -0.234255    29A     -0.214586    30A     -0.205556
      31A     -0.203016    32A     -0.190456

  @DF-RHF Final Energy:  -417.89391420090220

   => Energetics <=

    Nuclear Repulsion Energy =            390.7481115791884463
    One-Electron Energy =               -1355.6585379454004396
    Two-Electron Energy =                 547.0165121653099050
    Total Energy =                       -417.8939142009021452
  Basis Set: (AUG-CC-PVTZ AUX)
    Blend: AUG-CC-PVTZ-RI
    Molecular point group: c1

    Geometry (in Angstrom), charge = -1, multiplicity = 1:

       Center              X                  Y                   Z               Mass
    ------------   -----------------  -----------------  -----------------  -----------------
         O            2.291894105418     1.136780022024    -0.000023457769    15.994914619570
         O            2.291895105418    -1.154768977976    -0.000055457769    15.994914619570
         C            0.211623105418    -0.008994977976    -0.000042457769    12.000000000000
         C           -0.503988894582    -1.212668977976    -0.000117457769    12.000000000000
         C           -0.503989894582     1.194679022024     0.000111542231    12.000000000000
         C           -1.900403894582    -1.216327977976    -0.000052457769    12.000000000000
         C           -1.900405894582     1.198338022024     0.000184542231    12.000000000000
         C           -2.606887894582    -0.008994977976     0.000101542231    12.000000000000
         C            1.802626305418     0.081724922024    -0.000103557769    12.000000000000
         H            0.075798105418    -2.132386977976    -0.000224457769     1.007825032230
         H            0.075797105418     2.114397022024     0.000160542231     1.007825032230
         H           -2.444581894582    -2.161213977976    -0.000120457769     1.007825032230
         H           -2.444583894582     2.143224022024     0.000307542231     1.007825032230
         H           -3.696623894582    -0.008996977976     0.000156542231     1.007825032230

  Basis Set: AUG-CC-PVTZ
    Blend: AUG-CC-PVTZ
  Basis Set: (AUG-CC-PVTZ AUX)
    Blend: AUG-CC-PVTZ-JKFIT
	 Reference Energy          =    -417.8939142009022021 [Eh]
	 Singles Energy            =      -0.0000000000000000 [Eh]
	 Same-Spin Energy          =      -0.4426320392086246 [Eh]
	 Opposite-Spin Energy      =      -1.3192377269132998 [Eh]
	 Correlation Energy        =      -1.7618697661219245 [Eh]
	 Total Energy              =    -419.6557839670241492 [Eh]

	 ================> DF-SCS-MP2 Energies <==================
	-----------------------------------------------------------
	 SCS Same-Spin Scale       =       0.3333333333333333 [-]
	 SCS Opposite-Spin Scale   =       1.2000000000000000 [-]
	 SCS Same-Spin Energy      =      -0.1475440130695415 [Eh]
	 SCS Opposite-Spin Energy  =      -1.5830852722959596 [Eh]
	 SCS Correlation Energy    =      -1.7306292853655012 [Eh]
	 SCS Total Energy          =    -419.6245434862677257 [Eh]
	-----------------------------------------------------------

  Dipole Moment: [D]
     X:    -8.2324      Y:     0.8923      Z:     0.0001     Total:     8.2806

*** Psi4 exiting successfully. Buy a developer a beer!
