                               Psi4 1.3.2 release

  ==> Input File <==

--------------------------------------------------------------------------
#psi4
#
memory 32 gb

molecule  {
-1 1
  O        2.3621300     1.1457750    -0.0000250
  O        2.3420536    -1.1548726    -0.0000555
  C        0.2818590     0.0000000    -0.0000440
  C       -0.4337530    -1.2036740    -0.0001190
  C       -0.4337540     1.2036740     0.0001100
  C       -1.8301680    -1.2073330    -0.0000540
  C       -1.8301700     1.2073330     0.0001830
  C       -2.5366520     0.0000000     0.0001000
  C        1.8307920     0.0000000    -0.0001120
  H        0.1460340    -2.1233920    -0.0002260
  H        0.1460330     2.1233920     0.0001590
  H       -2.3743460    -2.1522190    -0.0001220
  H       -2.3743480     2.1522190     0.0003060
  H       -3.6263880    -0.0000020     0.0001550
units angstrom
no_reorient  #important for SAPT in psi4, default
symmetry c1  #important for SAPT in psi4, default
}

set PROPERTIES_ORIGIN ["COM"]
properties('MP2/aug-cc-pvtz', properties = ['dipole'])
--------------------------------------------------------------------------

    Molecular point group: c1
  Charge       = -1
  Multiplicity = 1
  Basis Set: AUG-CC-PVTZ
    Blend: AUG-CC-PVTZ
  Basis Set: (AUG-CC-PVTZ AUX)
    Blend: AUG-CC-PVTZ-JKFIT

    Orbital Energies [Eh]
    ---------------------

    Doubly Occupied:

       1A    -20.310867     2A    -20.310148     3A    -11.159634
       4A    -11.116506     5A    -11.111318     6A    -11.111159
       7A    -11.097500     8A    -11.097350     9A    -11.088863
      10A     -1.180312    11A     -1.085169    12A     -1.015337
      13A     -0.881562    14A     -0.880329    15A     -0.700378
      16A     -0.689989    17A     -0.592099    18A     -0.544374
      19A     -0.489619    20A     -0.482121    21A     -0.456653
      22A     -0.453649    23A     -0.409869    24A     -0.391591
      25A     -0.377783    26A     -0.351635    27A     -0.351426
      28A     -0.231048    29A     -0.221120    30A     -0.214438
      31A     -0.202487    32A     -0.196508

  @DF-RHF Final Energy:  -417.90776747485660

   => Energetics <=

    Nuclear Repulsion Energy =            390.9424467608235432
    One-Electron Energy =               -1356.0947443876368652
    Two-Electron Energy =                 547.2445301519567238
    Total Energy =                       -417.9077674748566551
  Basis Set: (AUG-CC-PVTZ AUX)
    Blend: AUG-CC-PVTZ-RI
    Molecular point group: c1

    Geometry (in Angstrom), charge = -1, multiplicity = 1:

       Center              X                  Y                   Z               Mass
    ------------   -----------------  -----------------  -----------------  -----------------
         O            2.298718742571     1.146977335025    -0.000022971872    15.994914619570
         O            2.278642342571    -1.153670264975    -0.000053471872    15.994914619570
         C            0.218447742571     0.001202335025    -0.000041971872    12.000000000000
         C           -0.497164257429    -1.202471664975    -0.000116971872    12.000000000000
         C           -0.497165257429     1.204876335025     0.000112028128    12.000000000000
         C           -1.893579257429    -1.206130664975    -0.000051971872    12.000000000000
         C           -1.893581257429     1.208535335025     0.000185028128    12.000000000000
         C           -2.600063257429     0.001202335025     0.000102028128    12.000000000000
         C            1.767380742571     0.001202335025    -0.000109971872    12.000000000000
         H            0.082622742571    -2.122189664975    -0.000223971872     1.007825032230
         H            0.082621742571     2.124594335025     0.000161028128     1.007825032230
         H           -2.437757257429    -2.151016664975    -0.000119971872     1.007825032230
         H           -2.437759257429     2.153421335025     0.000308028128     1.007825032230
         H           -3.689799257429     0.001200335025     0.000157028128     1.007825032230

  Basis Set: AUG-CC-PVTZ
    Blend: AUG-CC-PVTZ
  Basis Set: (AUG-CC-PVTZ AUX)
    Blend: AUG-CC-PVTZ-JKFIT
	 Reference Energy          =    -417.9077674748565983 [Eh]
	 Singles Energy            =      -0.0000000000000000 [Eh]
	 Same-Spin Energy          =      -0.4433323437004588 [Eh]
	 Opposite-Spin Energy      =      -1.3208822153769790 [Eh]
	 Correlation Energy        =      -1.7642145590774378 [Eh]
	 Total Energy              =    -419.6719820339340572 [Eh]

	 ================> DF-SCS-MP2 Energies <==================
	-----------------------------------------------------------
	 SCS Same-Spin Scale       =       0.3333333333333333 [-]
	 SCS Opposite-Spin Scale   =       1.2000000000000000 [-]
	 SCS Same-Spin Energy      =      -0.1477774479001529 [Eh]
	 SCS Opposite-Spin Energy  =      -1.5850586584523747 [Eh]
	 SCS Correlation Energy    =      -1.7328361063525277 [Eh]
	 SCS Total Energy          =    -419.6406035812091204 [Eh]
	-----------------------------------------------------------

  Dipole Moment: [D]
     X:    -8.5079      Y:     0.0088      Z:     0.0001     Total:     8.5079

*** Psi4 exiting successfully. Buy a developer a beer!
