                               Psi4 1.3.2 release

  ==> Input File <==

--------------------------------------------------------------------------
#psi4
#
memory 32 gb

molecule  {
-1 1
  O        2.4017933     1.1265336    -0.0000200
  O        2.3621310    -1.1457740    -0.0000570
  C        0.2818590     0.0000000    -0.0000440
  C       -0.4337530    -1.2036740    -0.0001190
  C       -0.4337540     1.2036740     0.0001100
  C       -1.8301680    -1.2073330    -0.0000540
  C       -1.8301700     1.2073330     0.0001830
  C       -2.5366520     0.0000000     0.0001000
  C        1.8307920     0.0000000    -0.0001120
  H        0.1460340    -2.1233920    -0.0002260
  H        0.1460330     2.1233920     0.0001590
  H       -2.3743460    -2.1522190    -0.0001220
  H       -2.3743480     2.1522190     0.0003060
  H       -3.6263880    -0.0000020     0.0001550
units angstrom
no_reorient  #important for SAPT in psi4, default
symmetry c1  #important for SAPT in psi4, default
}

set PROPERTIES_ORIGIN ["COM"]
properties('MP2/aug-cc-pvtz', properties = ['dipole'])
--------------------------------------------------------------------------

    Molecular point group: c1
  Charge       = -1
  Multiplicity = 1
  Basis Set: AUG-CC-PVTZ
    Blend: AUG-CC-PVTZ
  Basis Set: (AUG-CC-PVTZ AUX)
    Blend: AUG-CC-PVTZ-JKFIT

    Orbital Energies [Eh]
    ---------------------

    Doubly Occupied:

       1A    -20.308080     2A    -20.306678     3A    -11.157759
       4A    -11.118371     5A    -11.113110     6A    -11.112929
       7A    -11.099921     8A    -11.099649     9A    -11.092256
      10A     -1.179332    11A     -1.079277    12A     -1.017424
      13A     -0.883908    14A     -0.882265    15A     -0.702389
      16A     -0.691974    17A     -0.593697    18A     -0.544812
      19A     -0.491448    20A     -0.483620    21A     -0.456130
      22A     -0.455318    23A     -0.406355    24A     -0.391436
      25A     -0.379691    26A     -0.353247    27A     -0.351705
      28A     -0.225506    29A     -0.223404    30A     -0.212975
      31A     -0.201867    32A     -0.198561

  @DF-RHF Final Energy:  -417.90807309483750

   => Energetics <=

    Nuclear Repulsion Energy =            390.4507701865055083
    One-Electron Energy =               -1355.0875014301134343
    Two-Electron Energy =                 546.7286581487704780
    Total Energy =                       -417.9080730948375049
  Basis Set: (AUG-CC-PVTZ AUX)
    Blend: AUG-CC-PVTZ-RI
    Molecular point group: c1

    Geometry (in Angstrom), charge = -1, multiplicity = 1:

       Center              X                  Y                   Z               Mass
    ------------   -----------------  -----------------  -----------------  -----------------
         O            2.330486845917     1.129076384678    -0.000018434424    15.994914619570
         O            2.290824545917    -1.143231215322    -0.000055434424    15.994914619570
         C            0.210552545917     0.002542784678    -0.000042434424    12.000000000000
         C           -0.505059454083    -1.201131215322    -0.000117434424    12.000000000000
         C           -0.505060454083     1.206216784678     0.000111565576    12.000000000000
         C           -1.901474454083    -1.204790215322    -0.000052434424    12.000000000000
         C           -1.901476454083     1.209875784678     0.000184565576    12.000000000000
         C           -2.607958454083     0.002542784678     0.000101565576    12.000000000000
         C            1.759485545917     0.002542784678    -0.000110434424    12.000000000000
         H            0.074727545917    -2.120849215322    -0.000224434424     1.007825032230
         H            0.074726545917     2.125934784678     0.000160565576     1.007825032230
         H           -2.445652454083    -2.149676215322    -0.000120434424     1.007825032230
         H           -2.445654454083     2.154761784678     0.000307565576     1.007825032230
         H           -3.697694454083     0.002540784678     0.000156565576     1.007825032230

  Basis Set: AUG-CC-PVTZ
    Blend: AUG-CC-PVTZ
  Basis Set: (AUG-CC-PVTZ AUX)
    Blend: AUG-CC-PVTZ-JKFIT
	 Reference Energy          =    -417.9080730948375049 [Eh]
	 Singles Energy            =      -0.0000000000000000 [Eh]
	 Same-Spin Energy          =      -0.4431450768993309 [Eh]
	 Opposite-Spin Energy      =      -1.3206921440553769 [Eh]
	 Correlation Energy        =      -1.7638372209547080 [Eh]
	 Total Energy              =    -419.6719103157922177 [Eh]

	 ================> DF-SCS-MP2 Energies <==================
	-----------------------------------------------------------
	 SCS Same-Spin Scale       =       0.3333333333333333 [-]
	 SCS Opposite-Spin Scale   =       1.2000000000000000 [-]
	 SCS Same-Spin Energy      =      -0.1477150256331103 [Eh]
	 SCS Opposite-Spin Energy  =      -1.5848305728664522 [Eh]
	 SCS Correlation Energy    =      -1.7325455984995626 [Eh]
	 SCS Total Energy          =    -419.6406186933370464 [Eh]
	-----------------------------------------------------------

  Dipole Moment: [D]
     X:    -8.7378      Y:     0.0198      Z:     0.0001     Total:     8.7378

*** Psi4 exiting successfully. Buy a developer a beer!
