                               Psi4 1.3.2 release

  ==> Input File <==

--------------------------------------------------------------------------
#psi4
#
memory 32 gb

molecule  {
-1 1
  O        2.3621300     1.1457750    -0.0000250
  O        2.4407618    -1.1059186    -0.0000632
  C        0.2818590     0.0000000    -0.0000440
  C       -0.4337530    -1.2036740    -0.0001190
  C       -0.4337540     1.2036740     0.0001100
  C       -1.8301680    -1.2073330    -0.0000540
  C       -1.8301700     1.2073330     0.0001830
  C       -2.5366520     0.0000000     0.0001000
  C        1.8307920     0.0000000    -0.0001120
  H        0.1460340    -2.1233920    -0.0002260
  H        0.1460330     2.1233920     0.0001590
  H       -2.3743460    -2.1522190    -0.0001220
  H       -2.3743480     2.1522190     0.0003060
  H       -3.6263880    -0.0000020     0.0001550
units angstrom
no_reorient  #important for SAPT in psi4, default
symmetry c1  #important for SAPT in psi4, default
}

set PROPERTIES_ORIGIN ["COM"]
properties('MP2/aug-cc-pvtz', properties = ['dipole'])
--------------------------------------------------------------------------

    Molecular point group: c1
  Charge       = -1
  Multiplicity = 1
  Basis Set: AUG-CC-PVTZ
    Blend: AUG-CC-PVTZ
  Basis Set: (AUG-CC-PVTZ AUX)
    Blend: AUG-CC-PVTZ-JKFIT

    Orbital Energies [Eh]
    ---------------------

    Doubly Occupied:

       1A    -20.306604     2A    -20.303847     3A    -11.156540
       4A    -11.119564     5A    -11.114283     6A    -11.114031
       7A    -11.101551     8A    -11.101031     9A    -11.094479
      10A     -1.178818    11A     -1.075252    12A     -1.018757
      13A     -0.885424    14A     -0.883488    15A     -0.703691
      16A     -0.693253    17A     -0.594733    18A     -0.545170
      19A     -0.492647    20A     -0.484562    21A     -0.456731
      22A     -0.455416    23A     -0.403991    24A     -0.391452
      25A     -0.380895    26A     -0.354354    27A     -0.351634
      28A     -0.224986    29A     -0.221341    30A     -0.212771
      31A     -0.201473    32A     -0.198963

  @DF-RHF Final Energy:  -417.90728603019693

   => Energetics <=

    Nuclear Repulsion Energy =            390.1555665927713221
    One-Electron Energy =               -1354.4822358864234957
    Two-Electron Energy =                 546.4193832634553019
    Total Energy =                       -417.9072860301969286
  Basis Set: (AUG-CC-PVTZ AUX)
    Blend: AUG-CC-PVTZ-RI
    Molecular point group: c1

    Geometry (in Angstrom), charge = -1, multiplicity = 1:

       Center              X                  Y                   Z               Mass
    ------------   -----------------  -----------------  -----------------  -----------------
         O            2.285673688690     1.140507684401    -0.000021954257    15.994914619570
         O            2.364305488690    -1.111185915599    -0.000060154257    15.994914619570
         C            0.205402688690    -0.005267315599    -0.000040954257    12.000000000000
         C           -0.510209311310    -1.208941315599    -0.000115954257    12.000000000000
         C           -0.510210311310     1.198406684401     0.000113045743    12.000000000000
         C           -1.906624311310    -1.212600315599    -0.000050954257    12.000000000000
         C           -1.906626311310     1.202065684401     0.000186045743    12.000000000000
         C           -2.613108311310    -0.005267315599     0.000103045743    12.000000000000
         C            1.754335688690    -0.005267315599    -0.000108954257    12.000000000000
         H            0.069577688690    -2.128659315599    -0.000222954257     1.007825032230
         H            0.069576688690     2.118124684401     0.000162045743     1.007825032230
         H           -2.450802311310    -2.157486315599    -0.000118954257     1.007825032230
         H           -2.450804311310     2.146951684401     0.000309045743     1.007825032230
         H           -3.702844311310    -0.005269315599     0.000158045743     1.007825032230

  Basis Set: AUG-CC-PVTZ
    Blend: AUG-CC-PVTZ
  Basis Set: (AUG-CC-PVTZ AUX)
    Blend: AUG-CC-PVTZ-JKFIT
	 Reference Energy          =    -417.9072860301969286 [Eh]
	 Singles Energy            =      -0.0000000000000000 [Eh]
	 Same-Spin Energy          =      -0.4430641733079322 [Eh]
	 Opposite-Spin Energy      =      -1.3206421974365166 [Eh]
	 Correlation Energy        =      -1.7637063707444489 [Eh]
	 Total Energy              =    -419.6709924009413726 [Eh]

	 ================> DF-SCS-MP2 Energies <==================
	-----------------------------------------------------------
	 SCS Same-Spin Scale       =       0.3333333333333333 [-]
	 SCS Opposite-Spin Scale   =       1.2000000000000000 [-]
	 SCS Same-Spin Energy      =      -0.1476880577693107 [Eh]
	 SCS Opposite-Spin Energy  =      -1.5847706369238199 [Eh]
	 SCS Correlation Energy    =      -1.7324586946931306 [Eh]
	 SCS Total Energy          =    -419.6397447248900789 [Eh]
	-----------------------------------------------------------

  Dipole Moment: [D]
     X:    -8.8864      Y:    -0.0424      Z:     0.0001     Total:     8.8865

*** Psi4 exiting successfully. Buy a developer a beer!
