                               Psi4 1.4a3.dev225

  ==> Input File <==

--------------------------------------------------------------------------
#psi4
#
memory 32 gb

molecule  {
-1 1
  O        0.0000000     1.1363720    -2.3728160
  O        0.0000000    -1.1363720    -2.3728160
  C        0.0000000     0.0000000    -0.2802600
  C        0.0017180    -1.2051330     0.4346350
  C       -0.0017180     1.2051330     0.4346350
  C        0.0017610    -1.2079500     1.8312180
  C       -0.0017610     1.2079500     1.8312180
  C        0.0000000     0.0000000     2.5358620
  C        0.0000000     0.0000000    -1.7932360
  H        0.0030420    -2.1363990    -0.1247460
  H       -0.0030420     2.1363990    -0.1247460
  H        0.0031530    -2.1518800     2.3731470
  H       -0.0031530     2.1518800     2.3731470
  H        0.0000000     0.0000000     3.6238220
units angstrom
no_reorient  #important for SAPT in psi4, default
symmetry c1  #important for SAPT in psi4, default
}

set PROPERTIES_ORIGIN ["COM"]
properties('MP2/aug-cc-pvtz', properties = ['dipole'])
--------------------------------------------------------------------------

    Molecular point group: c1
  Charge       = -1
  Multiplicity = 1
  Basis Set: AUG-CC-PVTZ
    Blend: AUG-CC-PVTZ
  Basis Set: (AUG-CC-PVTZ AUX)
    Blend: AUG-CC-PVTZ-JKFIT

    Orbital Energies [Eh]
    ---------------------

    Doubly Occupied:

       1A    -20.304853     2A    -20.304819     3A    -11.155927
       4A    -11.120017     5A    -11.114038     6A    -11.113905
       7A    -11.102577     8A    -11.102494     9A    -11.094425
      10A     -1.171029    11A     -1.068463    12A     -1.019624
      13A     -0.887640    14A     -0.884748    15A     -0.709452
      16A     -0.693618    17A     -0.599118    18A     -0.547062
      19A     -0.493700    20A     -0.485570    21A     -0.457953
      22A     -0.453438    23A     -0.400118    24A     -0.391535
      25A     -0.379235    26A     -0.355728    27A     -0.347742
      28A     -0.226719    29A     -0.219448    30A     -0.212857
      31A     -0.199968    32A     -0.198184

  @DF-RHF Final Energy:  -417.90525119883887

   => Energetics <=

    Nuclear Repulsion Energy =            390.8406907940010910
    One-Electron Energy =               -1355.8598773986720971
    Two-Electron Energy =                 547.1139354058320805
    Total Energy =                       -417.9052511988388687
  Basis Set: (AUG-CC-PVTZ AUX)
    Blend: AUG-CC-PVTZ-RI
    Molecular point group: c1

    Geometry (in Angstrom), charge = -1, multiplicity = 1:

       Center              X                  Y                   Z               Mass
    ------------   -----------------  -----------------  -----------------  -----------------
         O            0.000000000000     1.136372000000    -2.308426891212    15.994914619570
         O            0.000000000000    -1.136372000000    -2.308426891212    15.994914619570
         C            0.000000000000     0.000000000000    -0.215870891212    12.000000000000
         C            0.001718000000    -1.205133000000     0.499024108788    12.000000000000
         C           -0.001718000000     1.205133000000     0.499024108788    12.000000000000
         C            0.001761000000    -1.207950000000     1.895607108788    12.000000000000
         C           -0.001761000000     1.207950000000     1.895607108788    12.000000000000
         C            0.000000000000     0.000000000000     2.600251108788    12.000000000000
         C            0.000000000000     0.000000000000    -1.728846891212    12.000000000000
         H            0.003042000000    -2.136399000000    -0.060356891212     1.007825032230
         H           -0.003042000000     2.136399000000    -0.060356891212     1.007825032230
         H            0.003153000000    -2.151880000000     2.437536108788     1.007825032230
         H           -0.003153000000     2.151880000000     2.437536108788     1.007825032230
         H            0.000000000000     0.000000000000     3.688211108788     1.007825032230

  Basis Set: AUG-CC-PVTZ
    Blend: AUG-CC-PVTZ
  Basis Set: (AUG-CC-PVTZ AUX)
    Blend: AUG-CC-PVTZ-JKFIT
	 Reference Energy          =    -417.9052511988388687 [Eh]
	 Singles Energy            =      -0.0000000000000000 [Eh]
	 Same-Spin Energy          =      -0.4436243898782113 [Eh]
	 Opposite-Spin Energy      =      -1.3219059040235435 [Eh]
	 Correlation Energy        =      -1.7655302939017548 [Eh]
	 Total Energy              =    -419.6707814927406162 [Eh]

	 ================> DF-SCS-MP2 Energies <==================
	-----------------------------------------------------------
	 SCS Same-Spin Scale       =       0.3333333333333333 [-]
	 SCS Opposite-Spin Scale   =       1.2000000000000000 [-]
	 SCS Same-Spin Energy      =      -0.1478747966260704 [Eh]
	 SCS Opposite-Spin Energy  =      -1.5862870848282522 [Eh]
	 SCS Correlation Energy    =      -1.7341618814543227 [Eh]
	 SCS Total Energy          =    -419.6394130802931954 [Eh]
	-----------------------------------------------------------

  Dipole Moment: [D]
     X:    -0.0000      Y:     0.0000      Z:     8.9830     Total:     8.9830

*** Psi4 exiting successfully. Buy a developer a beer!
