                               Psi4 1.3.2 release

  ==> Input File <==

--------------------------------------------------------------------------
#psi4
#
memory 32 gb

molecule  {
-1 1
  O        2.3621300     1.1457750    -0.0000250
  O        2.3621310    -1.1457740    -0.0000570
  C        0.2818590     0.0000000    -0.0000440
  C       -0.5159739    -1.1508233    -0.0001107
  C       -0.4337540     1.2036740     0.0001100
  C       -1.8301680    -1.2073330    -0.0000540
  C       -1.8301700     1.2073330     0.0001830
  C       -2.5366520     0.0000000     0.0001000
  C        1.8307920     0.0000000    -0.0001120
  H        0.1460340    -2.1233920    -0.0002260
  H        0.1460330     2.1233920     0.0001590
  H       -2.3743460    -2.1522190    -0.0001220
  H       -2.3743480     2.1522190     0.0003060
  H       -3.6263880    -0.0000020     0.0001550
units angstrom
no_reorient  #important for SAPT in psi4, default
symmetry c1  #important for SAPT in psi4, default
}

set PROPERTIES_ORIGIN ["COM"]
properties('MP2/aug-cc-pvtz', properties = ['dipole'])
--------------------------------------------------------------------------

    Molecular point group: c1
  Charge       = -1
  Multiplicity = 1
  Basis Set: AUG-CC-PVTZ
    Blend: AUG-CC-PVTZ
  Basis Set: (AUG-CC-PVTZ AUX)
    Blend: AUG-CC-PVTZ-JKFIT

    Orbital Energies [Eh]
    ---------------------

    Doubly Occupied:

       1A    -20.310964     2A    -20.310925     3A    -11.161919
       4A    -11.116705     5A    -11.110994     6A    -11.102177
       7A    -11.096979     8A    -11.094990     9A    -11.090302
      10A     -1.181097    11A     -1.084351    12A     -1.025782
      13A     -0.890705    14A     -0.879958    15A     -0.707372
      16A     -0.682888    17A     -0.596115    18A     -0.541662
      19A     -0.498784    20A     -0.477643    21A     -0.457338
      22A     -0.449111    23A     -0.408759    24A     -0.395326
      25A     -0.383177    26A     -0.356305    27A     -0.329803
      28A     -0.230339    29A     -0.224711    30A     -0.219260
      31A     -0.207052    32A     -0.194734

  @DF-RHF Final Energy:  -417.89503929385921

   => Energetics <=

    Nuclear Repulsion Energy =            391.7481925820275706
    One-Electron Energy =               -1357.6500091704122042
    Two-Electron Energy =                 548.0067772945254774
    Total Energy =                       -417.8950392938592131
  Basis Set: (AUG-CC-PVTZ AUX)
    Blend: AUG-CC-PVTZ-RI
    Molecular point group: c1

    Geometry (in Angstrom), charge = -1, multiplicity = 1:

       Center              X                  Y                   Z               Mass
    ------------   -----------------  -----------------  -----------------  -----------------
         O            2.304217546592     1.140534746687    -0.000023596579    15.994914619570
         O            2.304218546592    -1.151014253313    -0.000055596579    15.994914619570
         C            0.223946546592    -0.005240253313    -0.000042596579    12.000000000000
         C           -0.573886353408    -1.156063553313    -0.000109296579    12.000000000000
         C           -0.491666453408     1.198433746687     0.000111403421    12.000000000000
         C           -1.888080453408    -1.212573253313    -0.000052596579    12.000000000000
         C           -1.888082453408     1.202092746687     0.000184403421    12.000000000000
         C           -2.594564453408    -0.005240253313     0.000101403421    12.000000000000
         C            1.772879546592    -0.005240253313    -0.000110596579    12.000000000000
         H            0.088121546592    -2.128632253313    -0.000224596579     1.007825032230
         H            0.088120546592     2.118151746687     0.000160403421     1.007825032230
         H           -2.432258453408    -2.157459253313    -0.000120596579     1.007825032230
         H           -2.432260453408     2.146978746687     0.000307403421     1.007825032230
         H           -3.684300453408    -0.005242253313     0.000156403421     1.007825032230

  Basis Set: AUG-CC-PVTZ
    Blend: AUG-CC-PVTZ
  Basis Set: (AUG-CC-PVTZ AUX)
    Blend: AUG-CC-PVTZ-JKFIT
	 Reference Energy          =    -417.8950392938592131 [Eh]
	 Singles Energy            =      -0.0000000000000000 [Eh]
	 Same-Spin Energy          =      -0.4437538302567691 [Eh]
	 Opposite-Spin Energy      =      -1.3214699587208263 [Eh]
	 Correlation Energy        =      -1.7652237889775955 [Eh]
	 Total Energy              =    -419.6602630828368206 [Eh]

	 ================> DF-SCS-MP2 Energies <==================
	-----------------------------------------------------------
	 SCS Same-Spin Scale       =       0.3333333333333333 [-]
	 SCS Opposite-Spin Scale   =       1.2000000000000000 [-]
	 SCS Same-Spin Energy      =      -0.1479179434189230 [Eh]
	 SCS Opposite-Spin Energy  =      -1.5857639504649914 [Eh]
	 SCS Correlation Energy    =      -1.7336818938839145 [Eh]
	 SCS Total Energy          =    -419.6287211877431105 [Eh]
	-----------------------------------------------------------

  Dipole Moment: [D]
     X:    -8.5816      Y:     0.0671      Z:     0.0001     Total:     8.5819

*** Psi4 exiting successfully. Buy a developer a beer!
