                               Psi4 1.4a3.dev225

  ==> Input File <==

--------------------------------------------------------------------------
#psi4
#
memory 32 gb

molecule  {
-1 1
  O        0.0000000     1.1363720    -2.3728160
  O        0.0000000    -1.1363720    -2.3728160
  C        0.0000000     0.0000000    -0.2802600
  C        0.0017180    -1.2051330     0.4346350
  C       -0.0017180     1.2051330     0.4346350
  C        0.0017610    -1.2079500     1.8312180
  C       -0.0017610     1.2079500     1.8312180
  C        0.0000000     0.0000000     2.5358620
  C        0.0000000     0.0000000    -1.7632360
  H        0.0030420    -2.1363990    -0.1247460
  H       -0.0030420     2.1363990    -0.1247460
  H        0.0031530    -2.1518800     2.3731470
  H       -0.0031530     2.1518800     2.3731470
  H        0.0000000     0.0000000     3.6238220
units angstrom
no_reorient  #important for SAPT in psi4, default
symmetry c1  #important for SAPT in psi4, default
}

set PROPERTIES_ORIGIN ["COM"]
properties('MP2/aug-cc-pvtz', properties = ['dipole'])
--------------------------------------------------------------------------

    Molecular point group: c1
  Charge       = -1
  Multiplicity = 1
  Basis Set: AUG-CC-PVTZ
    Blend: AUG-CC-PVTZ
  Basis Set: (AUG-CC-PVTZ AUX)
    Blend: AUG-CC-PVTZ-JKFIT

    Orbital Energies [Eh]
    ---------------------

    Doubly Occupied:

       1A    -20.303317     2A    -20.303283     3A    -11.155672
       4A    -11.122328     5A    -11.115597     6A    -11.115478
       7A    -11.105037     8A    -11.104964     9A    -11.095852
      10A     -1.162830    11A     -1.058000    12A     -1.021893
      13A     -0.891804    14A     -0.886686    15A     -0.715609
      16A     -0.695795    17A     -0.603711    18A     -0.549461
      19A     -0.496382    20A     -0.486781    21A     -0.459729
      22A     -0.451077    23A     -0.394741    24A     -0.392257
      25A     -0.380139    26A     -0.355609    27A     -0.343731
      28A     -0.229641    29A     -0.214012    30A     -0.213770
      31A     -0.201350    32A     -0.194242

  @DF-RHF Final Energy:  -417.89986197243945

   => Energetics <=

    Nuclear Repulsion Energy =            390.9565291730850731
    One-Electron Energy =               -1356.0712305060151266
    Two-Electron Energy =                 547.2148393604906005
    Total Energy =                       -417.8998619724394530
  Basis Set: (AUG-CC-PVTZ AUX)
    Blend: AUG-CC-PVTZ-RI
    Molecular point group: c1

    Geometry (in Angstrom), charge = -1, multiplicity = 1:

       Center              X                  Y                   Z               Mass
    ------------   -----------------  -----------------  -----------------  -----------------
         O            0.000000000000     1.136372000000    -2.311401386049    15.994914619570
         O            0.000000000000    -1.136372000000    -2.311401386049    15.994914619570
         C            0.000000000000     0.000000000000    -0.218845386049    12.000000000000
         C            0.001718000000    -1.205133000000     0.496049613951    12.000000000000
         C           -0.001718000000     1.205133000000     0.496049613951    12.000000000000
         C            0.001761000000    -1.207950000000     1.892632613951    12.000000000000
         C           -0.001761000000     1.207950000000     1.892632613951    12.000000000000
         C            0.000000000000     0.000000000000     2.597276613951    12.000000000000
         C            0.000000000000     0.000000000000    -1.701821386049    12.000000000000
         H            0.003042000000    -2.136399000000    -0.063331386049     1.007825032230
         H           -0.003042000000     2.136399000000    -0.063331386049     1.007825032230
         H            0.003153000000    -2.151880000000     2.434561613951     1.007825032230
         H           -0.003153000000     2.151880000000     2.434561613951     1.007825032230
         H            0.000000000000     0.000000000000     3.685236613951     1.007825032230

  Basis Set: AUG-CC-PVTZ
    Blend: AUG-CC-PVTZ
  Basis Set: (AUG-CC-PVTZ AUX)
    Blend: AUG-CC-PVTZ-JKFIT
	 Reference Energy          =    -417.8998619724394530 [Eh]
	 Singles Energy            =      -0.0000000000000000 [Eh]
	 Same-Spin Energy          =      -0.4443163245934058 [Eh]
	 Opposite-Spin Energy      =      -1.3235279649926732 [Eh]
	 Correlation Energy        =      -1.7678442895860791 [Eh]
	 Total Energy              =    -419.6677062620255469 [Eh]

	 ================> DF-SCS-MP2 Energies <==================
	-----------------------------------------------------------
	 SCS Same-Spin Scale       =       0.3333333333333333 [-]
	 SCS Opposite-Spin Scale   =       1.2000000000000000 [-]
	 SCS Same-Spin Energy      =      -0.1481054415311353 [Eh]
	 SCS Opposite-Spin Energy  =      -1.5882335579912079 [Eh]
	 SCS Correlation Energy    =      -1.7363389995223433 [Eh]
	 SCS Total Energy          =    -419.6362009719617845 [Eh]
	-----------------------------------------------------------

  Dipole Moment: [D]
     X:    -0.0000      Y:     0.0000      Z:     9.1966     Total:     9.1966

*** Psi4 exiting successfully. Buy a developer a beer!
