                               Psi4 1.4a3.dev225

  ==> Input File <==

--------------------------------------------------------------------------
#psi4
#
memory 32 gb

molecule  {
-1 1
  O        0.0000000     1.1363720    -2.3728160
  O        0.0000000    -1.1363720    -2.3728160
  C        0.0000000     0.0000000    -0.2802600
  C        0.0017180    -1.2051330     0.4346350
  C       -0.0017180     1.2051330     0.4346350
  C        0.0017610    -1.2079500     1.8312180
  C       -0.0017610     1.2079500     1.8312180
  C        0.0000000     0.0000000     2.5358620
  C        0.0000000     0.0179426    -1.8220714
  H        0.0030420    -2.1363990    -0.1247460
  H       -0.0030420     2.1363990    -0.1247460
  H        0.0031530    -2.1518800     2.3731470
  H       -0.0031530     2.1518800     2.3731470
  H        0.0000000     0.0000000     3.6238220
units angstrom
no_reorient  #important for SAPT in psi4, default
symmetry c1  #important for SAPT in psi4, default
}

set PROPERTIES_ORIGIN ["COM"]
properties('MP2/aug-cc-pvtz', properties = ['dipole'])
--------------------------------------------------------------------------

    Molecular point group: c1
  Charge       = -1
  Multiplicity = 1
  Basis Set: AUG-CC-PVTZ
    Blend: AUG-CC-PVTZ
  Basis Set: (AUG-CC-PVTZ AUX)
    Blend: AUG-CC-PVTZ-JKFIT

    Orbital Energies [Eh]
    ---------------------

    Doubly Occupied:

       1A    -20.310735     2A    -20.302368     3A    -11.156332
       4A    -11.117777     5A    -11.112476     6A    -11.112312
       7A    -11.100164     8A    -11.100059     9A    -11.092516
      10A     -1.180663    11A     -1.077365    12A     -1.017345
      13A     -0.883825    14A     -0.882740    15A     -0.703875
      16A     -0.691459    17A     -0.594725    18A     -0.544831
      19A     -0.491130    20A     -0.484531    21A     -0.456544
      22A     -0.455635    23A     -0.405778    24A     -0.391737
      25A     -0.378579    26A     -0.355094    27A     -0.351521
      28A     -0.226166    29A     -0.221389    30A     -0.212747
      31A     -0.201778    32A     -0.197658

  @DF-RHF Final Energy:  -417.90796533415750

   => Energetics <=

    Nuclear Repulsion Energy =            390.7397229612193428
    One-Electron Energy =               -1355.6716690543676123
    Two-Electron Energy =                 547.0239807589907741
    Total Energy =                       -417.9079653341575522
  Basis Set: (AUG-CC-PVTZ AUX)
    Blend: AUG-CC-PVTZ-RI
    Molecular point group: c1

    Geometry (in Angstrom), charge = -1, multiplicity = 1:

       Center              X                  Y                   Z               Mass
    ------------   -----------------  -----------------  -----------------  -----------------
         O            0.000000000000     1.134592994298    -2.305567866265    15.994914619570
         O            0.000000000000    -1.138151005702    -2.305567866265    15.994914619570
         C            0.000000000000    -0.001779005702    -0.213011866265    12.000000000000
         C            0.001718000000    -1.206912005702     0.501883133735    12.000000000000
         C           -0.001718000000     1.203353994298     0.501883133735    12.000000000000
         C            0.001761000000    -1.209729005702     1.898466133735    12.000000000000
         C           -0.001761000000     1.206170994298     1.898466133735    12.000000000000
         C            0.000000000000    -0.001779005702     2.603110133735    12.000000000000
         C            0.000000000000     0.016163594298    -1.754823266265    12.000000000000
         H            0.003042000000    -2.138178005702    -0.057497866265     1.007825032230
         H           -0.003042000000     2.134619994298    -0.057497866265     1.007825032230
         H            0.003153000000    -2.153659005702     2.440395133735     1.007825032230
         H           -0.003153000000     2.150100994298     2.440395133735     1.007825032230
         H            0.000000000000    -0.001779005702     3.691070133735     1.007825032230

  Basis Set: AUG-CC-PVTZ
    Blend: AUG-CC-PVTZ
  Basis Set: (AUG-CC-PVTZ AUX)
    Blend: AUG-CC-PVTZ-JKFIT
	 Reference Energy          =    -417.9079653341574954 [Eh]
	 Singles Energy            =      -0.0000000000000000 [Eh]
	 Same-Spin Energy          =      -0.4430690406353154 [Eh]
	 Opposite-Spin Energy      =      -1.3205472756772201 [Eh]
	 Correlation Energy        =      -1.7636163163125356 [Eh]
	 Total Energy              =    -419.6715816504700456 [Eh]

	 ================> DF-SCS-MP2 Energies <==================
	-----------------------------------------------------------
	 SCS Same-Spin Scale       =       0.3333333333333333 [-]
	 SCS Opposite-Spin Scale   =       1.2000000000000000 [-]
	 SCS Same-Spin Energy      =      -0.1476896802117718 [Eh]
	 SCS Opposite-Spin Energy  =      -1.5846567308126640 [Eh]
	 SCS Correlation Energy    =      -1.7323464110244358 [Eh]
	 SCS Total Energy          =    -419.6403117451819185 [Eh]
	-----------------------------------------------------------

  Dipole Moment: [D]
     X:     0.0000      Y:     0.1691      Z:     8.7609     Total:     8.7625

*** Psi4 exiting successfully. Buy a developer a beer!
