                               Psi4 1.3.2 release

  ==> Input File <==

--------------------------------------------------------------------------
#psi4
#
memory 32 gb

molecule  {
-1 1
  O        2.3621300     1.1457750    -0.0000250
  O        2.3621310    -1.1457740    -0.0000570
  C        0.2818590     0.0000000    -0.0000440
  C       -0.4337530    -1.2036740    -0.0001190
  C       -0.4337540     1.2036740     0.0001100
  C       -1.8301680    -1.2073330    -0.0000540
  C       -1.8301700     1.2073330     0.0001830
  C       -2.5366520     0.0000000     0.0001000
  C        2.0307920     0.0000000    -0.0001208
  H        0.1460340    -2.1233920    -0.0002260
  H        0.1460330     2.1233920     0.0001590
  H       -2.3743460    -2.1522190    -0.0001220
  H       -2.3743480     2.1522190     0.0003060
  H       -3.6263880    -0.0000020     0.0001550
units angstrom
no_reorient  #important for SAPT in psi4, default
symmetry c1  #important for SAPT in psi4, default
}

set PROPERTIES_ORIGIN ["COM"]
properties('MP2/aug-cc-pvtz', properties = ['dipole'])
--------------------------------------------------------------------------

    Molecular point group: c1
  Charge       = -1
  Multiplicity = 1
  Basis Set: AUG-CC-PVTZ
    Blend: AUG-CC-PVTZ
  Basis Set: (AUG-CC-PVTZ AUX)
    Blend: AUG-CC-PVTZ-JKFIT

    Orbital Energies [Eh]
    ---------------------

    Doubly Occupied:

       1A    -20.332842     2A    -20.332808     3A    -11.175515
       4A    -11.099894     5A    -11.098243     6A    -11.097805
       7A    -11.078678     8A    -11.078644     9A    -11.060210
      10A     -1.235337    11A     -1.158528    12A     -0.997599
      13A     -0.864765    14A     -0.856307    15A     -0.673286
      16A     -0.669007    17A     -0.566444    18A     -0.538518
      19A     -0.480353    20A     -0.471171    21A     -0.462767
      22A     -0.455074    23A     -0.438580    24A     -0.421752
      25A     -0.375207    26A     -0.351433    27A     -0.337199
      28A     -0.269685    29A     -0.248659    30A     -0.192385
      31A     -0.180881    32A     -0.179187

  @DF-RHF Final Energy:  -417.88510032386483

   => Energetics <=

    Nuclear Repulsion Energy =            389.9376195858246206
    One-Electron Energy =               -1354.0879132181653404
    Two-Electron Energy =                 546.2651933084757729
    Total Energy =                       -417.8851003238648900
  Basis Set: (AUG-CC-PVTZ AUX)
    Blend: AUG-CC-PVTZ-RI
    Molecular point group: c1

    Geometry (in Angstrom), charge = -1, multiplicity = 1:

       Center              X                  Y                   Z               Mass
    ------------   -----------------  -----------------  -----------------  -----------------
         O            2.276235392927     1.145774884497    -0.000021901117    15.994914619570
         O            2.276236392927    -1.145774115503    -0.000053901117    15.994914619570
         C            0.195964392927    -0.000000115503    -0.000040901117    12.000000000000
         C           -0.519647607073    -1.203674115503    -0.000115901117    12.000000000000
         C           -0.519648607073     1.203673884497     0.000113098883    12.000000000000
         C           -1.916062607073    -1.207333115503    -0.000050901117    12.000000000000
         C           -1.916064607073     1.207332884497     0.000186098883    12.000000000000
         C           -2.622546607073    -0.000000115503     0.000103098883    12.000000000000
         C            1.944897392927    -0.000000115503    -0.000117701117    12.000000000000
         H            0.060139392927    -2.123392115503    -0.000222901117     1.007825032230
         H            0.060138392927     2.123391884497     0.000162098883     1.007825032230
         H           -2.460240607073    -2.152219115503    -0.000118901117     1.007825032230
         H           -2.460242607073     2.152218884497     0.000309098883     1.007825032230
         H           -3.712282607073    -0.000002115503     0.000158098883     1.007825032230

  Basis Set: AUG-CC-PVTZ
    Blend: AUG-CC-PVTZ
  Basis Set: (AUG-CC-PVTZ AUX)
    Blend: AUG-CC-PVTZ-JKFIT
	 Reference Energy          =    -417.8851003238648332 [Eh]
	 Singles Energy            =      -0.0000000000000000 [Eh]
	 Same-Spin Energy          =      -0.4425122812536342 [Eh]
	 Opposite-Spin Energy      =      -1.3171323583750678 [Eh]
	 Correlation Energy        =      -1.7596446396287020 [Eh]
	 Total Energy              =    -419.6447449634935083 [Eh]

	 ================> DF-SCS-MP2 Energies <==================
	-----------------------------------------------------------
	 SCS Same-Spin Scale       =       0.3333333333333333 [-]
	 SCS Opposite-Spin Scale   =       1.2000000000000000 [-]
	 SCS Same-Spin Energy      =      -0.1475040937512114 [Eh]
	 SCS Opposite-Spin Energy  =      -1.5805588300500812 [Eh]
	 SCS Correlation Energy    =      -1.7280629238012926 [Eh]
	 SCS Total Energy          =    -419.6131632476661366 [Eh]
	-----------------------------------------------------------

  Dipole Moment: [D]
     X:    -6.5056      Y:    -0.0000      Z:     0.0000     Total:     6.5056

*** Psi4 exiting successfully. Buy a developer a beer!
