                               Psi4 1.4a3.dev225

  ==> Input File <==

--------------------------------------------------------------------------
#psi4
#
memory 32 gb

molecule  {
-1 1
  O        0.0000000     1.1363720    -2.3728160
  O        0.0000000    -1.1363720    -2.3728160
  C        0.0000000     0.0000000    -0.2802600
  C        0.0017180    -1.2051330     0.4346350
  C       -0.0017180     1.2051330     0.4346350
  C        0.0017610    -1.2079500     1.8312180
  C       -0.0017610     1.2079500     1.8312180
  C        0.0000000     0.0000000     2.5358620
  C        0.0000000    -0.0179426    -1.8044006
  H        0.0030420    -2.1363990    -0.1247460
  H       -0.0030420     2.1363990    -0.1247460
  H        0.0031530    -2.1518800     2.3731470
  H       -0.0031530     2.1518800     2.3731470
  H        0.0000000     0.0000000     3.6238220
units angstrom
no_reorient  #important for SAPT in psi4, default
symmetry c1  #important for SAPT in psi4, default
}

set PROPERTIES_ORIGIN ["COM"]
properties('MP2/aug-cc-pvtz', properties = ['dipole'])
--------------------------------------------------------------------------

    Molecular point group: c1
  Charge       = -1
  Multiplicity = 1
  Basis Set: AUG-CC-PVTZ
    Blend: AUG-CC-PVTZ
  Basis Set: (AUG-CC-PVTZ AUX)
    Blend: AUG-CC-PVTZ-JKFIT

    Orbital Energies [Eh]
    ---------------------

    Doubly Occupied:

       1A    -20.309629     2A    -20.301312     3A    -11.156019
       4A    -11.119151     5A    -11.113444     6A    -11.113291
       7A    -11.101659     8A    -11.101546     9A    -11.093754
      10A     -1.175702    11A     -1.071126    12A     -1.018728
      13A     -0.886154    14A     -0.883968    15A     -0.707261
      16A     -0.692780    17A     -0.597411    18A     -0.546201
      19A     -0.492723    20A     -0.485168    21A     -0.457340
      22A     -0.454640    23A     -0.402223    24A     -0.391607
      25A     -0.379026    26A     -0.355571    27A     -0.349453
      28A     -0.226216    29A     -0.220237    30A     -0.212665
      31A     -0.201004    32A     -0.197666

  @DF-RHF Final Energy:  -417.90625047838421

   => Energetics <=

    Nuclear Repulsion Energy =            390.8037175989935577
    One-Electron Energy =               -1355.7905883552780324
    Two-Electron Energy =                 547.0806202779002660
    Total Energy =                       -417.9062504783842087
  Basis Set: (AUG-CC-PVTZ AUX)
    Blend: AUG-CC-PVTZ-RI
    Molecular point group: c1

    Geometry (in Angstrom), charge = -1, multiplicity = 1:

       Center              X                  Y                   Z               Mass
    ------------   -----------------  -----------------  -----------------  -----------------
         O            0.000000000000     1.138151005702    -2.307319923043    15.994914619570
         O            0.000000000000    -1.134592994298    -2.307319923043    15.994914619570
         C            0.000000000000     0.001779005702    -0.214763923043    12.000000000000
         C            0.001718000000    -1.203353994298     0.500131076957    12.000000000000
         C           -0.001718000000     1.206912005702     0.500131076957    12.000000000000
         C            0.001761000000    -1.206170994298     1.896714076957    12.000000000000
         C           -0.001761000000     1.209729005702     1.896714076957    12.000000000000
         C            0.000000000000     0.001779005702     2.601358076957    12.000000000000
         C            0.000000000000    -0.016163594298    -1.738904523043    12.000000000000
         H            0.003042000000    -2.134619994298    -0.059249923043     1.007825032230
         H           -0.003042000000     2.138178005702    -0.059249923043     1.007825032230
         H            0.003153000000    -2.150100994298     2.438643076957     1.007825032230
         H           -0.003153000000     2.153659005702     2.438643076957     1.007825032230
         H            0.000000000000     0.001779005702     3.689318076957     1.007825032230

  Basis Set: AUG-CC-PVTZ
    Blend: AUG-CC-PVTZ
  Basis Set: (AUG-CC-PVTZ AUX)
    Blend: AUG-CC-PVTZ-JKFIT
	 Reference Energy          =    -417.9062504783842087 [Eh]
	 Singles Energy            =      -0.0000000000000000 [Eh]
	 Same-Spin Energy          =      -0.4433948488337313 [Eh]
	 Opposite-Spin Energy      =      -1.3213546789754538 [Eh]
	 Correlation Energy        =      -1.7647495278091849 [Eh]
	 Total Energy              =    -419.6710000061933670 [Eh]

	 ================> DF-SCS-MP2 Energies <==================
	-----------------------------------------------------------
	 SCS Same-Spin Scale       =       0.3333333333333333 [-]
	 SCS Opposite-Spin Scale   =       1.2000000000000000 [-]
	 SCS Same-Spin Energy      =      -0.1477982829445771 [Eh]
	 SCS Opposite-Spin Energy  =      -1.5856256147705445 [Eh]
	 SCS Correlation Energy    =      -1.7334238977151215 [Eh]
	 SCS Total Energy          =    -419.6396743760993218 [Eh]
	-----------------------------------------------------------

  Dipole Moment: [D]
     X:    -0.0000      Y:    -0.1666      Z:     8.8995     Total:     8.9010

*** Psi4 exiting successfully. Buy a developer a beer!
