                               Psi4 1.3.2 release

  ==> Input File <==

--------------------------------------------------------------------------
#psi4
#
memory 32 gb

molecule  {
-1 1
  O        2.3621300     1.1457750    -0.0000250
  O        2.3621310    -1.1457740    -0.0000570
  C        0.2818590     0.0000000    -0.0000440
  C       -0.4337530    -1.2036740    -0.0001190
  C       -0.4337540     1.2036740     0.0001100
  C       -1.8301680    -1.2073330    -0.0000540
  C       -1.8301700     1.2073330     0.0001830
  C       -2.5366520     0.0000000     0.0001000
  C        1.8728623    -0.0907199    -0.0001076
  H        0.1460340    -2.1233920    -0.0002260
  H        0.1460330     2.1233920     0.0001590
  H       -2.3743460    -2.1522190    -0.0001220
  H       -2.3743480     2.1522190     0.0003060
  H       -3.6263880    -0.0000020     0.0001550
units angstrom
no_reorient  #important for SAPT in psi4, default
symmetry c1  #important for SAPT in psi4, default
}

set PROPERTIES_ORIGIN ["COM"]
properties('MP2/aug-cc-pvtz', properties = ['dipole'])
--------------------------------------------------------------------------

    Molecular point group: c1
  Charge       = -1
  Multiplicity = 1
  Basis Set: AUG-CC-PVTZ
    Blend: AUG-CC-PVTZ
  Basis Set: (AUG-CC-PVTZ AUX)
    Blend: AUG-CC-PVTZ-JKFIT

    Orbital Energies [Eh]
    ---------------------

    Doubly Occupied:

       1A    -20.334180     2A    -20.291490     3A    -11.158795
       4A    -11.113666     5A    -11.109516     6A    -11.108993
       7A    -11.094456     8A    -11.094366     9A    -11.085889
      10A     -1.230152    11A     -1.067647    12A     -1.012056
      13A     -0.878687    14A     -0.875836    15A     -0.694129
      16A     -0.686661    17A     -0.586804    18A     -0.543320
      19A     -0.487788    20A     -0.484500    21A     -0.466736
      22A     -0.450993    23A     -0.415235    24A     -0.402852
      25A     -0.380528    26A     -0.359285    27A     -0.350328
      28A     -0.234255    29A     -0.214586    30A     -0.205555
      31A     -0.203016    32A     -0.190455

  @DF-RHF Final Energy:  -417.89391396985559

   => Energetics <=

    Nuclear Repulsion Energy =            390.7481127032873474
    One-Electron Energy =               -1355.6585395346999121
    Two-Electron Energy =                 547.0165128615569756
    Total Energy =                       -417.8939139698555891
  Basis Set: (AUG-CC-PVTZ AUX)
    Blend: AUG-CC-PVTZ-RI
    Molecular point group: c1

    Geometry (in Angstrom), charge = -1, multiplicity = 1:

       Center              X                  Y                   Z               Mass
    ------------   -----------------  -----------------  -----------------  -----------------
         O            2.291894095503     1.154769746969    -0.000023209895    15.994914619570
         O            2.291895095503    -1.136779253031    -0.000055209895    15.994914619570
         C            0.211623095503     0.008994746969    -0.000042209895    12.000000000000
         C           -0.503988904497    -1.194679253031    -0.000117209895    12.000000000000
         C           -0.503989904497     1.212668746969     0.000111790105    12.000000000000
         C           -1.900403904497    -1.198338253031    -0.000052209895    12.000000000000
         C           -1.900405904497     1.216327746969     0.000184790105    12.000000000000
         C           -2.606887904497     0.008994746969     0.000101790105    12.000000000000
         C            1.802626395503    -0.081725153031    -0.000105809895    12.000000000000
         H            0.075798095503    -2.114397253031    -0.000224209895     1.007825032230
         H            0.075797095503     2.132386746969     0.000160790105     1.007825032230
         H           -2.444581904497    -2.143224253031    -0.000120209895     1.007825032230
         H           -2.444583904497     2.161213746969     0.000307790105     1.007825032230
         H           -3.696623904497     0.008992746969     0.000156790105     1.007825032230

  Basis Set: AUG-CC-PVTZ
    Blend: AUG-CC-PVTZ
  Basis Set: (AUG-CC-PVTZ AUX)
    Blend: AUG-CC-PVTZ-JKFIT
	 Reference Energy          =    -417.8939139698555891 [Eh]
	 Singles Energy            =      -0.0000000000000000 [Eh]
	 Same-Spin Energy          =      -0.4426320408610071 [Eh]
	 Opposite-Spin Energy      =      -1.3192377297617426 [Eh]
	 Correlation Energy        =      -1.7618697706227497 [Eh]
	 Total Energy              =    -419.6557837404783413 [Eh]

	 ================> DF-SCS-MP2 Energies <==================
	-----------------------------------------------------------
	 SCS Same-Spin Scale       =       0.3333333333333333 [-]
	 SCS Opposite-Spin Scale   =       1.2000000000000000 [-]
	 SCS Same-Spin Energy      =      -0.1475440136203357 [Eh]
	 SCS Opposite-Spin Energy  =      -1.5830852757140910 [Eh]
	 SCS Correlation Energy    =      -1.7306292893344266 [Eh]
	 SCS Total Energy          =    -419.6245432591900340 [Eh]
	-----------------------------------------------------------

  Dipole Moment: [D]
     X:    -8.2324      Y:    -0.8923      Z:     0.0001     Total:     8.2806

*** Psi4 exiting successfully. Buy a developer a beer!
