                               Psi4 1.4a3.dev225

  ==> Input File <==

--------------------------------------------------------------------------
#psi4
#
memory 32 gb

molecule  {
-1 1
  O        0.0000000     1.1363720    -2.3728160
  O        0.0000000    -1.1363720    -2.3728160
  C        0.0000000     0.0000000    -0.2802600
  C        0.0017180    -1.2051330     0.4346350
  C       -0.0017180     1.2051330     0.4346350
  C        0.0017610    -1.2079500     1.8312180
  C       -0.0017610     1.2079500     1.8312180
  C        0.0000000     0.0000000     2.5358620
  C        0.0000000    -0.0448564    -1.7911475
  H        0.0030420    -2.1363990    -0.1247460
  H       -0.0030420     2.1363990    -0.1247460
  H        0.0031530    -2.1518800     2.3731470
  H       -0.0031530     2.1518800     2.3731470
  H        0.0000000     0.0000000     3.6238220
units angstrom
no_reorient  #important for SAPT in psi4, default
symmetry c1  #important for SAPT in psi4, default
}

set PROPERTIES_ORIGIN ["COM"]
properties('MP2/aug-cc-pvtz', properties = ['dipole'])
--------------------------------------------------------------------------

    Molecular point group: c1
  Charge       = -1
  Multiplicity = 1
  Basis Set: AUG-CC-PVTZ
    Blend: AUG-CC-PVTZ
  Basis Set: (AUG-CC-PVTZ AUX)
    Blend: AUG-CC-PVTZ-JKFIT

    Orbital Energies [Eh]
    ---------------------

    Doubly Occupied:

       1A    -20.315068     2A    -20.294391     3A    -11.155555
       4A    -11.120162     5A    -11.114166     6A    -11.113968
       7A    -11.102806     8A    -11.102579     9A    -11.094586
      10A     -1.179551    11A     -1.060624    12A     -1.019522
      13A     -0.888037    14A     -0.884692    15A     -0.709927
      16A     -0.693683    17A     -0.599428    18A     -0.547347
      19A     -0.494038    20A     -0.485796    21A     -0.458421
      22A     -0.455466    23A     -0.399474    24A     -0.392491
      25A     -0.379866    26A     -0.355916    27A     -0.349343
      28A     -0.228060    29A     -0.214766    30A     -0.212782
      31A     -0.203019    32A     -0.193650

  @DF-RHF Final Energy:  -417.90215757239025

   => Energetics <=

    Nuclear Repulsion Energy =            390.8755873385160839
    One-Electron Energy =               -1355.9171339186434579
    Two-Electron Energy =                 547.1393890077371225
    Total Energy =                       -417.9021575723902515
  Basis Set: (AUG-CC-PVTZ AUX)
    Blend: AUG-CC-PVTZ-RI
    Molecular point group: c1

    Geometry (in Angstrom), charge = -1, multiplicity = 1:

       Center              X                  Y                   Z               Mass
    ------------   -----------------  -----------------  -----------------  -----------------
         O            0.000000000000     1.140819504340    -2.308633965628    15.994914619570
         O            0.000000000000    -1.131924495660    -2.308633965628    15.994914619570
         C            0.000000000000     0.004447504340    -0.216077965628    12.000000000000
         C            0.001718000000    -1.200685495660     0.498817034372    12.000000000000
         C           -0.001718000000     1.209580504340     0.498817034372    12.000000000000
         C            0.001761000000    -1.203502495660     1.895400034372    12.000000000000
         C           -0.001761000000     1.212397504340     1.895400034372    12.000000000000
         C            0.000000000000     0.004447504340     2.600044034372    12.000000000000
         C            0.000000000000    -0.040408895660    -1.726965465628    12.000000000000
         H            0.003042000000    -2.131951495660    -0.060563965628     1.007825032230
         H           -0.003042000000     2.140846504340    -0.060563965628     1.007825032230
         H            0.003153000000    -2.147432495660     2.437329034372     1.007825032230
         H           -0.003153000000     2.156327504340     2.437329034372     1.007825032230
         H            0.000000000000     0.004447504340     3.688004034372     1.007825032230

  Basis Set: AUG-CC-PVTZ
    Blend: AUG-CC-PVTZ
  Basis Set: (AUG-CC-PVTZ AUX)
    Blend: AUG-CC-PVTZ-JKFIT
	 Reference Energy          =    -417.9021575723902515 [Eh]
	 Singles Energy            =      -0.0000000000000000 [Eh]
	 Same-Spin Energy          =      -0.4436546527666156 [Eh]
	 Opposite-Spin Energy      =      -1.3219980869727070 [Eh]
	 Correlation Energy        =      -1.7656527397393227 [Eh]
	 Total Energy              =    -419.6678103121295749 [Eh]

	 ================> DF-SCS-MP2 Energies <==================
	-----------------------------------------------------------
	 SCS Same-Spin Scale       =       0.3333333333333333 [-]
	 SCS Opposite-Spin Scale   =       1.2000000000000000 [-]
	 SCS Same-Spin Energy      =      -0.1478848842555385 [Eh]
	 SCS Opposite-Spin Energy  =      -1.5863977043672484 [Eh]
	 SCS Correlation Energy    =      -1.7342825886227868 [Eh]
	 SCS Total Energy          =    -419.6364401610130130 [Eh]
	-----------------------------------------------------------

  Dipole Moment: [D]
     X:    -0.0001      Y:    -0.4129      Z:     9.0025     Total:     9.0120

*** Psi4 exiting successfully. Buy a developer a beer!
