                               Psi4 1.3.2 release

  ==> Input File <==

--------------------------------------------------------------------------
#psi4
#
memory 32 gb

molecule  {
-1 1
  O        2.3621300     1.1457750    -0.0000250
  O        2.3621310    -1.1457740    -0.0000570
  C        0.2818590     0.0000000    -0.0000440
  C       -0.4126370    -1.2159798    -0.0001210
  C       -0.4337540     1.2036740     0.0001100
  C       -1.8301680    -1.2073330    -0.0000540
  C       -1.8301700     1.2073330     0.0001830
  C       -2.5366520     0.0000000     0.0001000
  C        1.8307920     0.0000000    -0.0001120
  H        0.1460340    -2.1233920    -0.0002260
  H        0.1460330     2.1233920     0.0001590
  H       -2.3743460    -2.1522190    -0.0001220
  H       -2.3743480     2.1522190     0.0003060
  H       -3.6263880    -0.0000020     0.0001550
units angstrom
no_reorient  #important for SAPT in psi4, default
symmetry c1  #important for SAPT in psi4, default
}

set PROPERTIES_ORIGIN ["COM"]
properties('MP2/aug-cc-pvtz', properties = ['dipole'])
--------------------------------------------------------------------------

    Molecular point group: c1
  Charge       = -1
  Multiplicity = 1
  Basis Set: AUG-CC-PVTZ
    Blend: AUG-CC-PVTZ
  Basis Set: (AUG-CC-PVTZ AUX)
    Blend: AUG-CC-PVTZ-JKFIT

    Orbital Energies [Eh]
    ---------------------

    Doubly Occupied:

       1A    -20.309142     2A    -20.309096     3A    -11.158294
       4A    -11.117343     5A    -11.114156     6A    -11.112098
       7A    -11.099110     8A    -11.098617     9A    -11.090106
      10A     -1.179692    11A     -1.082957    12A     -1.014047
      13A     -0.882903    14A     -0.878934    15A     -0.699676
      16A     -0.692706    17A     -0.591954    18A     -0.545771
      19A     -0.488903    20A     -0.484637    21A     -0.456631
      22A     -0.454043    23A     -0.408667    24A     -0.390788
      25A     -0.377225    26A     -0.355898    27A     -0.350655
      28A     -0.228956    29A     -0.221191    30A     -0.212944
      31A     -0.200872    32A     -0.197985

  @DF-RHF Final Energy:  -417.90724094461410

   => Energetics <=

    Nuclear Repulsion Energy =            390.5553238383379835
    One-Electron Energy =               -1355.3131444698260566
    Two-Electron Energy =                 546.8505796868739708
    Total Energy =                       -417.9072409446141592
  Basis Set: (AUG-CC-PVTZ AUX)
    Blend: AUG-CC-PVTZ-RI
    Molecular point group: c1

    Geometry (in Angstrom), charge = -1, multiplicity = 1:

       Center              X                  Y                   Z               Mass
    ------------   -----------------  -----------------  -----------------  -----------------
         O            2.293971710741     1.146995002449    -0.000022575336    15.994914619570
         O            2.293972710741    -1.144553997551    -0.000054575336    15.994914619570
         C            0.213700710741     0.001220002449    -0.000041575336    12.000000000000
         C           -0.480795289259    -1.214759797551    -0.000118575336    12.000000000000
         C           -0.501912289259     1.204894002449     0.000112424664    12.000000000000
         C           -1.898326289259    -1.206112997551    -0.000051575336    12.000000000000
         C           -1.898328289259     1.208553002449     0.000185424664    12.000000000000
         C           -2.604810289259     0.001220002449     0.000102424664    12.000000000000
         C            1.762633710741     0.001220002449    -0.000109575336    12.000000000000
         H            0.077875710741    -2.122171997551    -0.000223575336     1.007825032230
         H            0.077874710741     2.124612002449     0.000161424664     1.007825032230
         H           -2.442504289259    -2.150998997551    -0.000119575336     1.007825032230
         H           -2.442506289259     2.153439002449     0.000308424664     1.007825032230
         H           -3.694546289259     0.001218002449     0.000157424664     1.007825032230

  Basis Set: AUG-CC-PVTZ
    Blend: AUG-CC-PVTZ
  Basis Set: (AUG-CC-PVTZ AUX)
    Blend: AUG-CC-PVTZ-JKFIT
	 Reference Energy          =    -417.9072409446141023 [Eh]
	 Singles Energy            =      -0.0000000000000000 [Eh]
	 Same-Spin Energy          =      -0.4431951731916286 [Eh]
	 Opposite-Spin Energy      =      -1.3208680173922862 [Eh]
	 Correlation Energy        =      -1.7640631905839148 [Eh]
	 Total Energy              =    -419.6713041351979996 [Eh]

	 ================> DF-SCS-MP2 Energies <==================
	-----------------------------------------------------------
	 SCS Same-Spin Scale       =       0.3333333333333333 [-]
	 SCS Opposite-Spin Scale   =       1.2000000000000000 [-]
	 SCS Same-Spin Energy      =      -0.1477317243972095 [Eh]
	 SCS Opposite-Spin Energy  =      -1.5850416208707434 [Eh]
	 SCS Correlation Energy    =      -1.7327733452679530 [Eh]
	 SCS Total Energy          =    -419.6400142898820604 [Eh]
	-----------------------------------------------------------

  Dipole Moment: [D]
     X:    -8.5861      Y:    -0.0105      Z:     0.0001     Total:     8.5861

*** Psi4 exiting successfully. Buy a developer a beer!
