                               Psi4 1.3.2 release

  ==> Input File <==

--------------------------------------------------------------------------
#psi4
#
memory 32 gb

molecule  {
-1 1
  O        2.3621300     1.1457750    -0.0000250
  O        2.3621310    -1.1457740    -0.0000570
  C        0.2818590     0.0000000    -0.0000440
  C       -0.4337530    -1.2036740    -0.0001190
  C       -0.4337540     1.2036740     0.0001100
  C       -1.8301680    -1.2073330    -0.0000540
  C       -1.8301700     1.2073330     0.0001830
  C       -2.5366520     0.0000000     0.0001000
  C        1.7887218    -0.0907199    -0.0001189
  H        0.1460340    -2.1233920    -0.0002260
  H        0.1460330     2.1233920     0.0001590
  H       -2.3743460    -2.1522190    -0.0001220
  H       -2.3743480     2.1522190     0.0003060
  H       -3.6263880    -0.0000020     0.0001550
units angstrom
no_reorient  #important for SAPT in psi4, default
symmetry c1  #important for SAPT in psi4, default
}

set PROPERTIES_ORIGIN ["COM"]
properties('MP2/aug-cc-pvtz', properties = ['dipole'])
--------------------------------------------------------------------------

    Molecular point group: c1
  Charge       = -1
  Multiplicity = 1
  Basis Set: AUG-CC-PVTZ
    Blend: AUG-CC-PVTZ
  Basis Set: (AUG-CC-PVTZ AUX)
    Blend: AUG-CC-PVTZ-JKFIT

    Orbital Energies [Eh]
    ---------------------

    Doubly Occupied:

       1A    -20.327661     2A    -20.286094     3A    -11.156605
       4A    -11.120331     5A    -11.114242     6A    -11.113892
       7A    -11.101864     8A    -11.101508     9A    -11.092992
      10A     -1.200884    11A     -1.044891    12A     -1.017798
      13A     -0.888242    14A     -0.883203    15A     -0.709510
      16A     -0.693377    17A     -0.598925    18A     -0.548160
      19A     -0.494489    20A     -0.485260    21A     -0.463339
      22A     -0.456109    23A     -0.399840    24A     -0.395644
      25A     -0.381839    26A     -0.354152    27A     -0.353776
      28A     -0.227950    29A     -0.212321    30A     -0.207679
      31A     -0.205708    32A     -0.187744

  @DF-RHF Final Energy:  -417.89260853583875

   => Energetics <=

    Nuclear Repulsion Energy =            391.0548823520280166
    One-Electron Energy =               -1356.2429211115677390
    Two-Electron Energy =                 547.2954302237010324
    Total Energy =                       -417.8926085358386899
  Basis Set: (AUG-CC-PVTZ AUX)
    Blend: AUG-CC-PVTZ-RI
    Molecular point group: c1

    Geometry (in Angstrom), charge = -1, multiplicity = 1:

       Center              X                  Y                   Z               Mass
    ------------   -----------------  -----------------  -----------------  -----------------
         O            2.300236611597     1.154769746969    -0.000022089502    15.994914619570
         O            2.300237611597    -1.136779253031    -0.000054089502    15.994914619570
         C            0.219965611597     0.008994746969    -0.000041089502    12.000000000000
         C           -0.495646388403    -1.194679253031    -0.000116089502    12.000000000000
         C           -0.495647388403     1.212668746969     0.000112910498    12.000000000000
         C           -1.892061388403    -1.198338253031    -0.000051089502    12.000000000000
         C           -1.892063388403     1.216327746969     0.000185910498    12.000000000000
         C           -2.598545388403     0.008994746969     0.000102910498    12.000000000000
         C            1.726828411597    -0.081725153031    -0.000115989502    12.000000000000
         H            0.084140611597    -2.114397253031    -0.000223089502     1.007825032230
         H            0.084139611597     2.132386746969     0.000161910498     1.007825032230
         H           -2.436239388403    -2.143224253031    -0.000119089502     1.007825032230
         H           -2.436241388403     2.161213746969     0.000308910498     1.007825032230
         H           -3.688281388403     0.008992746969     0.000157910498     1.007825032230

  Basis Set: AUG-CC-PVTZ
    Blend: AUG-CC-PVTZ
  Basis Set: (AUG-CC-PVTZ AUX)
    Blend: AUG-CC-PVTZ-JKFIT
	 Reference Energy          =    -417.8926085358387468 [Eh]
	 Singles Energy            =      -0.0000000000000000 [Eh]
	 Same-Spin Energy          =      -0.4439617669382236 [Eh]
	 Opposite-Spin Energy      =      -1.3226261530028105 [Eh]
	 Correlation Energy        =      -1.7665879199410341 [Eh]
	 Total Energy              =    -419.6591964557798065 [Eh]

	 ================> DF-SCS-MP2 Energies <==================
	-----------------------------------------------------------
	 SCS Same-Spin Scale       =       0.3333333333333333 [-]
	 SCS Opposite-Spin Scale   =       1.2000000000000000 [-]
	 SCS Same-Spin Energy      =      -0.1479872556460745 [Eh]
	 SCS Opposite-Spin Energy  =      -1.5871513836033726 [Eh]
	 SCS Correlation Energy    =      -1.7351386392494472 [Eh]
	 SCS Total Energy          =    -419.6277471750881887 [Eh]
	-----------------------------------------------------------

  Dipole Moment: [D]
     X:    -8.9282      Y:    -0.8393      Z:     0.0001     Total:     8.9675

*** Psi4 exiting successfully. Buy a developer a beer!
