                               Psi4 1.3.2 release

  ==> Input File <==

--------------------------------------------------------------------------
#psi4
#
memory 32 gb

molecule  {
-1 1
  O        2.3621300     1.1457750    -0.0000250
  O        2.3621310    -1.1457740    -0.0000570
  C        0.2818590     0.0000000    -0.0000440
  C       -0.4337530    -1.2036740    -0.0001190
  C       -0.4337540     1.2036740     0.0001100
  C       -1.8301680    -1.2073330    -0.0000540
  C       -1.8301700     1.2073330     0.0001830
  C       -2.5366520     0.0000000     0.0001000
  C        1.7466515     0.1814397    -0.0001207
  H        0.1460340    -2.1233920    -0.0002260
  H        0.1460330     2.1233920     0.0001590
  H       -2.3743460    -2.1522190    -0.0001220
  H       -2.3743480     2.1522190     0.0003060
  H       -3.6263880    -0.0000020     0.0001550
units angstrom
no_reorient  #important for SAPT in psi4, default
symmetry c1  #important for SAPT in psi4, default
}

set PROPERTIES_ORIGIN ["COM"]
properties('MP2/aug-cc-pvtz', properties = ['dipole'])
--------------------------------------------------------------------------

    Molecular point group: c1
  Charge       = -1
  Multiplicity = 1
  Basis Set: AUG-CC-PVTZ
    Blend: AUG-CC-PVTZ
  Basis Set: (AUG-CC-PVTZ AUX)
    Blend: AUG-CC-PVTZ-JKFIT

    Orbital Energies [Eh]
    ---------------------

    Doubly Occupied:

       1A    -20.345274     2A    -20.264099     3A    -11.153373
       4A    -11.123495     5A    -11.116432     6A    -11.115926
       7A    -11.105580     8A    -11.104617     9A    -11.096027
      10A     -1.245015    11A     -1.026664    12A     -0.989707
      13A     -0.894073    14A     -0.884803    15A     -0.718833
      16A     -0.695627    17A     -0.604827    18A     -0.552394
      19A     -0.499671    20A     -0.492880    21A     -0.475431
      22A     -0.458572    23A     -0.408664    24A     -0.399432
      25A     -0.388143    26A     -0.363059    27A     -0.358725
      28A     -0.213158    29A     -0.211075    30A     -0.210365
      31A     -0.184288    32A     -0.167481

  @DF-RHF Final Energy:  -417.85447481978838

   => Energetics <=

    Nuclear Repulsion Energy =            391.5140194675808516
    One-Electron Energy =               -1357.0015716590760348
    Two-Electron Energy =                 547.6330773717068041
    Total Energy =                       -417.8544748197883791
  Basis Set: (AUG-CC-PVTZ AUX)
    Blend: AUG-CC-PVTZ-RI
    Molecular point group: c1

    Geometry (in Angstrom), charge = -1, multiplicity = 1:

       Center              X                  Y                   Z               Mass
    ------------   -----------------  -----------------  -----------------  -----------------
         O            2.304407874602     1.127785169467    -0.000021911032    15.994914619570
         O            2.304408874602    -1.163763830533    -0.000053911032    15.994914619570
         C            0.224136874602    -0.017989830533    -0.000040911032    12.000000000000
         C           -0.491475125398    -1.221663830533    -0.000115911032    12.000000000000
         C           -0.491476125398     1.185684169467     0.000113088968    12.000000000000
         C           -1.887890125398    -1.225322830533    -0.000050911032    12.000000000000
         C           -1.887892125398     1.189343169467     0.000186088968    12.000000000000
         C           -2.594374125398    -0.017989830533     0.000103088968    12.000000000000
         C            1.688929374602     0.163449869467    -0.000117611032    12.000000000000
         H            0.088311874602    -2.141381830533    -0.000222911032     1.007825032230
         H            0.088310874602     2.105402169467     0.000162088968     1.007825032230
         H           -2.432068125398    -2.170208830533    -0.000118911032     1.007825032230
         H           -2.432070125398     2.134229169467     0.000309088968     1.007825032230
         H           -3.684110125398    -0.017991830533     0.000158088968     1.007825032230

  Basis Set: AUG-CC-PVTZ
    Blend: AUG-CC-PVTZ
  Basis Set: (AUG-CC-PVTZ AUX)
    Blend: AUG-CC-PVTZ-JKFIT
	 Reference Energy          =    -417.8544748197883791 [Eh]
	 Singles Energy            =      -0.0000000000000000 [Eh]
	 Same-Spin Energy          =      -0.4449667066469697 [Eh]
	 Opposite-Spin Energy      =      -1.3251622506613585 [Eh]
	 Correlation Energy        =      -1.7701289573083283 [Eh]
	 Total Energy              =    -419.6246037770966950 [Eh]

	 ================> DF-SCS-MP2 Energies <==================
	-----------------------------------------------------------
	 SCS Same-Spin Scale       =       0.3333333333333333 [-]
	 SCS Opposite-Spin Scale   =       1.2000000000000000 [-]
	 SCS Same-Spin Energy      =      -0.1483222355489899 [Eh]
	 SCS Opposite-Spin Energy  =      -1.5901947007936301 [Eh]
	 SCS Correlation Energy    =      -1.7385169363426201 [Eh]
	 SCS Total Energy          =    -419.5929917561310276 [Eh]
	-----------------------------------------------------------

  Dipole Moment: [D]
     X:    -9.2880      Y:     1.6700      Z:     0.0001     Total:     9.4369

*** Psi4 exiting successfully. Buy a developer a beer!
