                               Psi4 1.3.2 release

  ==> Input File <==

--------------------------------------------------------------------------
#psi4
#
memory 32 gb

molecule  {
-1 1
  O        2.3621300     1.1457750    -0.0000250
  O        2.3621310    -1.1457740    -0.0000570
  C        0.2818590     0.0000000    -0.0000440
  C       -0.4753247    -1.1779663    -0.0001149
  C       -0.4337540     1.2036740     0.0001100
  C       -1.8301680    -1.2073330    -0.0000540
  C       -1.8301700     1.2073330     0.0001830
  C       -2.5366520     0.0000000     0.0001000
  C        1.8307920     0.0000000    -0.0001120
  H        0.1460340    -2.1233920    -0.0002260
  H        0.1460330     2.1233920     0.0001590
  H       -2.3743460    -2.1522190    -0.0001220
  H       -2.3743480     2.1522190     0.0003060
  H       -3.6263880    -0.0000020     0.0001550
units angstrom
no_reorient  #important for SAPT in psi4, default
symmetry c1  #important for SAPT in psi4, default
}

set PROPERTIES_ORIGIN ["COM"]
properties('MP2/aug-cc-pvtz', properties = ['dipole'])
--------------------------------------------------------------------------

    Molecular point group: c1
  Charge       = -1
  Multiplicity = 1
  Basis Set: AUG-CC-PVTZ
    Blend: AUG-CC-PVTZ
  Basis Set: (AUG-CC-PVTZ AUX)
    Blend: AUG-CC-PVTZ-JKFIT

    Orbital Energies [Eh]
    ---------------------

    Doubly Occupied:

       1A    -20.310234     2A    -20.310186     3A    -11.160448
       4A    -11.116850     5A    -11.111377     6A    -11.107030
       7A    -11.097529     8A    -11.096539     9A    -11.090007
      10A     -1.180516    11A     -1.083778    12A     -1.020547
      13A     -0.885713    14A     -0.881040    15A     -0.704155
      16A     -0.686624    17A     -0.594233    18A     -0.542650
      19A     -0.494117    20A     -0.479465    21A     -0.456744
      22A     -0.452461    23A     -0.408754    24A     -0.393219
      25A     -0.380961    26A     -0.353898    27A     -0.342110
      28A     -0.229788    29A     -0.223369    30A     -0.216092
      31A     -0.205074    32A     -0.195901

  @DF-RHF Final Energy:  -417.90482780938123

   => Energetics <=

    Nuclear Repulsion Energy =            391.2387072023894916
    One-Electron Energy =               -1356.6642573305241513
    Two-Electron Energy =                 547.5207223187534282
    Total Energy =                       -417.9048278093812314
  Basis Set: (AUG-CC-PVTZ AUX)
    Blend: AUG-CC-PVTZ-RI
    Molecular point group: c1

    Geometry (in Angstrom), charge = -1, multiplicity = 1:

       Center              X                  Y                   Z               Mass
    ------------   -----------------  -----------------  -----------------  -----------------
         O            2.300187185408     1.143225970466    -0.000023180150    15.994914619570
         O            2.300188185408    -1.148323029534    -0.000055180150    15.994914619570
         C            0.219916185408    -0.002549029534    -0.000042180150    12.000000000000
         C           -0.537267514592    -1.180515329534    -0.000113080150    12.000000000000
         C           -0.495696814592     1.201124970466     0.000111819850    12.000000000000
         C           -1.892110814592    -1.209882029534    -0.000052180150    12.000000000000
         C           -1.892112814592     1.204783970466     0.000184819850    12.000000000000
         C           -2.598594814592    -0.002549029534     0.000101819850    12.000000000000
         C            1.768849185408    -0.002549029534    -0.000110180150    12.000000000000
         H            0.084091185408    -2.125941029534    -0.000224180150     1.007825032230
         H            0.084090185408     2.120842970466     0.000160819850     1.007825032230
         H           -2.436288814592    -2.154768029534    -0.000120180150     1.007825032230
         H           -2.436290814592     2.149669970466     0.000307819850     1.007825032230
         H           -3.688330814592    -0.002551029534     0.000156819850     1.007825032230

  Basis Set: AUG-CC-PVTZ
    Blend: AUG-CC-PVTZ
  Basis Set: (AUG-CC-PVTZ AUX)
    Blend: AUG-CC-PVTZ-JKFIT
	 Reference Energy          =    -417.9048278093812314 [Eh]
	 Singles Energy            =      -0.0000000000000000 [Eh]
	 Same-Spin Energy          =      -0.4434610180403219 [Eh]
	 Opposite-Spin Energy      =      -1.3209574915270108 [Eh]
	 Correlation Energy        =      -1.7644185095673328 [Eh]
	 Total Energy              =    -419.6692463189485807 [Eh]

	 ================> DF-SCS-MP2 Energies <==================
	-----------------------------------------------------------
	 SCS Same-Spin Scale       =       0.3333333333333333 [-]
	 SCS Opposite-Spin Scale   =       1.2000000000000000 [-]
	 SCS Same-Spin Energy      =      -0.1478203393467740 [Eh]
	 SCS Opposite-Spin Energy  =      -1.5851489898324129 [Eh]
	 SCS Correlation Energy    =      -1.7329693291791868 [Eh]
	 SCS Total Energy          =    -419.6377971385604155 [Eh]
	-----------------------------------------------------------

  Dipole Moment: [D]
     X:    -8.5833      Y:     0.0282      Z:     0.0001     Total:     8.5834

*** Psi4 exiting successfully. Buy a developer a beer!
