                               Psi4 1.4a3.dev225

  ==> Input File <==

--------------------------------------------------------------------------
#psi4
#
memory 32 gb

molecule  {
-1 1
  O        0.0000000     1.1363720    -2.3728160
  O        0.0000000    -1.1363720    -2.3728160
  C        0.0000000     0.0000000    -0.2802600
  C        0.0017180    -1.2051330     0.4346350
  C       -0.0017180     1.2051330     0.4346350
  C        0.0017610    -1.2079500     1.8312180
  C       -0.0017610     1.2079500     1.8312180
  C        0.0000000     0.0000000     2.5358620
  C        0.0000000     0.0000000    -1.8632360
  H        0.0030420    -2.1363990    -0.1247460
  H       -0.0030420     2.1363990    -0.1247460
  H        0.0031530    -2.1518800     2.3731470
  H       -0.0031530     2.1518800     2.3731470
  H        0.0000000     0.0000000     3.6238220
units angstrom
no_reorient  #important for SAPT in psi4, default
symmetry c1  #important for SAPT in psi4, default
}

set PROPERTIES_ORIGIN ["COM"]
properties('MP2/aug-cc-pvtz', properties = ['dipole'])
--------------------------------------------------------------------------

    Molecular point group: c1
  Charge       = -1
  Multiplicity = 1
  Basis Set: AUG-CC-PVTZ
    Blend: AUG-CC-PVTZ
  Basis Set: (AUG-CC-PVTZ AUX)
    Blend: AUG-CC-PVTZ-JKFIT

    Orbital Energies [Eh]
    ---------------------

    Doubly Occupied:

       1A    -20.309516     2A    -20.309483     3A    -11.157589
       4A    -11.114520     5A    -11.110093     6A    -11.109920
       7A    -11.096577     8A    -11.096489     9A    -11.088836
      10A     -1.190399    11A     -1.093819    12A     -1.014016
      13A     -0.879930    14A     -0.878354    15A     -0.696404
      16A     -0.688302    17A     -0.588587    18A     -0.541766
      19A     -0.487310    20A     -0.483186    21A     -0.458279
      22A     -0.453571    23A     -0.414695    24A     -0.393224
      25A     -0.377561    26A     -0.355027    27A     -0.353268
      28A     -0.232683    29A     -0.217228    30A     -0.215734
      31A     -0.202923    32A     -0.195618

  @DF-RHF Final Energy:  -417.90994166832547

   => Energetics <=

    Nuclear Repulsion Energy =            390.5898522697324324
    One-Electron Energy =               -1355.3897714309312050
    Two-Electron Energy =                 546.8899774928732995
    Total Energy =                       -417.9099416683254731
  Basis Set: (AUG-CC-PVTZ AUX)
    Blend: AUG-CC-PVTZ-RI
    Molecular point group: c1

    Geometry (in Angstrom), charge = -1, multiplicity = 1:

       Center              X                  Y                   Z               Mass
    ------------   -----------------  -----------------  -----------------  -----------------
         O            0.000000000000     1.136372000000    -2.301486403259    15.994914619570
         O            0.000000000000    -1.136372000000    -2.301486403259    15.994914619570
         C            0.000000000000     0.000000000000    -0.208930403259    12.000000000000
         C            0.001718000000    -1.205133000000     0.505964596741    12.000000000000
         C           -0.001718000000     1.205133000000     0.505964596741    12.000000000000
         C            0.001761000000    -1.207950000000     1.902547596741    12.000000000000
         C           -0.001761000000     1.207950000000     1.902547596741    12.000000000000
         C            0.000000000000     0.000000000000     2.607191596741    12.000000000000
         C            0.000000000000     0.000000000000    -1.791906403259    12.000000000000
         H            0.003042000000    -2.136399000000    -0.053416403259     1.007825032230
         H           -0.003042000000     2.136399000000    -0.053416403259     1.007825032230
         H            0.003153000000    -2.151880000000     2.444476596741     1.007825032230
         H           -0.003153000000     2.151880000000     2.444476596741     1.007825032230
         H            0.000000000000     0.000000000000     3.695151596741     1.007825032230

  Basis Set: AUG-CC-PVTZ
    Blend: AUG-CC-PVTZ
  Basis Set: (AUG-CC-PVTZ AUX)
    Blend: AUG-CC-PVTZ-JKFIT
	 Reference Energy          =    -417.9099416683254731 [Eh]
	 Singles Energy            =      -0.0000000000000000 [Eh]
	 Same-Spin Energy          =      -0.4424719624531402 [Eh]
	 Opposite-Spin Energy      =      -1.3189574853337698 [Eh]
	 Correlation Energy        =      -1.7614294477869099 [Eh]
	 Total Energy              =    -419.6713711161123683 [Eh]

	 ================> DF-SCS-MP2 Energies <==================
	-----------------------------------------------------------
	 SCS Same-Spin Scale       =       0.3333333333333333 [-]
	 SCS Opposite-Spin Scale   =       1.2000000000000000 [-]
	 SCS Same-Spin Energy      =      -0.1474906541510467 [Eh]
	 SCS Opposite-Spin Energy  =      -1.5827489824005236 [Eh]
	 SCS Correlation Energy    =      -1.7302396365515704 [Eh]
	 SCS Total Energy          =    -419.6401813048770464 [Eh]
	-----------------------------------------------------------

  Dipole Moment: [D]
     X:     0.0000      Y:    -0.0000      Z:     8.4115     Total:     8.4115

*** Psi4 exiting successfully. Buy a developer a beer!
