                               Psi4 1.4a3.dev225

  ==> Input File <==

--------------------------------------------------------------------------
#psi4
#
memory 32 gb

molecule  {
-1 1
  O        0.0000000     1.1363720    -2.3728160
  O        0.0000000    -1.1363720    -2.3728160
  C        0.0000000     0.0000000    -0.2802600
  C        0.0017180    -1.2051330     0.4346350
  C       -0.0017180     1.2051330     0.4346350
  C        0.0017610    -1.2079500     1.8312180
  C       -0.0017610     1.2079500     1.8312180
  C        0.0000000     0.0000000     2.5358620
  C        0.0000000     0.0000000    -1.8332360
  H        0.0030420    -2.1363990    -0.1247460
  H       -0.0030420     2.1363990    -0.1247460
  H        0.0031530    -2.1518800     2.3731470
  H       -0.0031530     2.1518800     2.3731470
  H        0.0000000     0.0000000     3.6238220
units angstrom
no_reorient  #important for SAPT in psi4, default
symmetry c1  #important for SAPT in psi4, default
}

set PROPERTIES_ORIGIN ["COM"]
properties('MP2/aug-cc-pvtz', properties = ['dipole'])
--------------------------------------------------------------------------

    Molecular point group: c1
  Charge       = -1
  Multiplicity = 1
  Basis Set: AUG-CC-PVTZ
    Blend: AUG-CC-PVTZ
  Basis Set: (AUG-CC-PVTZ AUX)
    Blend: AUG-CC-PVTZ-JKFIT

    Orbital Energies [Eh]
    ---------------------

    Doubly Occupied:

       1A    -20.307302     2A    -20.307269     3A    -11.156650
       4A    -11.116905     5A    -11.111844     6A    -11.111690
       7A    -11.099205     8A    -11.099115     9A    -11.091629
      10A     -1.182059    11A     -1.082790    12A     -1.016479
      13A     -0.882279    14A     -0.882054    15A     -0.701782
      16A     -0.690630    17A     -0.593038    18A     -0.543950
      19A     -0.490080    20A     -0.484111    21A     -0.456337
      22A     -0.455496    23A     -0.408210    24A     -0.391776
      25A     -0.378202    26A     -0.354672    27A     -0.352427
      28A     -0.226909    29A     -0.221753    30A     -0.213180
      31A     -0.202115    32A     -0.197667

  @DF-RHF Final Energy:  -417.90920730522822

   => Energetics <=

    Nuclear Repulsion Energy =            390.6950926510536988
    One-Electron Energy =               -1355.5893865779282805
    Two-Electron Energy =                 546.9850866216462464
    Total Energy =                       -417.9092073052282785
  Basis Set: (AUG-CC-PVTZ AUX)
    Blend: AUG-CC-PVTZ-RI
    Molecular point group: c1

    Geometry (in Angstrom), charge = -1, multiplicity = 1:

       Center              X                  Y                   Z               Mass
    ------------   -----------------  -----------------  -----------------  -----------------
         O            0.000000000000     1.136372000000    -2.304460898096    15.994914619570
         O            0.000000000000    -1.136372000000    -2.304460898096    15.994914619570
         C            0.000000000000     0.000000000000    -0.211904898096    12.000000000000
         C            0.001718000000    -1.205133000000     0.502990101904    12.000000000000
         C           -0.001718000000     1.205133000000     0.502990101904    12.000000000000
         C            0.001761000000    -1.207950000000     1.899573101904    12.000000000000
         C           -0.001761000000     1.207950000000     1.899573101904    12.000000000000
         C            0.000000000000     0.000000000000     2.604217101904    12.000000000000
         C            0.000000000000     0.000000000000    -1.764880898096    12.000000000000
         H            0.003042000000    -2.136399000000    -0.056390898096     1.007825032230
         H           -0.003042000000     2.136399000000    -0.056390898096     1.007825032230
         H            0.003153000000    -2.151880000000     2.441502101904     1.007825032230
         H           -0.003153000000     2.151880000000     2.441502101904     1.007825032230
         H            0.000000000000     0.000000000000     3.692177101904     1.007825032230

  Basis Set: AUG-CC-PVTZ
    Blend: AUG-CC-PVTZ
  Basis Set: (AUG-CC-PVTZ AUX)
    Blend: AUG-CC-PVTZ-JKFIT
	 Reference Energy          =    -417.9092073052282217 [Eh]
	 Singles Energy            =      -0.0000000000000000 [Eh]
	 Same-Spin Energy          =      -0.4428873617889909 [Eh]
	 Opposite-Spin Energy      =      -1.3200789015932715 [Eh]
	 Correlation Energy        =      -1.7629662633822623 [Eh]
	 Total Energy              =    -419.6721735686105035 [Eh]

	 ================> DF-SCS-MP2 Energies <==================
	-----------------------------------------------------------
	 SCS Same-Spin Scale       =       0.3333333333333333 [-]
	 SCS Opposite-Spin Scale   =       1.2000000000000000 [-]
	 SCS Same-Spin Energy      =      -0.1476291205963303 [Eh]
	 SCS Opposite-Spin Energy  =      -1.5840946819119257 [Eh]
	 SCS Correlation Energy    =      -1.7317238025082560 [Eh]
	 SCS Total Energy          =    -419.6409311077364919 [Eh]
	-----------------------------------------------------------

  Dipole Moment: [D]
     X:    -0.0000      Y:     0.0000      Z:     8.6695     Total:     8.6695

*** Psi4 exiting successfully. Buy a developer a beer!
