                               Psi4 1.3.2 release

  ==> Input File <==

--------------------------------------------------------------------------
#psi4
#
memory 32 gb

molecule  {
-1 1
  O        2.2394532     1.1950383    -0.0000407
  O        2.3621310    -1.1457740    -0.0000570
  C        0.2818590     0.0000000    -0.0000440
  C       -0.4337530    -1.2036740    -0.0001190
  C       -0.4337540     1.2036740     0.0001100
  C       -1.8301680    -1.2073330    -0.0000540
  C       -1.8301700     1.2073330     0.0001830
  C       -2.5366520     0.0000000     0.0001000
  C        1.8307920     0.0000000    -0.0001120
  H        0.1460340    -2.1233920    -0.0002260
  H        0.1460330     2.1233920     0.0001590
  H       -2.3743460    -2.1522190    -0.0001220
  H       -2.3743480     2.1522190     0.0003060
  H       -3.6263880    -0.0000020     0.0001550
units angstrom
no_reorient  #important for SAPT in psi4, default
symmetry c1  #important for SAPT in psi4, default
}

set PROPERTIES_ORIGIN ["COM"]
properties('MP2/aug-cc-pvtz', properties = ['dipole'])
--------------------------------------------------------------------------

    Molecular point group: c1
  Charge       = -1
  Multiplicity = 1
  Basis Set: AUG-CC-PVTZ
    Blend: AUG-CC-PVTZ
  Basis Set: (AUG-CC-PVTZ AUX)
    Blend: AUG-CC-PVTZ-JKFIT

    Orbital Energies [Eh]
    ---------------------

    Doubly Occupied:

       1A    -20.317699     2A    -20.313211     3A    -11.162890
       4A    -11.113197     5A    -11.108261     6A    -11.107882
       7A    -11.093599     8A    -11.092842     9A    -11.083089
      10A     -1.182512    11A     -1.094665    12A     -1.011631
      13A     -0.877603    14A     -0.876699    15A     -0.696888
      16A     -0.686525    17A     -0.589329    18A     -0.544004
      19A     -0.486575    20A     -0.479348    21A     -0.457602
      22A     -0.450550    23A     -0.415616    24A     -0.392395
      25A     -0.374333    26A     -0.350999    27A     -0.348024
      28A     -0.239425    29A     -0.219206    30A     -0.216395
      31A     -0.201211    32A     -0.192400

  @DF-RHF Final Energy:  -417.90311945540577

   => Energetics <=

    Nuclear Repulsion Energy =            391.8955409558849396
    One-Electron Energy =               -1358.0441169809844268
    Two-Electron Energy =                 548.2454565696937152
    Total Energy =                       -417.9031194554057720
  Basis Set: (AUG-CC-PVTZ AUX)
    Blend: AUG-CC-PVTZ-RI
    Molecular point group: c1

    Geometry (in Angstrom), charge = -1, multiplicity = 1:

       Center              X                  Y                   Z               Mass
    ------------   -----------------  -----------------  -----------------  -----------------
         O            2.189601248698     1.188527657480    -0.000036398759    15.994914619570
         O            2.312279048698    -1.152284642520    -0.000052698759    15.994914619570
         C            0.232007048698    -0.006510642520    -0.000039698759    12.000000000000
         C           -0.483604951302    -1.210184642520    -0.000114698759    12.000000000000
         C           -0.483605951302     1.197163357480     0.000114301241    12.000000000000
         C           -1.880019951302    -1.213843642520    -0.000049698759    12.000000000000
         C           -1.880021951302     1.200822357480     0.000187301241    12.000000000000
         C           -2.586503951302    -0.006510642520     0.000104301241    12.000000000000
         C            1.780940048698    -0.006510642520    -0.000107698759    12.000000000000
         H            0.096182048698    -2.129902642520    -0.000221698759     1.007825032230
         H            0.096181048698     2.116881357480     0.000163301241     1.007825032230
         H           -2.424197951302    -2.158729642520    -0.000117698759     1.007825032230
         H           -2.424199951302     2.145708357480     0.000310301241     1.007825032230
         H           -3.676239951302    -0.006512642520     0.000159301241     1.007825032230

  Basis Set: AUG-CC-PVTZ
    Blend: AUG-CC-PVTZ
  Basis Set: (AUG-CC-PVTZ AUX)
    Blend: AUG-CC-PVTZ-JKFIT
	 Reference Energy          =    -417.9031194554057720 [Eh]
	 Singles Energy            =      -0.0000000000000000 [Eh]
	 Same-Spin Energy          =      -0.4438279555312821 [Eh]
	 Opposite-Spin Energy      =      -1.3215206215664477 [Eh]
	 Correlation Energy        =      -1.7653485770977297 [Eh]
	 Total Energy              =    -419.6684680325034833 [Eh]

	 ================> DF-SCS-MP2 Energies <==================
	-----------------------------------------------------------
	 SCS Same-Spin Scale       =       0.3333333333333333 [-]
	 SCS Opposite-Spin Scale   =       1.2000000000000000 [-]
	 SCS Same-Spin Energy      =      -0.1479426518437607 [Eh]
	 SCS Opposite-Spin Energy  =      -1.5858247458797372 [Eh]
	 SCS Correlation Energy    =      -1.7337673977234980 [Eh]
	 SCS Total Energy          =    -419.6368868531292833 [Eh]
	-----------------------------------------------------------

  Dipole Moment: [D]
     X:    -8.1076      Y:    -0.0423      Z:     0.0001     Total:     8.1077

*** Psi4 exiting successfully. Buy a developer a beer!
