                               Psi4 1.3.2 release

  ==> Input File <==

--------------------------------------------------------------------------
#psi4
#
memory 32 gb

molecule  {
-1 1
  O        2.3621300     1.1457750    -0.0000250
  O        2.4017943    -1.1265326    -0.0000601
  C        0.2818590     0.0000000    -0.0000440
  C       -0.4337530    -1.2036740    -0.0001190
  C       -0.4337540     1.2036740     0.0001100
  C       -1.8301680    -1.2073330    -0.0000540
  C       -1.8301700     1.2073330     0.0001830
  C       -2.5366520     0.0000000     0.0001000
  C        1.8307920     0.0000000    -0.0001120
  H        0.1460340    -2.1233920    -0.0002260
  H        0.1460330     2.1233920     0.0001590
  H       -2.3743460    -2.1522190    -0.0001220
  H       -2.3743480     2.1522190     0.0003060
  H       -3.6263880    -0.0000020     0.0001550
units angstrom
no_reorient  #important for SAPT in psi4, default
symmetry c1  #important for SAPT in psi4, default
}

set PROPERTIES_ORIGIN ["COM"]
properties('MP2/aug-cc-pvtz', properties = ['dipole'])
--------------------------------------------------------------------------

    Molecular point group: c1
  Charge       = -1
  Multiplicity = 1
  Basis Set: AUG-CC-PVTZ
    Blend: AUG-CC-PVTZ
  Basis Set: (AUG-CC-PVTZ AUX)
    Blend: AUG-CC-PVTZ-JKFIT

    Orbital Energies [Eh]
    ---------------------

    Doubly Occupied:

       1A    -20.308080     2A    -20.306678     3A    -11.157759
       4A    -11.118371     5A    -11.113110     6A    -11.112929
       7A    -11.099920     8A    -11.099650     9A    -11.092256
      10A     -1.179332    11A     -1.079277    12A     -1.017424
      13A     -0.883908    14A     -0.882265    15A     -0.702389
      16A     -0.691974    17A     -0.593697    18A     -0.544812
      19A     -0.491448    20A     -0.483620    21A     -0.456129
      22A     -0.455318    23A     -0.406355    24A     -0.391436
      25A     -0.379691    26A     -0.353247    27A     -0.351705
      28A     -0.225506    29A     -0.223404    30A     -0.212975
      31A     -0.201867    32A     -0.198561

  @DF-RHF Final Energy:  -417.90807308534266

   => Energetics <=

    Nuclear Repulsion Energy =            390.4507690989737512
    One-Electron Energy =               -1355.0874992604881299
    Two-Electron Energy =                 546.7286570761716575
    Total Energy =                       -417.9080730853427212
  Basis Set: (AUG-CC-PVTZ AUX)
    Blend: AUG-CC-PVTZ-RI
    Molecular point group: c1

    Geometry (in Angstrom), charge = -1, multiplicity = 1:

       Center              X                  Y                   Z               Mass
    ------------   -----------------  -----------------  -----------------  -----------------
         O            2.290823545917     1.143231984315    -0.000022363946    15.994914619570
         O            2.330487845917    -1.129075615685    -0.000057463946    15.994914619570
         C            0.210552545917    -0.002543015685    -0.000041363946    12.000000000000
         C           -0.505059454083    -1.206217015685    -0.000116363946    12.000000000000
         C           -0.505060454083     1.201130984315     0.000112636054    12.000000000000
         C           -1.901474454083    -1.209876015685    -0.000051363946    12.000000000000
         C           -1.901476454083     1.204789984315     0.000185636054    12.000000000000
         C           -2.607958454083    -0.002543015685     0.000102636054    12.000000000000
         C            1.759485545917    -0.002543015685    -0.000109363946    12.000000000000
         H            0.074727545917    -2.125935015685    -0.000223363946     1.007825032230
         H            0.074726545917     2.120848984315     0.000161636054     1.007825032230
         H           -2.445652454083    -2.154762015685    -0.000119363946     1.007825032230
         H           -2.445654454083     2.149675984315     0.000308636054     1.007825032230
         H           -3.697694454083    -0.002545015685     0.000157636054     1.007825032230

  Basis Set: AUG-CC-PVTZ
    Blend: AUG-CC-PVTZ
  Basis Set: (AUG-CC-PVTZ AUX)
    Blend: AUG-CC-PVTZ-JKFIT
	 Reference Energy          =    -417.9080730853426644 [Eh]
	 Singles Energy            =      -0.0000000000000000 [Eh]
	 Same-Spin Energy          =      -0.4431450783988920 [Eh]
	 Opposite-Spin Energy      =      -1.3206921470068129 [Eh]
	 Correlation Energy        =      -1.7638372254057049 [Eh]
	 Total Energy              =    -419.6719103107483875 [Eh]

	 ================> DF-SCS-MP2 Energies <==================
	-----------------------------------------------------------
	 SCS Same-Spin Scale       =       0.3333333333333333 [-]
	 SCS Opposite-Spin Scale   =       1.2000000000000000 [-]
	 SCS Same-Spin Energy      =      -0.1477150261329640 [Eh]
	 SCS Opposite-Spin Energy  =      -1.5848305764081754 [Eh]
	 SCS Correlation Energy    =      -1.7325456025411394 [Eh]
	 SCS Total Energy          =    -419.6406186878838298 [Eh]
	-----------------------------------------------------------

  Dipole Moment: [D]
     X:    -8.7378      Y:    -0.0198      Z:     0.0001     Total:     8.7378

*** Psi4 exiting successfully. Buy a developer a beer!
