                               Psi4 1.3.2 release

  ==> Input File <==

--------------------------------------------------------------------------
#psi4
#
memory 32 gb

molecule  {
0 1
  O       -2.2580520    -1.6446380    -0.1299340
  O       -2.1922020    -0.0289620     1.4584460
  O        2.5787120    -1.2491670    -0.5482700
  N       -1.4644620     1.9009220    -0.4829880
  N        3.3512580     0.4763250     0.7206820
  C        0.0919590     0.0544950    -0.9741750
  C       -1.3719240     0.4734550    -0.7783870
  C        0.9633170     0.3705390     0.2368360
  C       -1.9915820    -0.3883620     0.3080910
  C        2.3594900    -0.2078000     0.0693900
  H        0.1535850    -1.0146500    -1.1939440
  H        0.4725780     0.5964070    -1.8456160
  H       -1.9082720     0.2705620    -1.7119190
  H        1.0131360     1.4533500     0.3956850
  H        0.5381800    -0.0660200     1.1504670
  H       -1.3038060     2.0229320     0.5177520
  H       -2.4253970     2.2086760    -0.6320610
  H        3.2135550     1.4259430     1.0332840
  H        4.3285875     0.2552110     0.3854665
  H       -2.5974020    -2.1351830     0.6479870
units angstrom
no_reorient  #important for SAPT in psi4, default
symmetry c1  #important for SAPT in psi4, default
}

set PROPERTIES_ORIGIN ["COM"]
properties('MP2/aug-cc-pvtz', properties = ['dipole'])
--------------------------------------------------------------------------

    Molecular point group: c1
  Charge       = 0
  Multiplicity = 1
  Basis Set: AUG-CC-PVTZ
    Blend: AUG-CC-PVTZ
  Basis Set: (AUG-CC-PVTZ AUX)
    Blend: AUG-CC-PVTZ-JKFIT

    Orbital Energies [Eh]
    ---------------------

    Doubly Occupied:

       1A    -20.625329     2A    -20.562364     3A    -20.524126
       4A    -15.593074     5A    -15.558289     6A    -11.395445
       7A    -11.357846     8A    -11.286539     9A    -11.246685
      10A    -11.238391    11A     -1.469655    12A     -1.377480
      13A     -1.366973    14A     -1.210047    15A     -1.207372
      16A     -1.071413    17A     -0.983542    18A     -0.884567
      19A     -0.801861    20A     -0.777349    21A     -0.728876
      22A     -0.713726    23A     -0.702988    24A     -0.684171
      25A     -0.656401    26A     -0.651007    27A     -0.621029
      28A     -0.604843    29A     -0.590244    30A     -0.584310
      31A     -0.554339    32A     -0.521536    33A     -0.510566
      34A     -0.500666    35A     -0.486834    36A     -0.464600
      37A     -0.431424    38A     -0.421137    39A     -0.415977

  @DF-RHF Final Energy:  -528.88782184894649

   => Energetics <=

    Nuclear Repulsion Energy =            548.2124874883102166
    One-Electron Energy =               -1811.4345692006418176
    Two-Electron Energy =                 734.3342598633851139
    Total Energy =                       -528.8878218489464871
  Basis Set: (AUG-CC-PVTZ AUX)
    Blend: AUG-CC-PVTZ-RI
    Molecular point group: c1

    Geometry (in Angstrom), charge = 0, multiplicity = 1:

       Center              X                  Y                   Z               Mass
    ------------   -----------------  -----------------  -----------------  -----------------
         O           -2.248448823155    -1.611939574394    -0.136004470194    15.994914619570
         O           -2.182598823155     0.003736425606     1.452375529806    15.994914619570
         O            2.588315176845    -1.216468574394    -0.554340470194    15.994914619570
         N           -1.454858823155     1.933620425606    -0.489058470194    14.003074004430
         N            3.360861176845     0.509023425606     0.714611529806    14.003074004430
         C            0.101562176845     0.087193425606    -0.980245470194    12.000000000000
         C           -1.362320823155     0.506153425606    -0.784457470194    12.000000000000
         C            0.972920176845     0.403237425606     0.230765529806    12.000000000000
         C           -1.981978823155    -0.355663574394     0.302020529806    12.000000000000
         C            2.369093176845    -0.175101574394     0.063319529806    12.000000000000
         H            0.163188176845    -0.981951574394    -1.200014470194     1.007825032230
         H            0.482181176845     0.629105425606    -1.851686470194     1.007825032230
         H           -1.898668823155     0.303260425606    -1.717989470194     1.007825032230
         H            1.022739176845     1.486048425606     0.389614529806     1.007825032230
         H            0.547783176845    -0.033321574394     1.144396529806     1.007825032230
         H           -1.294202823155     2.055630425606     0.511681529806     1.007825032230
         H           -2.415793823155     2.241374425606    -0.638131470194     1.007825032230
         H            3.223158176845     1.458641425606     1.027213529806     1.007825032230
         H            4.338190676845     0.287909425606     0.379396029806     1.007825032230
         H           -2.587798823155    -2.102484574394     0.641916529806     1.007825032230

  Basis Set: AUG-CC-PVTZ
    Blend: AUG-CC-PVTZ
  Basis Set: (AUG-CC-PVTZ AUX)
    Blend: AUG-CC-PVTZ-JKFIT
	 Reference Energy          =    -528.8878218489464871 [Eh]
	 Singles Energy            =      -0.0000000000000000 [Eh]
	 Same-Spin Energy          =      -0.5283005962389373 [Eh]
	 Opposite-Spin Energy      =      -1.6367621868666844 [Eh]
	 Correlation Energy        =      -2.1650627831056219 [Eh]
	 Total Energy              =    -531.0528846320521552 [Eh]

	 ================> DF-SCS-MP2 Energies <==================
	-----------------------------------------------------------
	 SCS Same-Spin Scale       =       0.3333333333333333 [-]
	 SCS Opposite-Spin Scale   =       1.2000000000000000 [-]
	 SCS Same-Spin Energy      =      -0.1761001987463124 [Eh]
	 SCS Opposite-Spin Energy  =      -1.9641146242400211 [Eh]
	 SCS Correlation Energy    =      -2.1402148229863336 [Eh]
	 SCS Total Energy          =    -531.0280366719327958 [Eh]
	-----------------------------------------------------------

  Dipole Moment: [D]
     X:    -0.4476      Y:     2.0328      Z:     0.6018     Total:     2.1668

*** Psi4 exiting successfully. Buy a developer a beer!
