                               Psi4 1.3.2 release

  ==> Input File <==

--------------------------------------------------------------------------
#psi4
#
memory 32 gb

molecule  {
0 1
  O       -2.2580520    -1.6446380    -0.1299340
  O       -2.1922020    -0.0289620     1.4584460
  O        2.5787120    -1.2491670    -0.5482700
  N       -1.4644620     1.9009220    -0.4829880
  N        3.3512580     0.4763250     0.7206820
  C        0.0919590     0.0544950    -0.9741750
  C       -1.3719240     0.4734550    -0.7783870
  C        0.9633170     0.3705390     0.2368360
  C       -1.9915820    -0.3883620     0.3080910
  C        2.3594900    -0.2078000     0.0693900
  H        0.1535850    -1.0146500    -1.1939440
  H        0.4725780     0.5964070    -1.8456160
  H       -1.9082720     0.2705620    -1.7119190
  H        1.0131360     1.4533500     0.3956850
  H        0.5381800    -0.0660200     1.1504670
  H       -1.3038060     2.0229320     0.5177520
  H       -2.4253970     2.2086760    -0.6320610
  H        3.2135550     1.4259430     1.0332840
  H        4.3354744     0.2776560     0.3413214
  H       -2.5974020    -2.1351830     0.6479870
units angstrom
no_reorient  #important for SAPT in psi4, default
symmetry c1  #important for SAPT in psi4, default
}

set PROPERTIES_ORIGIN ["COM"]
properties('MP2/aug-cc-pvtz', properties = ['dipole'])
--------------------------------------------------------------------------

    Molecular point group: c1
  Charge       = 0
  Multiplicity = 1
  Basis Set: AUG-CC-PVTZ
    Blend: AUG-CC-PVTZ
  Basis Set: (AUG-CC-PVTZ AUX)
    Blend: AUG-CC-PVTZ-JKFIT

    Orbital Energies [Eh]
    ---------------------

    Doubly Occupied:

       1A    -20.625374     2A    -20.562410     3A    -20.524570
       4A    -15.594281     5A    -15.558360     6A    -11.395496
       7A    -11.357922     8A    -11.286622     9A    -11.246722
      10A    -11.238542    11A     -1.469700    12A     -1.377658
      13A     -1.367017    14A     -1.209414    15A     -1.206859
      16A     -1.071392    17A     -0.983421    18A     -0.884267
      19A     -0.801376    20A     -0.777260    21A     -0.728238
      22A     -0.713645    23A     -0.701946    24A     -0.681623
      25A     -0.656504    26A     -0.650890    27A     -0.621151
      28A     -0.605068    29A     -0.589893    30A     -0.583874
      31A     -0.554169    32A     -0.521380    33A     -0.510806
      34A     -0.500580    35A     -0.486932    36A     -0.464676
      37A     -0.432054    38A     -0.421374    39A     -0.415931

  @DF-RHF Final Energy:  -528.88561853381100

   => Energetics <=

    Nuclear Repulsion Energy =            548.1483462942863980
    One-Electron Energy =               -1811.3091354041537215
    Two-Electron Energy =                 734.2751705760564391
    Total Energy =                       -528.8856185338109981
  Basis Set: (AUG-CC-PVTZ AUX)
    Blend: AUG-CC-PVTZ-RI
    Molecular point group: c1

    Geometry (in Angstrom), charge = 0, multiplicity = 1:

       Center              X                  Y                   Z               Mass
    ------------   -----------------  -----------------  -----------------  -----------------
         O           -2.248496340311    -1.612094436896    -0.135699884734    15.994914619570
         O           -2.182646340311     0.003581563104     1.452680115266    15.994914619570
         O            2.588267659689    -1.216623436896    -0.554035884734    15.994914619570
         N           -1.454906340311     1.933465563104    -0.488753884734    14.003074004430
         N            3.360813659689     0.508868563104     0.714916115266    14.003074004430
         C            0.101514659689     0.087038563104    -0.979940884734    12.000000000000
         C           -1.362368340311     0.505998563104    -0.784152884734    12.000000000000
         C            0.972872659689     0.403082563104     0.231070115266    12.000000000000
         C           -1.982026340311    -0.355818436896     0.302325115266    12.000000000000
         C            2.369045659689    -0.175256436896     0.063624115266    12.000000000000
         H            0.163140659689    -0.982106436896    -1.199709884734     1.007825032230
         H            0.482133659689     0.628950563104    -1.851381884734     1.007825032230
         H           -1.898716340311     0.303105563104    -1.717684884734     1.007825032230
         H            1.022691659689     1.485893563104     0.389919115266     1.007825032230
         H            0.547735659689    -0.033476436896     1.144701115266     1.007825032230
         H           -1.294250340311     2.055475563104     0.511986115266     1.007825032230
         H           -2.415841340311     2.241219563104    -0.637826884734     1.007825032230
         H            3.223110659689     1.458486563104     1.027518115266     1.007825032230
         H            4.345030059689     0.310199563104     0.335555515266     1.007825032230
         H           -2.587846340311    -2.102639436896     0.642221115266     1.007825032230

  Basis Set: AUG-CC-PVTZ
    Blend: AUG-CC-PVTZ
  Basis Set: (AUG-CC-PVTZ AUX)
    Blend: AUG-CC-PVTZ-JKFIT
	 Reference Energy          =    -528.8856185338109981 [Eh]
	 Singles Energy            =      -0.0000000000000000 [Eh]
	 Same-Spin Energy          =      -0.5284025388871659 [Eh]
	 Opposite-Spin Energy      =      -1.6370942240455220 [Eh]
	 Correlation Energy        =      -2.1654967629326878 [Eh]
	 Total Energy              =    -531.0511152967436601 [Eh]

	 ================> DF-SCS-MP2 Energies <==================
	-----------------------------------------------------------
	 SCS Same-Spin Scale       =       0.3333333333333333 [-]
	 SCS Opposite-Spin Scale   =       1.2000000000000000 [-]
	 SCS Same-Spin Energy      =      -0.1761341796290553 [Eh]
	 SCS Opposite-Spin Energy  =      -1.9645130688546262 [Eh]
	 SCS Correlation Energy    =      -2.1406472484836816 [Eh]
	 SCS Total Energy          =    -531.0262657822946721 [Eh]
	-----------------------------------------------------------

  Dipole Moment: [D]
     X:    -0.4642      Y:     2.0553      Z:     0.5394     Total:     2.1750

*** Psi4 exiting successfully. Buy a developer a beer!
