                               Psi4 1.3.2 release

  ==> Input File <==

--------------------------------------------------------------------------
#psi4
#
memory 32 gb

molecule  {
0 1
  O       -2.2580520    -1.6446380    -0.1299340
  O       -2.1922020    -0.0289620     1.4584460
  O        2.5787120    -1.2491670    -0.5482700
  N       -1.4644620     1.9009220    -0.4829880
  N        3.3512580     0.4763250     0.7206820
  C        0.0919590     0.0544950    -0.9741750
  C       -1.3719240     0.4734550    -0.7783870
  C        0.9489728     0.3161545     0.3195196
  C       -1.9915820    -0.3883620     0.3080910
  C        2.3594900    -0.2078000     0.0693900
  H        0.1535850    -1.0146500    -1.1939440
  H        0.4725780     0.5964070    -1.8456160
  H       -1.9082720     0.2705620    -1.7119190
  H        1.0131360     1.4533500     0.3956850
  H        0.5381800    -0.0660200     1.1504670
  H       -1.3038060     2.0229320     0.5177520
  H       -2.4253970     2.2086760    -0.6320610
  H        3.2135550     1.4259430     1.0332840
  H        4.3010400     0.1654310     0.5620470
  H       -2.5974020    -2.1351830     0.6479870
units angstrom
no_reorient  #important for SAPT in psi4, default
symmetry c1  #important for SAPT in psi4, default
}

set PROPERTIES_ORIGIN ["COM"]
properties('MP2/aug-cc-pvtz', properties = ['dipole'])
--------------------------------------------------------------------------

    Molecular point group: c1
  Charge       = 0
  Multiplicity = 1
  Basis Set: AUG-CC-PVTZ
    Blend: AUG-CC-PVTZ
  Basis Set: (AUG-CC-PVTZ AUX)
    Blend: AUG-CC-PVTZ-JKFIT

    Orbital Energies [Eh]
    ---------------------

    Doubly Occupied:

       1A    -20.625216     2A    -20.562378     3A    -20.523399
       4A    -15.589964     5A    -15.557368     6A    -11.395306
       7A    -11.357855     8A    -11.285492     9A    -11.244989
      10A    -11.240626    11A     -1.469590    12A     -1.377052
      13A     -1.366979    14A     -1.212668    15A     -1.206673
      16A     -1.066183    17A     -0.984037    18A     -0.885211
      19A     -0.803340    20A     -0.781076    21A     -0.732989
      22A     -0.715392    23A     -0.708005    24A     -0.685870
      25A     -0.659466    26A     -0.649294    27A     -0.621222
      28A     -0.606205    29A     -0.592050    30A     -0.579590
      31A     -0.554271    32A     -0.533236    33A     -0.512302
      34A     -0.487354    35A     -0.483512    36A     -0.465058
      37A     -0.428646    38A     -0.419809    39A     -0.416669

  @DF-RHF Final Energy:  -528.88033348648116

   => Energetics <=

    Nuclear Repulsion Energy =            548.0676142027728019
    One-Electron Energy =               -1811.1232150055714101
    Two-Electron Energy =                 734.1752673163174450
    Total Energy =                       -528.8803334864811632
  Basis Set: (AUG-CC-PVTZ AUX)
    Blend: AUG-CC-PVTZ-RI
    Molecular point group: c1

    Geometry (in Angstrom), charge = 0, multiplicity = 1:

       Center              X                  Y                   Z               Mass
    ------------   -----------------  -----------------  -----------------  -----------------
         O           -2.247080337949    -1.606852281347    -0.144015508189    15.994914619570
         O           -2.181230337949     0.008823718653     1.444364491811    15.994914619570
         O            2.589683662051    -1.211381281347    -0.562351508189    15.994914619570
         N           -1.453490337949     1.938707718653    -0.497069508189    14.003074004430
         N            3.362229662051     0.514110718653     0.706600491811    14.003074004430
         C            0.102930662051     0.092280718653    -0.988256508189    12.000000000000
         C           -1.360952337949     0.511240718653    -0.792468508189    12.000000000000
         C            0.959944462051     0.353940218653     0.305438091811    12.000000000000
         C           -1.980610337949    -0.350576281347     0.294009491811    12.000000000000
         C            2.370461662051    -0.170014281347     0.055308491811    12.000000000000
         H            0.164556662051    -0.976864281347    -1.208025508189     1.007825032230
         H            0.483549662051     0.634192718653    -1.859697508189     1.007825032230
         H           -1.897300337949     0.308347718653    -1.726000508189     1.007825032230
         H            1.024107662051     1.491135718653     0.381603491811     1.007825032230
         H            0.549151662051    -0.028234281347     1.136385491811     1.007825032230
         H           -1.292834337949     2.060717718653     0.503670491811     1.007825032230
         H           -2.414425337949     2.246461718653    -0.646142508189     1.007825032230
         H            3.224526662051     1.463728718653     1.019202491811     1.007825032230
         H            4.312011662051     0.203216718653     0.547965491811     1.007825032230
         H           -2.586430337949    -2.097397281347     0.633905491811     1.007825032230

  Basis Set: AUG-CC-PVTZ
    Blend: AUG-CC-PVTZ
  Basis Set: (AUG-CC-PVTZ AUX)
    Blend: AUG-CC-PVTZ-JKFIT
	 Reference Energy          =    -528.8803334864811632 [Eh]
	 Singles Energy            =      -0.0000000000000000 [Eh]
	 Same-Spin Energy          =      -0.5279307565991922 [Eh]
	 Opposite-Spin Energy      =      -1.6364716269127266 [Eh]
	 Correlation Energy        =      -2.1644023835119190 [Eh]
	 Total Energy              =    -531.0447358699931328 [Eh]

	 ================> DF-SCS-MP2 Energies <==================
	-----------------------------------------------------------
	 SCS Same-Spin Scale       =       0.3333333333333333 [-]
	 SCS Opposite-Spin Scale   =       1.2000000000000000 [-]
	 SCS Same-Spin Energy      =      -0.1759769188663974 [Eh]
	 SCS Opposite-Spin Energy  =      -1.9637659522952720 [Eh]
	 SCS Correlation Energy    =      -2.1397428711616695 [Eh]
	 SCS Total Energy          =    -531.0200763576427789 [Eh]
	-----------------------------------------------------------

  Dipole Moment: [D]
     X:    -0.3730      Y:     1.8671      Z:     0.8707     Total:     2.0936

*** Psi4 exiting successfully. Buy a developer a beer!
