                               Psi4 1.3.2 release

  ==> Input File <==

--------------------------------------------------------------------------
#psi4
#
memory 32 gb

molecule  {
0 1
  O       -2.2580520    -1.6446380    -0.1299340
  O       -2.1922020    -0.0289620     1.4584460
  O        2.5787120    -1.2491670    -0.5482700
  N       -1.4644620     1.9009220    -0.4829880
  N        3.3512580     0.4763250     0.7206820
  C        0.0919590     0.0544950    -0.9741750
  C       -1.3719240     0.4734550    -0.7783870
  C        0.9202845     0.2073856     0.4848867
  C       -1.9915820    -0.3883620     0.3080910
  C        2.3594900    -0.2078000     0.0693900
  H        0.1535850    -1.0146500    -1.1939440
  H        0.4725780     0.5964070    -1.8456160
  H       -1.9082720     0.2705620    -1.7119190
  H        1.0131360     1.4533500     0.3956850
  H        0.5381800    -0.0660200     1.1504670
  H       -1.3038060     2.0229320     0.5177520
  H       -2.4253970     2.2086760    -0.6320610
  H        3.2135550     1.4259430     1.0332840
  H        4.3010400     0.1654310     0.5620470
  H       -2.5974020    -2.1351830     0.6479870
units angstrom
no_reorient  #important for SAPT in psi4, default
symmetry c1  #important for SAPT in psi4, default
}

set PROPERTIES_ORIGIN ["COM"]
properties('MP2/aug-cc-pvtz', properties = ['dipole'])
--------------------------------------------------------------------------

    Molecular point group: c1
  Charge       = 0
  Multiplicity = 1
  Basis Set: AUG-CC-PVTZ
    Blend: AUG-CC-PVTZ
  Basis Set: (AUG-CC-PVTZ AUX)
    Blend: AUG-CC-PVTZ-JKFIT

    Orbital Energies [Eh]
    ---------------------

    Doubly Occupied:

       1A    -20.625207     2A    -20.562429     3A    -20.526288
       4A    -15.591108     5A    -15.556146     6A    -11.395215
       7A    -11.363416     8A    -11.284682     9A    -11.248974
      10A    -11.248501    11A     -1.469583    12A     -1.378675
      13A     -1.367011    14A     -1.213135    15A     -1.205003
      16A     -1.060179    17A     -0.988359    18A     -0.887806
      19A     -0.814742    20A     -0.791298    21A     -0.739198
      22A     -0.718844    23A     -0.710887    24A     -0.682642
      25A     -0.665204    26A     -0.643791    27A     -0.621061
      28A     -0.610907    29A     -0.593226    30A     -0.571002
      31A     -0.554483    32A     -0.547232    33A     -0.507281
      34A     -0.487007    35A     -0.467637    36A     -0.444224
      37A     -0.425507    38A     -0.419984    39A     -0.416790

  @DF-RHF Final Energy:  -528.75989584274771

   => Energetics <=

    Nuclear Repulsion Energy =            547.2433304213055862
    One-Electron Energy =               -1809.1971275947905724
    Two-Electron Energy =                 733.1939013307371624
    Total Energy =                       -528.7598958427477100
  Basis Set: (AUG-CC-PVTZ AUX)
    Blend: AUG-CC-PVTZ-RI
    Molecular point group: c1

    Geometry (in Angstrom), charge = 0, multiplicity = 1:

       Center              X                  Y                   Z               Mass
    ------------   -----------------  -----------------  -----------------  -----------------
         O           -2.244723511621    -1.597916603486    -0.157600890908    15.994914619570
         O           -2.178873511621     0.017759396514     1.430779109092    15.994914619570
         O            2.592040488379    -1.202445603486    -0.575936890908    15.994914619570
         N           -1.451133511621     1.947643396514    -0.510654890908    14.003074004430
         N            3.364586488379     0.523046396514     0.693015109092    14.003074004430
         C            0.105287488379     0.101216396514    -1.001841890908    12.000000000000
         C           -1.358595511621     0.520176396514    -0.806053890908    12.000000000000
         C            0.933612988379     0.254106996514     0.457219809092    12.000000000000
         C           -1.978253511621    -0.341640603486     0.280424109092    12.000000000000
         C            2.372818488379    -0.161078603486     0.041723109092    12.000000000000
         H            0.166913488379    -0.967928603486    -1.221610890908     1.007825032230
         H            0.485906488379     0.643128396514    -1.873282890908     1.007825032230
         H           -1.894943511621     0.317283396514    -1.739585890908     1.007825032230
         H            1.026464488379     1.500071396514     0.368018109092     1.007825032230
         H            0.551508488379    -0.019298603486     1.122800109092     1.007825032230
         H           -1.290477511621     2.069653396514     0.490085109092     1.007825032230
         H           -2.412068511621     2.255397396514    -0.659727890908     1.007825032230
         H            3.226883488379     1.472664396514     1.005617109092     1.007825032230
         H            4.314368488379     0.212152396514     0.534380109092     1.007825032230
         H           -2.584073511621    -2.088461603486     0.620320109092     1.007825032230

  Basis Set: AUG-CC-PVTZ
    Blend: AUG-CC-PVTZ
  Basis Set: (AUG-CC-PVTZ AUX)
    Blend: AUG-CC-PVTZ-JKFIT
	 Reference Energy          =    -528.7598958427477100 [Eh]
	 Singles Energy            =      -0.0000000000000000 [Eh]
	 Same-Spin Energy          =      -0.5290166175549914 [Eh]
	 Opposite-Spin Energy      =      -1.6414166070928373 [Eh]
	 Correlation Energy        =      -2.1704332246478288 [Eh]
	 Total Energy              =    -530.9303290673955189 [Eh]

	 ================> DF-SCS-MP2 Energies <==================
	-----------------------------------------------------------
	 SCS Same-Spin Scale       =       0.3333333333333333 [-]
	 SCS Opposite-Spin Scale   =       1.2000000000000000 [-]
	 SCS Same-Spin Energy      =      -0.1763388725183305 [Eh]
	 SCS Opposite-Spin Energy  =      -1.9696999285114047 [Eh]
	 SCS Correlation Energy    =      -2.1460388010297353 [Eh]
	 SCS Total Energy          =    -530.9059346437774138 [Eh]
	-----------------------------------------------------------

  Dipole Moment: [D]
     X:    -0.2817      Y:     1.7232      Z:     0.8083     Total:     1.9241

*** Psi4 exiting successfully. Buy a developer a beer!
