                               Psi4 1.3.2 release

  ==> Input File <==

--------------------------------------------------------------------------
#psi4
#
memory 32 gb

molecule  {
0 1
  O       -2.2580520    -1.6446380    -0.1299340
  O       -2.1922020    -0.0289620     1.4584460
  O        2.5787120    -1.2491670    -0.5482700
  N       -1.4644620     1.9009220    -0.4829880
  N        3.3512580     0.4763250     0.7206820
  C        0.0919590     0.0544950    -0.9741750
  C       -1.3719240     0.4734550    -0.7783870
  C        0.9346287     0.2617701     0.4022032
  C       -1.9915820    -0.3883620     0.3080910
  C        2.3594900    -0.2078000     0.0693900
  H        0.1535850    -1.0146500    -1.1939440
  H        0.4725780     0.5964070    -1.8456160
  H       -1.9082720     0.2705620    -1.7119190
  H        1.0131360     1.4533500     0.3956850
  H        0.5381800    -0.0660200     1.1504670
  H       -1.3038060     2.0229320     0.5177520
  H       -2.4253970     2.2086760    -0.6320610
  H        3.2135550     1.4259430     1.0332840
  H        4.3010400     0.1654310     0.5620470
  H       -2.5974020    -2.1351830     0.6479870
units angstrom
no_reorient  #important for SAPT in psi4, default
symmetry c1  #important for SAPT in psi4, default
}

set PROPERTIES_ORIGIN ["COM"]
properties('MP2/aug-cc-pvtz', properties = ['dipole'])
--------------------------------------------------------------------------

    Molecular point group: c1
  Charge       = 0
  Multiplicity = 1
  Basis Set: AUG-CC-PVTZ
    Blend: AUG-CC-PVTZ
  Basis Set: (AUG-CC-PVTZ AUX)
    Blend: AUG-CC-PVTZ-JKFIT

    Orbital Energies [Eh]
    ---------------------

    Doubly Occupied:

       1A    -20.625235     2A    -20.562468     3A    -20.524582
       4A    -15.590427     5A    -15.556748     6A    -11.395299
       7A    -11.359744     8A    -11.284983     9A    -11.245502
      10A    -11.244370    11A     -1.469628    12A     -1.377669
      13A     -1.367054    14A     -1.212787    15A     -1.205796
      16A     -1.062239    17A     -0.985255    18A     -0.885841
      19A     -0.805747    20A     -0.786945    21A     -0.735509
      22A     -0.717159    23A     -0.709808    24A     -0.683409
      25A     -0.663177    26A     -0.646486    27A     -0.621442
      28A     -0.608676    29A     -0.592845    30A     -0.574922
      31A     -0.554135    32A     -0.542908    33A     -0.510414
      34A     -0.487416    35A     -0.469472    36A     -0.460842
      37A     -0.427486    38A     -0.419757    39A     -0.416885

  @DF-RHF Final Energy:  -528.84029066478331

   => Energetics <=

    Nuclear Repulsion Energy =            547.6772686660920044
    One-Electron Energy =               -1810.2529873900484745
    Two-Electron Energy =                 733.7354280591731595
    Total Energy =                       -528.8402906647833106
  Basis Set: (AUG-CC-PVTZ AUX)
    Blend: AUG-CC-PVTZ-RI
    Molecular point group: c1

    Geometry (in Angstrom), charge = 0, multiplicity = 1:

       Center              X                  Y                   Z               Mass
    ------------   -----------------  -----------------  -----------------  -----------------
         O           -2.245901928893    -1.602384446524    -0.150808203656    15.994914619570
         O           -2.180051928893     0.013291553476     1.437571796344    15.994914619570
         O            2.590862071107    -1.206913446524    -0.569144203656    15.994914619570
         N           -1.452311928893     1.943175553476    -0.503862203656    14.003074004430
         N            3.363408071107     0.518578553476     0.699807796344    14.003074004430
         C            0.104109071107     0.096748553476    -0.995049203656    12.000000000000
         C           -1.359773928893     0.515708553476    -0.799261203656    12.000000000000
         C            0.946778771107     0.304023653476     0.381328996344    12.000000000000
         C           -1.979431928893    -0.346108446524     0.287216796344    12.000000000000
         C            2.371640071107    -0.165546446524     0.048515796344    12.000000000000
         H            0.165735071107    -0.972396446524    -1.214818203656     1.007825032230
         H            0.484728071107     0.638660553476    -1.866490203656     1.007825032230
         H           -1.896121928893     0.312815553476    -1.732793203656     1.007825032230
         H            1.025286071107     1.495603553476     0.374810796344     1.007825032230
         H            0.550330071107    -0.023766446524     1.129592796344     1.007825032230
         H           -1.291655928893     2.065185553476     0.496877796344     1.007825032230
         H           -2.413246928893     2.250929553476    -0.652935203656     1.007825032230
         H            3.225705071107     1.468196553476     1.012409796344     1.007825032230
         H            4.313190071107     0.207684553476     0.541172796344     1.007825032230
         H           -2.585251928893    -2.092929446524     0.627112796344     1.007825032230

  Basis Set: AUG-CC-PVTZ
    Blend: AUG-CC-PVTZ
  Basis Set: (AUG-CC-PVTZ AUX)
    Blend: AUG-CC-PVTZ-JKFIT
	 Reference Energy          =    -528.8402906647833106 [Eh]
	 Singles Energy            =      -0.0000000000000000 [Eh]
	 Same-Spin Energy          =      -0.5282428244475172 [Eh]
	 Opposite-Spin Energy      =      -1.6382664033378014 [Eh]
	 Correlation Energy        =      -2.1665092277853186 [Eh]
	 Total Energy              =    -531.0067998925686652 [Eh]

	 ================> DF-SCS-MP2 Energies <==================
	-----------------------------------------------------------
	 SCS Same-Spin Scale       =       0.3333333333333333 [-]
	 SCS Opposite-Spin Scale   =       1.2000000000000000 [-]
	 SCS Same-Spin Energy      =      -0.1760809414825057 [Eh]
	 SCS Opposite-Spin Energy  =      -1.9659196840053617 [Eh]
	 SCS Correlation Energy    =      -2.1420006254878672 [Eh]
	 SCS Total Energy          =    -530.9822912902711778 [Eh]
	-----------------------------------------------------------

  Dipole Moment: [D]
     X:    -0.3346      Y:     1.7978      Z:     0.8530     Total:     2.0179

*** Psi4 exiting successfully. Buy a developer a beer!
