                               Psi4 1.3.2 release

  ==> Input File <==

--------------------------------------------------------------------------
#psi4
#
memory 32 gb

molecule  {
0 1
  O       -2.2580520    -1.6446380    -0.1299340
  O       -2.1922020    -0.0289620     1.4584460
  O        2.5787120    -1.2491670    -0.5482700
  N       -1.4644620     1.9009220    -0.4829880
  N        3.3512580     0.4763250     0.7206820
  C        0.0919590     0.0544950    -0.9741750
  C       -1.3719240     0.4734550    -0.7783870
  C        0.9274566     0.2345778     0.4435449
  C       -1.9915820    -0.3883620     0.3080910
  C        2.3594900    -0.2078000     0.0693900
  H        0.1535850    -1.0146500    -1.1939440
  H        0.4725780     0.5964070    -1.8456160
  H       -1.9082720     0.2705620    -1.7119190
  H        1.0131360     1.4533500     0.3956850
  H        0.5381800    -0.0660200     1.1504670
  H       -1.3038060     2.0229320     0.5177520
  H       -2.4253970     2.2086760    -0.6320610
  H        3.2135550     1.4259430     1.0332840
  H        4.3010400     0.1654310     0.5620470
  H       -2.5974020    -2.1351830     0.6479870
units angstrom
no_reorient  #important for SAPT in psi4, default
symmetry c1  #important for SAPT in psi4, default
}

set PROPERTIES_ORIGIN ["COM"]
properties('MP2/aug-cc-pvtz', properties = ['dipole'])
--------------------------------------------------------------------------

    Molecular point group: c1
  Charge       = 0
  Multiplicity = 1
  Basis Set: AUG-CC-PVTZ
    Blend: AUG-CC-PVTZ
  Basis Set: (AUG-CC-PVTZ AUX)
    Blend: AUG-CC-PVTZ-JKFIT

    Orbital Energies [Eh]
    ---------------------

    Doubly Occupied:

       1A    -20.625230     2A    -20.562469     3A    -20.525359
       4A    -15.590732     5A    -15.556446     6A    -11.395270
       7A    -11.361345     8A    -11.284808     9A    -11.246799
      10A    -11.246400    11A     -1.469619    12A     -1.378114
      13A     -1.367051    14A     -1.212925    15A     -1.205391
      16A     -1.060918    17A     -0.986509    18A     -0.886627
      19A     -0.809263    20A     -0.789608    21A     -0.737291
      22A     -0.718097    23A     -0.710462    24A     -0.682843
      25A     -0.664415    26A     -0.645067    27A     -0.621304
      28A     -0.609846    29A     -0.593138    30A     -0.572877
      31A     -0.554189    32A     -0.545714    33A     -0.508959
      34A     -0.487271    35A     -0.467993    36A     -0.453036
      37A     -0.426608    38A     -0.419837    39A     -0.416893

  @DF-RHF Final Energy:  -528.80607380524373

   => Energetics <=

    Nuclear Repulsion Energy =            547.4635076416101356
    One-Electron Energy =               -1809.7457138146435227
    Two-Electron Energy =                 733.4761323677897735
    Total Energy =                       -528.8060738052437273
  Basis Set: (AUG-CC-PVTZ AUX)
    Blend: AUG-CC-PVTZ-RI
    Molecular point group: c1

    Geometry (in Angstrom), charge = 0, multiplicity = 1:

       Center              X                  Y                   Z               Mass
    ------------   -----------------  -----------------  -----------------  -----------------
         O           -2.245312720257    -1.600150520898    -0.154204543174    15.994914619570
         O           -2.179462720257     0.015525479102     1.434175456826    15.994914619570
         O            2.591451279743    -1.204679520898    -0.572540543174    15.994914619570
         N           -1.451722720257     1.945409479102    -0.507258543174    14.003074004430
         N            3.363997279743     0.520812479102     0.696411456826    14.003074004430
         C            0.104698279743     0.098982479102    -0.998445543174    12.000000000000
         C           -1.359184720257     0.517942479102    -0.802657543174    12.000000000000
         C            0.940195879743     0.279065279102     0.419274356826    12.000000000000
         C           -1.978842720257    -0.343874520898     0.283820456826    12.000000000000
         C            2.372229279743    -0.163312520898     0.045119456826    12.000000000000
         H            0.166324279743    -0.970162520898    -1.218214543174     1.007825032230
         H            0.485317279743     0.640894479102    -1.869886543174     1.007825032230
         H           -1.895532720257     0.315049479102    -1.736189543174     1.007825032230
         H            1.025875279743     1.497837479102     0.371414456826     1.007825032230
         H            0.550919279743    -0.021532520898     1.126196456826     1.007825032230
         H           -1.291066720257     2.067419479102     0.493481456826     1.007825032230
         H           -2.412657720257     2.253163479102    -0.656331543174     1.007825032230
         H            3.226294279743     1.470430479102     1.009013456826     1.007825032230
         H            4.313779279743     0.209918479102     0.537776456826     1.007825032230
         H           -2.584662720257    -2.090695520898     0.623716456826     1.007825032230

  Basis Set: AUG-CC-PVTZ
    Blend: AUG-CC-PVTZ
  Basis Set: (AUG-CC-PVTZ AUX)
    Blend: AUG-CC-PVTZ-JKFIT
	 Reference Energy          =    -528.8060738052437273 [Eh]
	 Singles Energy            =      -0.0000000000000000 [Eh]
	 Same-Spin Energy          =      -0.5285697751469092 [Eh]
	 Opposite-Spin Energy      =      -1.6396682158091285 [Eh]
	 Correlation Energy        =      -2.1682379909560376 [Eh]
	 Total Energy              =    -530.9743117961997996 [Eh]

	 ================> DF-SCS-MP2 Energies <==================
	-----------------------------------------------------------
	 SCS Same-Spin Scale       =       0.3333333333333333 [-]
	 SCS Opposite-Spin Scale   =       1.2000000000000000 [-]
	 SCS Same-Spin Energy      =      -0.1761899250489697 [Eh]
	 SCS Opposite-Spin Energy  =      -1.9676018589709541 [Eh]
	 SCS Correlation Energy    =      -2.1437917840199239 [Eh]
	 SCS Total Energy          =    -530.9498655892635952 [Eh]
	-----------------------------------------------------------

  Dipole Moment: [D]
     X:    -0.3105      Y:     1.7612      Z:     0.8339     Total:     1.9732

*** Psi4 exiting successfully. Buy a developer a beer!
