                               Psi4 1.3.2 release

  ==> Input File <==

--------------------------------------------------------------------------
#psi4
#
memory 32 gb

molecule  {
0 1
  O       -2.2580520    -1.6446380    -0.1299340
  O       -2.1922020    -0.0289620     1.4584460
  O        2.5787120    -1.2491670    -0.5482700
  N       -1.4644620     1.9009220    -0.4829880
  N        3.3512580     0.4763250     0.7206820
  C        0.0919590     0.0544950    -0.9741750
  C       -1.5092085     0.5185796    -0.8185957
  C        0.9633170     0.3705390     0.2368360
  C       -1.9915820    -0.3883620     0.3080910
  C        2.3594900    -0.2078000     0.0693900
  H        0.1535850    -1.0146500    -1.1939440
  H        0.4725780     0.5964070    -1.8456160
  H       -1.9082720     0.2705620    -1.7119190
  H        1.0131360     1.4533500     0.3956850
  H        0.5381800    -0.0660200     1.1504670
  H       -1.3038060     2.0229320     0.5177520
  H       -2.4253970     2.2086760    -0.6320610
  H        3.2135550     1.4259430     1.0332840
  H        4.3010400     0.1654310     0.5620470
  H       -2.5974020    -2.1351830     0.6479870
units angstrom
no_reorient  #important for SAPT in psi4, default
symmetry c1  #important for SAPT in psi4, default
}

set PROPERTIES_ORIGIN ["COM"]
properties('MP2/aug-cc-pvtz', properties = ['dipole'])
--------------------------------------------------------------------------

    Molecular point group: c1
  Charge       = 0
  Multiplicity = 1
  Basis Set: AUG-CC-PVTZ
    Blend: AUG-CC-PVTZ
  Basis Set: (AUG-CC-PVTZ AUX)
    Blend: AUG-CC-PVTZ-JKFIT

    Orbital Energies [Eh]
    ---------------------

    Doubly Occupied:

       1A    -20.623540     2A    -20.560160     3A    -20.521965
       4A    -15.589304     5A    -15.560471     6A    -11.394991
       7A    -11.357451     8A    -11.284140     9A    -11.246559
      10A    -11.242082    11A     -1.467824    12A     -1.376125
      13A     -1.365305    14A     -1.218382    15A     -1.211941
      16A     -1.061601    17A     -0.980849    18A     -0.877387
      19A     -0.810096    20A     -0.777977    21A     -0.734109
      22A     -0.713822    23A     -0.712035    24A     -0.685454
      25A     -0.652493    26A     -0.650198    27A     -0.624528
      28A     -0.609782    29A     -0.596634    30A     -0.589181
      31A     -0.554318    32A     -0.514270    33A     -0.507092
      34A     -0.499336    35A     -0.477622    36A     -0.468433
      37A     -0.428741    38A     -0.418249    39A     -0.405979

  @DF-RHF Final Energy:  -528.87252108793552

   => Energetics <=

    Nuclear Repulsion Energy =            546.8228418102559090
    One-Electron Energy =               -1808.6498793700432088
    Two-Electron Energy =                 732.9545164718516617
    Total Energy =                       -528.8725210879355245
  Basis Set: (AUG-CC-PVTZ AUX)
    Blend: AUG-CC-PVTZ-RI
    Molecular point group: c1

    Geometry (in Angstrom), charge = 0, multiplicity = 1:

       Center              X                  Y                   Z               Mass
    ------------   -----------------  -----------------  -----------------  -----------------
         O           -2.236980438834    -1.615027240014    -0.133919552412    15.994914619570
         O           -2.171130438834     0.000648759986     1.454460447588    15.994914619570
         O            2.599783561166    -1.219556240014    -0.552255552412    15.994914619570
         N           -1.443390438834     1.930532759986    -0.486973552412    14.003074004430
         N            3.372329561166     0.505935759986     0.716696447588    14.003074004430
         C            0.113030561166     0.084105759986    -0.978160552412    12.000000000000
         C           -1.488136938834     0.548190359986    -0.822581252412    12.000000000000
         C            0.984388561166     0.400149759986     0.232850447588    12.000000000000
         C           -1.970510438834    -0.358751240014     0.304105447588    12.000000000000
         C            2.380561561166    -0.178189240014     0.065404447588    12.000000000000
         H            0.174656561166    -0.985039240014    -1.197929552412     1.007825032230
         H            0.493649561166     0.626017759986    -1.849601552412     1.007825032230
         H           -1.887200438834     0.300172759986    -1.715904552412     1.007825032230
         H            1.034207561166     1.482960759986     0.391699447588     1.007825032230
         H            0.559251561166    -0.036409240014     1.146481447588     1.007825032230
         H           -1.282734438834     2.052542759986     0.513766447588     1.007825032230
         H           -2.404325438834     2.238286759986    -0.636046552412     1.007825032230
         H            3.234626561166     1.455553759986     1.029298447588     1.007825032230
         H            4.322111561166     0.195041759986     0.558061447588     1.007825032230
         H           -2.576330438834    -2.105572240014     0.644001447588     1.007825032230

  Basis Set: AUG-CC-PVTZ
    Blend: AUG-CC-PVTZ
  Basis Set: (AUG-CC-PVTZ AUX)
    Blend: AUG-CC-PVTZ-JKFIT
	 Reference Energy          =    -528.8725210879355245 [Eh]
	 Singles Energy            =      -0.0000000000000000 [Eh]
	 Same-Spin Energy          =      -0.5284189127563973 [Eh]
	 Opposite-Spin Energy      =      -1.6365695633908091 [Eh]
	 Correlation Energy        =      -2.1649884761472062 [Eh]
	 Total Energy              =    -531.0375095640827112 [Eh]

	 ================> DF-SCS-MP2 Energies <==================
	-----------------------------------------------------------
	 SCS Same-Spin Scale       =       0.3333333333333333 [-]
	 SCS Opposite-Spin Scale   =       1.2000000000000000 [-]
	 SCS Same-Spin Energy      =      -0.1761396375854657 [Eh]
	 SCS Opposite-Spin Energy  =      -1.9638834760689707 [Eh]
	 SCS Correlation Energy    =      -2.1400231136544363 [Eh]
	 SCS Total Energy          =    -531.0125442015900035 [Eh]
	-----------------------------------------------------------

  Dipole Moment: [D]
     X:    -0.4791      Y:     2.0970      Z:     0.7917     Total:     2.2921

*** Psi4 exiting successfully. Buy a developer a beer!
