                               Psi4 1.3.2 release

  ==> Input File <==

--------------------------------------------------------------------------
#psi4
#
memory 32 gb

molecule  {
0 1
  O       -2.2580520    -1.6446380    -0.1299340
  O       -2.1922020    -0.0289620     1.4584460
  O        2.5787120    -1.2491670    -0.5482700
  N       -1.4644620     1.9009220    -0.4829880
  N        3.3512580     0.4763250     0.7206820
  C        0.0919590     0.0544950    -0.9741750
  C       -1.4176855     0.4884965    -0.7917899
  C        0.9633170     0.3705390     0.2368360
  C       -1.9915820    -0.3883620     0.3080910
  C        2.3594900    -0.2078000     0.0693900
  H        0.1535850    -1.0146500    -1.1939440
  H        0.4725780     0.5964070    -1.8456160
  H       -1.9082720     0.2705620    -1.7119190
  H        1.0131360     1.4533500     0.3956850
  H        0.5381800    -0.0660200     1.1504670
  H       -1.3038060     2.0229320     0.5177520
  H       -2.4253970     2.2086760    -0.6320610
  H        3.2135550     1.4259430     1.0332840
  H        4.3010400     0.1654310     0.5620470
  H       -2.5974020    -2.1351830     0.6479870
units angstrom
no_reorient  #important for SAPT in psi4, default
symmetry c1  #important for SAPT in psi4, default
}

set PROPERTIES_ORIGIN ["COM"]
properties('MP2/aug-cc-pvtz', properties = ['dipole'])
--------------------------------------------------------------------------

    Molecular point group: c1
  Charge       = 0
  Multiplicity = 1
  Basis Set: AUG-CC-PVTZ
    Blend: AUG-CC-PVTZ
  Basis Set: (AUG-CC-PVTZ AUX)
    Blend: AUG-CC-PVTZ-JKFIT

    Orbital Energies [Eh]
    ---------------------

    Doubly Occupied:

       1A    -20.624703     2A    -20.561595     3A    -20.522338
       4A    -15.589469     5A    -15.558691     6A    -11.394904
       7A    -11.357487     8A    -11.284938     9A    -11.246509
      10A    -11.239356    11A     -1.469015    12A     -1.376466
      13A     -1.366375    14A     -1.212898    15A     -1.210652
      16A     -1.067550    17A     -0.982767    18A     -0.882584
      19A     -0.805256    20A     -0.777679    21A     -0.732644
      22A     -0.714006    23A     -0.709303    24A     -0.688154
      25A     -0.654329    26A     -0.650972    27A     -0.620998
      28A     -0.604568    29A     -0.590864    30A     -0.589987
      31A     -0.554209    32A     -0.515763    33A     -0.509083
      34A     -0.503353    35A     -0.484050    36A     -0.466149
      37A     -0.428932    38A     -0.419308    39A     -0.414507

  @DF-RHF Final Energy:  -528.88980233300492

   => Energetics <=

    Nuclear Repulsion Energy =            547.8715044463727963
    One-Electron Energy =               -1810.7577866323474609
    Two-Electron Energy =                 733.9964798529698555
    Total Energy =                       -528.8898023330049227
  Basis Set: (AUG-CC-PVTZ AUX)
    Blend: AUG-CC-PVTZ-RI
    Molecular point group: c1

    Geometry (in Angstrom), charge = 0, multiplicity = 1:

       Center              X                  Y                   Z               Mass
    ------------   -----------------  -----------------  -----------------  -----------------
         O           -2.244499316425    -1.612555826856    -0.136121725952    15.994914619570
         O           -2.178649316425     0.003120173144     1.452258274048    15.994914619570
         O            2.592264683575    -1.217084826856    -0.554457725952    15.994914619570
         N           -1.450909316425     1.933004173144    -0.489175725952    14.003074004430
         N            3.364810683575     0.508407173144     0.714494274048    14.003074004430
         C            0.105511683575     0.086577173144    -0.980362725952    12.000000000000
         C           -1.404132816425     0.520578673144    -0.797977625952    12.000000000000
         C            0.976869683575     0.402621173144     0.230648274048    12.000000000000
         C           -1.978029316425    -0.356279826856     0.301903274048    12.000000000000
         C            2.373042683575    -0.175717826856     0.063202274048    12.000000000000
         H            0.167137683575    -0.982567826856    -1.200131725952     1.007825032230
         H            0.486130683575     0.628489173144    -1.851803725952     1.007825032230
         H           -1.894719316425     0.302644173144    -1.718106725952     1.007825032230
         H            1.026688683575     1.485432173144     0.389497274048     1.007825032230
         H            0.551732683575    -0.033937826856     1.144279274048     1.007825032230
         H           -1.290253316425     2.055014173144     0.511564274048     1.007825032230
         H           -2.411844316425     2.240758173144    -0.638248725952     1.007825032230
         H            3.227107683575     1.458025173144     1.027096274048     1.007825032230
         H            4.314592683575     0.197513173144     0.555859274048     1.007825032230
         H           -2.583849316425    -2.103100826856     0.641799274048     1.007825032230

  Basis Set: AUG-CC-PVTZ
    Blend: AUG-CC-PVTZ
  Basis Set: (AUG-CC-PVTZ AUX)
    Blend: AUG-CC-PVTZ-JKFIT
	 Reference Energy          =    -528.8898023330049227 [Eh]
	 Singles Energy            =      -0.0000000000000000 [Eh]
	 Same-Spin Energy          =      -0.5279869805742567 [Eh]
	 Opposite-Spin Energy      =      -1.6357626997335282 [Eh]
	 Correlation Energy        =      -2.1637496803077849 [Eh]
	 Total Energy              =    -531.0535520133126965 [Eh]

	 ================> DF-SCS-MP2 Energies <==================
	-----------------------------------------------------------
	 SCS Same-Spin Scale       =       0.3333333333333333 [-]
	 SCS Opposite-Spin Scale   =       1.2000000000000000 [-]
	 SCS Same-Spin Energy      =      -0.1759956601914189 [Eh]
	 SCS Opposite-Spin Energy  =      -1.9629152396802336 [Eh]
	 SCS Correlation Energy    =      -2.1389108998716524 [Eh]
	 SCS Total Energy          =    -531.0287132328766120 [Eh]
	-----------------------------------------------------------

  Dipole Moment: [D]
     X:    -0.4390      Y:     1.9858      Z:     0.8358     Total:     2.1988

*** Psi4 exiting successfully. Buy a developer a beer!
