                               Psi4 1.3.2 release

  ==> Input File <==

--------------------------------------------------------------------------
#psi4
#
memory 32 gb

molecule  {
0 1
  O       -2.2580520    -1.6446380    -0.1299340
  O       -2.1922020    -0.0289620     1.4584460
  O        2.5787120    -1.2491670    -0.5482700
  N       -1.4644620     1.9009220    -0.4829880
  N        3.3512580     0.4763250     0.7206820
  C        0.0919590     0.0544950    -0.9741750
  C       -1.3719240     0.4734550    -0.7783870
  C        0.9633170     0.3705390     0.2368360
  C       -1.9915820    -0.3883620     0.3080910
  C        2.3594900    -0.2078000     0.0693900
  H        0.1535850    -1.0146500    -1.1939440
  H        0.4725780     0.5964070    -1.8456160
  H       -1.9082720     0.2705620    -1.7119190
  H        1.0131360     1.4533500     0.3956850
  H        0.5381800    -0.0660200     1.1504670
  H       -1.3038060     2.0229320     0.5177520
  H       -2.4253970     2.2086760    -0.6320610
  H        3.2135550     1.4259430     1.0332840
  H        4.3148138     0.2103210     0.4737567
  H       -2.5974020    -2.1351830     0.6479870
units angstrom
no_reorient  #important for SAPT in psi4, default
symmetry c1  #important for SAPT in psi4, default
}

set PROPERTIES_ORIGIN ["COM"]
properties('MP2/aug-cc-pvtz', properties = ['dipole'])
--------------------------------------------------------------------------

    Molecular point group: c1
  Charge       = 0
  Multiplicity = 1
  Basis Set: AUG-CC-PVTZ
    Blend: AUG-CC-PVTZ
  Basis Set: (AUG-CC-PVTZ AUX)
    Blend: AUG-CC-PVTZ-JKFIT

    Orbital Energies [Eh]
    ---------------------

    Doubly Occupied:

       1A    -20.625251     2A    -20.562286     3A    -20.523297
       4A    -15.591049     5A    -15.558156     6A    -11.395355
       7A    -11.357710     8A    -11.286379     9A    -11.246638
      10A    -11.238089    11A     -1.469577    12A     -1.377104
      13A     -1.366898    14A     -1.211605    15A     -1.207667
      16A     -1.071428    17A     -0.983742    18A     -0.885098
      19A     -0.802775    20A     -0.777499    21A     -0.730391
      22A     -0.713986    23A     -0.705267    24A     -0.687652
      25A     -0.656136    26A     -0.651077    27A     -0.620783
      28A     -0.604375    29A     -0.590994    30A     -0.584856
      31A     -0.554468    32A     -0.521812    33A     -0.510072
      34A     -0.500753    35A     -0.486636    36A     -0.464460
      37A     -0.430192    38A     -0.420614    39A     -0.416094

  @DF-RHF Final Energy:  -528.89057823391261

   => Energetics <=

    Nuclear Repulsion Energy =            548.3162116045572247
    One-Electron Energy =               -1811.6371335137962433
    Two-Electron Energy =                 734.4303436753265260
    Total Energy =                       -528.8905782339126063
  Basis Set: (AUG-CC-PVTZ AUX)
    Blend: AUG-CC-PVTZ-RI
    Molecular point group: c1

    Geometry (in Angstrom), charge = 0, multiplicity = 1:

       Center              X                  Y                   Z               Mass
    ------------   -----------------  -----------------  -----------------  -----------------
         O           -2.248353789533    -1.611629849389    -0.136613641113    15.994914619570
         O           -2.182503789533     0.004046150611     1.451766358887    15.994914619570
         O            2.588410210467    -1.216158849389    -0.554949641113    15.994914619570
         N           -1.454763789533     1.933930150611    -0.489667641113    14.003074004430
         N            3.360956210467     0.509333150611     0.714002358887    14.003074004430
         C            0.101657210467     0.087503150611    -0.980854641113    12.000000000000
         C           -1.362225789533     0.506463150611    -0.785066641113    12.000000000000
         C            0.973015210467     0.403547150611     0.230156358887    12.000000000000
         C           -1.981883789533    -0.355353849389     0.301411358887    12.000000000000
         C            2.369188210467    -0.174791849389     0.062710358887    12.000000000000
         H            0.163283210467    -0.981641849389    -1.200623641113     1.007825032230
         H            0.482276210467     0.629415150611    -1.852295641113     1.007825032230
         H           -1.898573789533     0.303570150611    -1.718598641113     1.007825032230
         H            1.022834210467     1.486358150611     0.389005358887     1.007825032230
         H            0.547878210467    -0.033011849389     1.143787358887     1.007825032230
         H           -1.294107789533     2.055940150611     0.511072358887     1.007825032230
         H           -2.415698789533     2.241684150611    -0.638740641113     1.007825032230
         H            3.223253210467     1.458951150611     1.026604358887     1.007825032230
         H            4.324512010467     0.243329150611     0.467077058887     1.007825032230
         H           -2.587703789533    -2.102174849389     0.641307358887     1.007825032230

  Basis Set: AUG-CC-PVTZ
    Blend: AUG-CC-PVTZ
  Basis Set: (AUG-CC-PVTZ AUX)
    Blend: AUG-CC-PVTZ-JKFIT
	 Reference Energy          =    -528.8905782339126063 [Eh]
	 Singles Energy            =      -0.0000000000000000 [Eh]
	 Same-Spin Energy          =      -0.5281427992532658 [Eh]
	 Opposite-Spin Energy      =      -1.6362444788877308 [Eh]
	 Correlation Energy        =      -2.1643872781409965 [Eh]
	 Total Energy              =    -531.0549655120536272 [Eh]

	 ================> DF-SCS-MP2 Energies <==================
	-----------------------------------------------------------
	 SCS Same-Spin Scale       =       0.3333333333333333 [-]
	 SCS Opposite-Spin Scale   =       1.2000000000000000 [-]
	 SCS Same-Spin Energy      =      -0.1760475997510886 [Eh]
	 SCS Opposite-Spin Energy  =      -1.9634933746652770 [Eh]
	 SCS Correlation Energy    =      -2.1395409744163656 [Eh]
	 SCS Total Energy          =    -531.0301192083289834 [Eh]
	-----------------------------------------------------------

  Dipole Moment: [D]
     X:    -0.4210      Y:     1.9844      Z:     0.7294     Total:     2.1558

*** Psi4 exiting successfully. Buy a developer a beer!
