                               Psi4 1.3.2 release

  ==> Input File <==

--------------------------------------------------------------------------
#psi4
#
memory 32 gb

molecule  {
0 1
  O       -2.2580520    -1.6446380    -0.1299340
  O       -2.1922020    -0.0289620     1.4584460
  O        2.5787120    -1.2491670    -0.5482700
  N       -1.4644620     1.9009220    -0.4829880
  N        3.3512580     0.4763250     0.7206820
  C        0.0919590     0.0544950    -0.9741750
  C       -1.3719240     0.4734550    -0.7783870
  C        0.9561449     0.3433468     0.2781778
  C       -1.9915820    -0.3883620     0.3080910
  C        2.3594900    -0.2078000     0.0693900
  H        0.1535850    -1.0146500    -1.1939440
  H        0.4725780     0.5964070    -1.8456160
  H       -1.9082720     0.2705620    -1.7119190
  H        1.0131360     1.4533500     0.3956850
  H        0.5381800    -0.0660200     1.1504670
  H       -1.3038060     2.0229320     0.5177520
  H       -2.4253970     2.2086760    -0.6320610
  H        3.2135550     1.4259430     1.0332840
  H        4.3010400     0.1654310     0.5620470
  H       -2.5974020    -2.1351830     0.6479870
units angstrom
no_reorient  #important for SAPT in psi4, default
symmetry c1  #important for SAPT in psi4, default
}

set PROPERTIES_ORIGIN ["COM"]
properties('MP2/aug-cc-pvtz', properties = ['dipole'])
--------------------------------------------------------------------------

    Molecular point group: c1
  Charge       = 0
  Multiplicity = 1
  Basis Set: AUG-CC-PVTZ
    Blend: AUG-CC-PVTZ
  Basis Set: (AUG-CC-PVTZ AUX)
    Blend: AUG-CC-PVTZ-JKFIT

    Orbital Energies [Eh]
    ---------------------

    Doubly Occupied:

       1A    -20.625202     2A    -20.562306     3A    -20.522958
       4A    -15.589782     5A    -15.557694     6A    -11.395295
       7A    -11.357529     8A    -11.285831     9A    -11.245543
      10A    -11.239079    11A     -1.469555    12A     -1.376853
      13A     -1.366915    14A     -1.212664    15A     -1.207150
      16A     -1.068655    17A     -0.983856    18A     -0.885249
      19A     -0.803257    20A     -0.778967    21A     -0.732315
      22A     -0.714787    23A     -0.707303    24A     -0.687619
      25A     -0.657441    26A     -0.650395    27A     -0.620912
      28A     -0.605008    29A     -0.591789    30A     -0.582247
      31A     -0.554314    32A     -0.527035    33A     -0.512105
      34A     -0.492328    35A     -0.487036    36A     -0.464895
      37A     -0.428952    38A     -0.419903    39A     -0.416484

  @DF-RHF Final Energy:  -528.88903667265424

   => Energetics <=

    Nuclear Repulsion Energy =            548.2360373706326300
    One-Electron Energy =               -1811.4757329659908009
    Two-Electron Energy =                 734.3506589227039285
    Total Energy =                       -528.8890366726542425
  Basis Set: (AUG-CC-PVTZ AUX)
    Blend: AUG-CC-PVTZ-RI
    Molecular point group: c1

    Geometry (in Angstrom), charge = 0, multiplicity = 1:

       Center              X                  Y                   Z               Mass
    ------------   -----------------  -----------------  -----------------  -----------------
         O           -2.247669546585    -1.609086206974    -0.140619160456    15.994914619570
         O           -2.181819546585     0.006589793026     1.447760839544    15.994914619570
         O            2.589094453415    -1.213615206974    -0.558955160456    15.994914619570
         N           -1.454079546585     1.936473793026    -0.493673160456    14.003074004430
         N            3.361640453415     0.511876793026     0.709996839544    14.003074004430
         C            0.102341453415     0.090046793026    -0.984860160456    12.000000000000
         C           -1.361541546585     0.509006793026    -0.789072160456    12.000000000000
         C            0.966527353415     0.378898593026     0.267492639544    12.000000000000
         C           -1.981199546585    -0.352810206974     0.297405839544    12.000000000000
         C            2.369872453415    -0.172248206974     0.058704839544    12.000000000000
         H            0.163967453415    -0.979098206974    -1.204629160456     1.007825032230
         H            0.482960453415     0.631958793026    -1.856301160456     1.007825032230
         H           -1.897889546585     0.306113793026    -1.722604160456     1.007825032230
         H            1.023518453415     1.488901793026     0.384999839544     1.007825032230
         H            0.548562453415    -0.030468206974     1.139781839544     1.007825032230
         H           -1.293423546585     2.058483793026     0.507066839544     1.007825032230
         H           -2.415014546585     2.244227793026    -0.642746160456     1.007825032230
         H            3.223937453415     1.461494793026     1.022598839544     1.007825032230
         H            4.311422453415     0.200982793026     0.551361839544     1.007825032230
         H           -2.587019546585    -2.099631206974     0.637301839544     1.007825032230

  Basis Set: AUG-CC-PVTZ
    Blend: AUG-CC-PVTZ
  Basis Set: (AUG-CC-PVTZ AUX)
    Blend: AUG-CC-PVTZ-JKFIT
	 Reference Energy          =    -528.8890366726542425 [Eh]
	 Singles Energy            =      -0.0000000000000000 [Eh]
	 Same-Spin Energy          =      -0.5279383337387247 [Eh]
	 Opposite-Spin Energy      =      -1.6360496111855474 [Eh]
	 Correlation Energy        =      -2.1639879449242718 [Eh]
	 Total Energy              =    -531.0530246175785578 [Eh]

	 ================> DF-SCS-MP2 Energies <==================
	-----------------------------------------------------------
	 SCS Same-Spin Scale       =       0.3333333333333333 [-]
	 SCS Opposite-Spin Scale   =       1.2000000000000000 [-]
	 SCS Same-Spin Energy      =      -0.1759794445795749 [Eh]
	 SCS Opposite-Spin Energy  =      -1.9632595334226568 [Eh]
	 SCS Correlation Energy    =      -2.1392389780022318 [Eh]
	 SCS Total Energy          =    -531.0282756506564965 [Eh]
	-----------------------------------------------------------

  Dipole Moment: [D]
     X:    -0.3892      Y:     1.8997      Z:     0.8689     Total:     2.1249

*** Psi4 exiting successfully. Buy a developer a beer!
