                               Psi4 1.3.2 release

  ==> Input File <==

--------------------------------------------------------------------------
#psi4
#
memory 32 gb

molecule  {
0 1
  O       -2.2580520    -1.6446380    -0.1299340
  O       -2.1922020    -0.0289620     1.4584460
  O        2.5787120    -1.2491670    -0.5482700
  N       -1.4644620     1.9009220    -0.4829880
  N        3.3512580     0.4763250     0.7206820
  C        0.0919590     0.0544950    -0.9741750
  C       -1.6464930     0.5637043    -0.8588043
  C        0.9633170     0.3705390     0.2368360
  C       -1.9915820    -0.3883620     0.3080910
  C        2.3594900    -0.2078000     0.0693900
  H        0.1535850    -1.0146500    -1.1939440
  H        0.4725780     0.5964070    -1.8456160
  H       -1.9082720     0.2705620    -1.7119190
  H        1.0131360     1.4533500     0.3956850
  H        0.5381800    -0.0660200     1.1504670
  H       -1.3038060     2.0229320     0.5177520
  H       -2.4253970     2.2086760    -0.6320610
  H        3.2135550     1.4259430     1.0332840
  H        4.3010400     0.1654310     0.5620470
  H       -2.5974020    -2.1351830     0.6479870
units angstrom
no_reorient  #important for SAPT in psi4, default
symmetry c1  #important for SAPT in psi4, default
}

set PROPERTIES_ORIGIN ["COM"]
properties('MP2/aug-cc-pvtz', properties = ['dipole'])
--------------------------------------------------------------------------

    Molecular point group: c1
  Charge       = 0
  Multiplicity = 1
  Basis Set: AUG-CC-PVTZ
    Blend: AUG-CC-PVTZ
  Basis Set: (AUG-CC-PVTZ AUX)
    Blend: AUG-CC-PVTZ-JKFIT

    Orbital Energies [Eh]
    ---------------------

    Doubly Occupied:

       1A    -20.621296     2A    -20.557555     3A    -20.521773
       4A    -15.589370     5A    -15.564419     6A    -11.396918
       7A    -11.357793     8A    -11.287654     9A    -11.247198
      10A    -11.245606    11A     -1.465539    12A     -1.375978
      13A     -1.363317    14A     -1.228042    15A     -1.212048
      16A     -1.056148    17A     -0.978800    18A     -0.871467
      19A     -0.819477    20A     -0.778637    21A     -0.734459
      22A     -0.715784    23A     -0.711234    24A     -0.681862
      25A     -0.652111    26A     -0.647907    27A     -0.643110
      28A     -0.615670    29A     -0.594881    30A     -0.588139
      31A     -0.554345    32A     -0.516950    33A     -0.505302
      34A     -0.492596    35A     -0.473374    36A     -0.464034
      37A     -0.428695    38A     -0.417797    39A     -0.381154

  @DF-RHF Final Energy:  -528.81888688535423

   => Energetics <=

    Nuclear Repulsion Energy =            545.1294716189213432
    One-Electron Energy =               -1805.1798384791381977
    Two-Electron Energy =                 731.2314799748626228
    Total Energy =                       -528.8188868853542317
  Basis Set: (AUG-CC-PVTZ AUX)
    Blend: AUG-CC-PVTZ-RI
    Molecular point group: c1

    Geometry (in Angstrom), charge = 0, multiplicity = 1:

       Center              X                  Y                   Z               Mass
    ------------   -----------------  -----------------  -----------------  -----------------
         O           -2.225702122447    -1.618734363859    -0.130616300317    15.994914619570
         O           -2.159852122447    -0.003058363859     1.457763699683    15.994914619570
         O            2.611061877553    -1.223263363859    -0.548952300317    15.994914619570
         N           -1.432112122447     1.926825636141    -0.483670300317    14.003074004430
         N            3.383607877553     0.502228636141     0.719999699683    14.003074004430
         C            0.124308877553     0.080398636141    -0.974857300317    12.000000000000
         C           -1.614143122447     0.589607936141    -0.859486600317    12.000000000000
         C            0.995666877553     0.396442636141     0.236153699683    12.000000000000
         C           -1.959232122447    -0.362458363859     0.307408699683    12.000000000000
         C            2.391839877553    -0.181896363859     0.068707699683    12.000000000000
         H            0.185934877553    -0.988746363859    -1.194626300317     1.007825032230
         H            0.504927877553     0.622310636141    -1.846298300317     1.007825032230
         H           -1.875922122447     0.296465636141    -1.712601300317     1.007825032230
         H            1.045485877553     1.479253636141     0.395002699683     1.007825032230
         H            0.570529877553    -0.040116363859     1.149784699683     1.007825032230
         H           -1.271456122447     2.048835636141     0.517069699683     1.007825032230
         H           -2.393047122447     2.234579636141    -0.632743300317     1.007825032230
         H            3.245904877553     1.451846636141     1.032601699683     1.007825032230
         H            4.333389877553     0.191334636141     0.561364699683     1.007825032230
         H           -2.565052122447    -2.109279363859     0.647304699683     1.007825032230

  Basis Set: AUG-CC-PVTZ
    Blend: AUG-CC-PVTZ
  Basis Set: (AUG-CC-PVTZ AUX)
    Blend: AUG-CC-PVTZ-JKFIT
	 Reference Energy          =    -528.8188868853542317 [Eh]
	 Singles Energy            =      -0.0000000000000000 [Eh]
	 Same-Spin Energy          =      -0.5303154929027616 [Eh]
	 Opposite-Spin Energy      =      -1.6405166991269882 [Eh]
	 Correlation Energy        =      -2.1708321920297498 [Eh]
	 Total Energy              =    -530.9897190773839384 [Eh]

	 ================> DF-SCS-MP2 Energies <==================
	-----------------------------------------------------------
	 SCS Same-Spin Scale       =       0.3333333333333333 [-]
	 SCS Opposite-Spin Scale   =       1.2000000000000000 [-]
	 SCS Same-Spin Energy      =      -0.1767718309675872 [Eh]
	 SCS Opposite-Spin Energy  =      -1.9686200389523858 [Eh]
	 SCS Correlation Energy    =      -2.1453918699199730 [Eh]
	 SCS Total Energy          =    -530.9642787552742220 [Eh]
	-----------------------------------------------------------

  Dipole Moment: [D]
     X:    -0.4653      Y:     2.2671      Z:     0.7315     Total:     2.4273

*** Psi4 exiting successfully. Buy a developer a beer!
