                               Psi4 1.3.2 release

  ==> Input File <==

--------------------------------------------------------------------------
#psi4
#
memory 32 gb

molecule  {
0 1
  O       -2.2580520    -1.6446380    -0.1299340
  O       -2.1922020    -0.0289620     1.4584460
  O        2.5787120    -1.2491670    -0.5482700
  N       -1.4644620     1.9009220    -0.4829880
  N        3.3512580     0.4763250     0.7206820
  C        0.0919590     0.0544950    -0.9741750
  C       -1.6007315     0.5486627    -0.8454014
  C        0.9633170     0.3705390     0.2368360
  C       -1.9915820    -0.3883620     0.3080910
  C        2.3594900    -0.2078000     0.0693900
  H        0.1535850    -1.0146500    -1.1939440
  H        0.4725780     0.5964070    -1.8456160
  H       -1.9082720     0.2705620    -1.7119190
  H        1.0131360     1.4533500     0.3956850
  H        0.5381800    -0.0660200     1.1504670
  H       -1.3038060     2.0229320     0.5177520
  H       -2.4253970     2.2086760    -0.6320610
  H        3.2135550     1.4259430     1.0332840
  H        4.3010400     0.1654310     0.5620470
  H       -2.5974020    -2.1351830     0.6479870
units angstrom
no_reorient  #important for SAPT in psi4, default
symmetry c1  #important for SAPT in psi4, default
}

set PROPERTIES_ORIGIN ["COM"]
properties('MP2/aug-cc-pvtz', properties = ['dipole'])
--------------------------------------------------------------------------

    Molecular point group: c1
  Charge       = 0
  Multiplicity = 1
  Basis Set: AUG-CC-PVTZ
    Blend: AUG-CC-PVTZ
  Basis Set: (AUG-CC-PVTZ AUX)
    Blend: AUG-CC-PVTZ-JKFIT

    Orbital Energies [Eh]
    ---------------------

    Doubly Occupied:

       1A    -20.622116     2A    -20.558488     3A    -20.521779
       4A    -15.589300     5A    -15.562953     6A    -11.396083
       7A    -11.357617     8A    -11.285880     9A    -11.246901
      10A    -11.244436    11A     -1.466373    12A     -1.375969
      13A     -1.364039    14A     -1.225003    15A     -1.211979
      16A     -1.057567    17A     -0.979360    18A     -0.873160
      19A     -0.816253    20A     -0.778389    21A     -0.734738
      22A     -0.715207    23A     -0.711690    24A     -0.682937
      25A     -0.652035    26A     -0.648545    27A     -0.635979
      28A     -0.614795    29A     -0.596083    30A     -0.588365
      31A     -0.554357    32A     -0.516227    33A     -0.505801
      34A     -0.494225    35A     -0.473163    36A     -0.467044
      37A     -0.428665    38A     -0.417854    39A     -0.390554

  @DF-RHF Final Energy:  -528.83986462161465

   => Energetics <=

    Nuclear Repulsion Energy =            545.7139689723966285
    One-Electron Energy =               -1806.3838526027666376
    Two-Electron Energy =                 731.8300190087552437
    Total Energy =                       -528.8398646216146517
  Basis Set: (AUG-CC-PVTZ AUX)
    Blend: AUG-CC-PVTZ-RI
    Molecular point group: c1

    Geometry (in Angstrom), charge = 0, multiplicity = 1:

       Center              X                  Y                   Z               Mass
    ------------   -----------------  -----------------  -----------------  -----------------
         O           -2.229461561242    -1.617498653173    -0.131717387087    15.994914619570
         O           -2.163611561242    -0.001822653173     1.456662612913    15.994914619570
         O            2.607302438758    -1.222027653173    -0.550053387087    15.994914619570
         N           -1.435871561242     1.928061346827    -0.484771387087    14.003074004430
         N            3.379848438758     0.503464346827     0.718898612913    14.003074004430
         C            0.120549438758     0.081634346827    -0.975958387087    12.000000000000
         C           -1.572141061242     0.575802046827    -0.847184787087    12.000000000000
         C            0.991907438758     0.397678346827     0.235052612913    12.000000000000
         C           -1.962991561242    -0.361222653173     0.306307612913    12.000000000000
         C            2.388080438758    -0.180660653173     0.067606612913    12.000000000000
         H            0.182175438758    -0.987510653173    -1.195727387087     1.007825032230
         H            0.501168438758     0.623546346827    -1.847399387087     1.007825032230
         H           -1.879681561242     0.297701346827    -1.713702387087     1.007825032230
         H            1.041726438758     1.480489346827     0.393901612913     1.007825032230
         H            0.566770438758    -0.038880653173     1.148683612913     1.007825032230
         H           -1.275215561242     2.050071346827     0.515968612913     1.007825032230
         H           -2.396806561242     2.235815346827    -0.633844387087     1.007825032230
         H            3.242145438758     1.453082346827     1.031500612913     1.007825032230
         H            4.329630438758     0.192570346827     0.560263612913     1.007825032230
         H           -2.568811561242    -2.108043653173     0.646203612913     1.007825032230

  Basis Set: AUG-CC-PVTZ
    Blend: AUG-CC-PVTZ
  Basis Set: (AUG-CC-PVTZ AUX)
    Blend: AUG-CC-PVTZ-JKFIT
	 Reference Energy          =    -528.8398646216146517 [Eh]
	 Singles Energy            =      -0.0000000000000000 [Eh]
	 Same-Spin Energy          =      -0.5295297511734296 [Eh]
	 Opposite-Spin Energy      =      -1.6388444031875491 [Eh]
	 Correlation Energy        =      -2.1683741543609787 [Eh]
	 Total Energy              =    -531.0082387759756557 [Eh]

	 ================> DF-SCS-MP2 Energies <==================
	-----------------------------------------------------------
	 SCS Same-Spin Scale       =       0.3333333333333333 [-]
	 SCS Opposite-Spin Scale   =       1.2000000000000000 [-]
	 SCS Same-Spin Energy      =      -0.1765099170578099 [Eh]
	 SCS Opposite-Spin Energy  =      -1.9666132838250587 [Eh]
	 SCS Correlation Energy    =      -2.1431232008828687 [Eh]
	 SCS Total Energy          =    -530.9829878224975346 [Eh]
	-----------------------------------------------------------

  Dipole Moment: [D]
     X:    -0.4811      Y:     2.2107      Z:     0.7509     Total:     2.3838

*** Psi4 exiting successfully. Buy a developer a beer!
