                               Psi4 1.3.2 release

  ==> Input File <==

--------------------------------------------------------------------------
#psi4
#
memory 32 gb

molecule  {
0 1
  O       -2.2580520    -1.6446380    -0.1299340
  O       -2.1922020    -0.0289620     1.4584460
  O        2.5787120    -1.2491670    -0.5482700
  N       -1.4644620     1.9009220    -0.4829880
  N        3.3512580     0.4763250     0.7206820
  C        0.0919590     0.0544950    -0.9741750
  C       -1.5549700     0.5336212    -0.8319985
  C        0.9633170     0.3705390     0.2368360
  C       -1.9915820    -0.3883620     0.3080910
  C        2.3594900    -0.2078000     0.0693900
  H        0.1535850    -1.0146500    -1.1939440
  H        0.4725780     0.5964070    -1.8456160
  H       -1.9082720     0.2705620    -1.7119190
  H        1.0131360     1.4533500     0.3956850
  H        0.5381800    -0.0660200     1.1504670
  H       -1.3038060     2.0229320     0.5177520
  H       -2.4253970     2.2086760    -0.6320610
  H        3.2135550     1.4259430     1.0332840
  H        4.3010400     0.1654310     0.5620470
  H       -2.5974020    -2.1351830     0.6479870
units angstrom
no_reorient  #important for SAPT in psi4, default
symmetry c1  #important for SAPT in psi4, default
}

set PROPERTIES_ORIGIN ["COM"]
properties('MP2/aug-cc-pvtz', properties = ['dipole'])
--------------------------------------------------------------------------

    Molecular point group: c1
  Charge       = 0
  Multiplicity = 1
  Basis Set: AUG-CC-PVTZ
    Blend: AUG-CC-PVTZ
  Basis Set: (AUG-CC-PVTZ AUX)
    Blend: AUG-CC-PVTZ-JKFIT

    Orbital Energies [Eh]
    ---------------------

    Doubly Occupied:

       1A    -20.622862     2A    -20.559355     3A    -20.521847
       4A    -15.589281     5A    -15.561626     6A    -11.395426
       7A    -11.357507     8A    -11.284694     9A    -11.246694
      10A    -11.243283    11A     -1.467133    12A     -1.376022
      13A     -1.364699    14A     -1.221752    15A     -1.211952
      16A     -1.059372    17A     -0.980044    18A     -0.875140
      19A     -0.813067    20A     -0.778171    21A     -0.734593
      22A     -0.714485    23A     -0.712050    24A     -0.684154
      25A     -0.652171    26A     -0.649401    27A     -0.629246
      28A     -0.612984    29A     -0.596813    30A     -0.588708
      31A     -0.554354    32A     -0.515340    33A     -0.506383
      34A     -0.496418    35A     -0.474508    36A     -0.468630
      37A     -0.428686    38A     -0.417997    39A     -0.398985

  @DF-RHF Final Energy:  -528.85790298167296

   => Energetics <=

    Nuclear Repulsion Energy =            546.2774931539743193
    One-Electron Energy =               -1807.5391299980310578
    Two-Electron Energy =                 732.4037338623837741
    Total Energy =                       -528.8579029816729644
  Basis Set: (AUG-CC-PVTZ AUX)
    Blend: AUG-CC-PVTZ-RI
    Molecular point group: c1

    Geometry (in Angstrom), charge = 0, multiplicity = 1:

       Center              X                  Y                   Z               Mass
    ------------   -----------------  -----------------  -----------------  -----------------
         O           -2.233221000038    -1.616262950701    -0.132818473857    15.994914619570
         O           -2.167371000038    -0.000586950701     1.455561526143    15.994914619570
         O            2.603542999962    -1.220791950701    -0.551154473857    15.994914619570
         N           -1.439631000038     1.929297049299    -0.485872473857    14.003074004430
         N            3.376088999962     0.504700049299     0.717797526143    14.003074004430
         C            0.116789999962     0.082870049299    -0.977059473857    12.000000000000
         C           -1.530139000038     0.561996249299    -0.834882973857    12.000000000000
         C            0.988147999962     0.398914049299     0.233951526143    12.000000000000
         C           -1.966751000038    -0.359986950701     0.305206526143    12.000000000000
         C            2.384320999962    -0.179424950701     0.066505526143    12.000000000000
         H            0.178415999962    -0.986274950701    -1.196828473857     1.007825032230
         H            0.497408999962     0.624782049299    -1.848500473857     1.007825032230
         H           -1.883441000038     0.298937049299    -1.714803473857     1.007825032230
         H            1.037966999962     1.481725049299     0.392800526143     1.007825032230
         H            0.563010999962    -0.037644950701     1.147582526143     1.007825032230
         H           -1.278975000038     2.051307049299     0.514867526143     1.007825032230
         H           -2.400566000038     2.237051049299    -0.634945473857     1.007825032230
         H            3.238385999962     1.454318049299     1.030399526143     1.007825032230
         H            4.325870999962     0.193806049299     0.559162526143     1.007825032230
         H           -2.572571000038    -2.106807950701     0.645102526143     1.007825032230

  Basis Set: AUG-CC-PVTZ
    Blend: AUG-CC-PVTZ
  Basis Set: (AUG-CC-PVTZ AUX)
    Blend: AUG-CC-PVTZ-JKFIT
	 Reference Energy          =    -528.8579029816729644 [Eh]
	 Singles Energy            =      -0.0000000000000000 [Eh]
	 Same-Spin Energy          =      -0.5288942354100991 [Eh]
	 Opposite-Spin Energy      =      -1.6375261036310227 [Eh]
	 Correlation Energy        =      -2.1664203390411219 [Eh]
	 Total Energy              =    -531.0243233207140747 [Eh]

	 ================> DF-SCS-MP2 Energies <==================
	-----------------------------------------------------------
	 SCS Same-Spin Scale       =       0.3333333333333333 [-]
	 SCS Opposite-Spin Scale   =       1.2000000000000000 [-]
	 SCS Same-Spin Energy      =      -0.1762980784700330 [Eh]
	 SCS Opposite-Spin Energy  =      -1.9650313243572270 [Eh]
	 SCS Correlation Energy    =      -2.1413294028272603 [Eh]
	 SCS Total Energy          =    -530.9992323845002602 [Eh]
	-----------------------------------------------------------

  Dipole Moment: [D]
     X:    -0.4852      Y:     2.1537      Z:     0.7710     Total:     2.3384

*** Psi4 exiting successfully. Buy a developer a beer!
