                               Psi4 1.3.2 release

  ==> Input File <==

--------------------------------------------------------------------------
#psi4
#
memory 32 gb

molecule  {
0 1
  O       -2.2580520    -1.6446380    -0.1299340
  O       -2.1922020    -0.0289620     1.4584460
  O        2.5787120    -1.2491670    -0.5482700
  N       -1.4644620     1.9009220    -0.4829880
  N        3.3512580     0.4763250     0.7206820
  C        0.0919590     0.0544950    -0.9741750
  C       -1.3719240     0.4734550    -0.7783870
  C        0.9418008     0.2889623     0.3608614
  C       -1.9915820    -0.3883620     0.3080910
  C        2.3594900    -0.2078000     0.0693900
  H        0.1535850    -1.0146500    -1.1939440
  H        0.4725780     0.5964070    -1.8456160
  H       -1.9082720     0.2705620    -1.7119190
  H        1.0131360     1.4533500     0.3956850
  H        0.5381800    -0.0660200     1.1504670
  H       -1.3038060     2.0229320     0.5177520
  H       -2.4253970     2.2086760    -0.6320610
  H        3.2135550     1.4259430     1.0332840
  H        4.3010400     0.1654310     0.5620470
  H       -2.5974020    -2.1351830     0.6479870
units angstrom
no_reorient  #important for SAPT in psi4, default
symmetry c1  #important for SAPT in psi4, default
}

set PROPERTIES_ORIGIN ["COM"]
properties('MP2/aug-cc-pvtz', properties = ['dipole'])
--------------------------------------------------------------------------

    Molecular point group: c1
  Charge       = 0
  Multiplicity = 1
  Basis Set: AUG-CC-PVTZ
    Blend: AUG-CC-PVTZ
  Basis Set: (AUG-CC-PVTZ AUX)
    Blend: AUG-CC-PVTZ-JKFIT

    Orbital Energies [Eh]
    ---------------------

    Doubly Occupied:

       1A    -20.625229     2A    -20.562434     3A    -20.523935
       4A    -15.590175     5A    -15.557054     6A    -11.395309
       7A    -11.358587     8A    -11.285211     9A    -11.244960
      10A    -11.242403    11A     -1.469616    12A     -1.377320
      13A     -1.367028    14A     -1.212706    15A     -1.206223
      16A     -1.064023    17A     -0.984470    18A     -0.885390
      19A     -0.804000    20A     -0.783857    21A     -0.734045
      22A     -0.716201    23A     -0.708936    24A     -0.684423
      25A     -0.661477    26A     -0.647940    27A     -0.621413
      28A     -0.607446    29A     -0.592441    30A     -0.577153
      31A     -0.554196    32A     -0.538722    33A     -0.511579
      34A     -0.487446    35A     -0.475088    36A     -0.464463
      37A     -0.428160    38A     -0.419753    39A     -0.416804

  @DF-RHF Final Energy:  -528.86451476026480

   => Energetics <=

    Nuclear Repulsion Energy =            547.8800474379290790
    One-Electron Energy =               -1810.7138900547918183
    Two-Electron Energy =                 733.9693278565979426
    Total Energy =                       -528.8645147602647967
  Basis Set: (AUG-CC-PVTZ AUX)
    Blend: AUG-CC-PVTZ-RI
    Molecular point group: c1

    Geometry (in Angstrom), charge = 0, multiplicity = 1:

       Center              X                  Y                   Z               Mass
    ------------   -----------------  -----------------  -----------------  -----------------
         O           -2.246491137529    -1.604618363936    -0.147411855923    15.994914619570
         O           -2.180641137529     0.011057636064     1.440968144077    15.994914619570
         O            2.590272862471    -1.209147363936    -0.565747855923    15.994914619570
         N           -1.452901137529     1.940941636064    -0.500465855923    14.003074004430
         N            3.362818862471     0.516344636064     0.703204144077    14.003074004430
         C            0.103519862471     0.094514636064    -0.991652855923    12.000000000000
         C           -1.360363137529     0.513474636064    -0.795864855923    12.000000000000
         C            0.953361662471     0.328981936064     0.343383544077    12.000000000000
         C           -1.980021137529    -0.348342363936     0.290613144077    12.000000000000
         C            2.371050862471    -0.167780363936     0.051912144077    12.000000000000
         H            0.165145862471    -0.974630363936    -1.211421855923     1.007825032230
         H            0.484138862471     0.636426636064    -1.863093855923     1.007825032230
         H           -1.896711137529     0.310581636064    -1.729396855923     1.007825032230
         H            1.024696862471     1.493369636064     0.378207144077     1.007825032230
         H            0.549740862471    -0.026000363936     1.132989144077     1.007825032230
         H           -1.292245137529     2.062951636064     0.500274144077     1.007825032230
         H           -2.413836137529     2.248695636064    -0.649538855923     1.007825032230
         H            3.225115862471     1.465962636064     1.015806144077     1.007825032230
         H            4.312600862471     0.205450636064     0.544569144077     1.007825032230
         H           -2.585841137529    -2.095163363936     0.630509144077     1.007825032230

  Basis Set: AUG-CC-PVTZ
    Blend: AUG-CC-PVTZ
  Basis Set: (AUG-CC-PVTZ AUX)
    Blend: AUG-CC-PVTZ-JKFIT
	 Reference Energy          =    -528.8645147602647967 [Eh]
	 Singles Energy            =      -0.0000000000000000 [Eh]
	 Same-Spin Energy          =      -0.5280310328793685 [Eh]
	 Opposite-Spin Energy      =      -1.6372048285608667 [Eh]
	 Correlation Energy        =      -2.1652358614402352 [Eh]
	 Total Energy              =    -531.0297506217050341 [Eh]

	 ================> DF-SCS-MP2 Energies <==================
	-----------------------------------------------------------
	 SCS Same-Spin Scale       =       0.3333333333333333 [-]
	 SCS Opposite-Spin Scale   =       1.2000000000000000 [-]
	 SCS Same-Spin Energy      =      -0.1760103442931228 [Eh]
	 SCS Opposite-Spin Energy  =      -1.9646457942730400 [Eh]
	 SCS Correlation Energy    =      -2.1406561385661629 [Eh]
	 SCS Total Energy          =    -531.0051708988310111 [Eh]
	-----------------------------------------------------------

  Dipole Moment: [D]
     X:    -0.3551      Y:     1.8332      Z:     0.8653     Total:     2.0580

*** Psi4 exiting successfully. Buy a developer a beer!
