                               Psi4 1.3.2 release

  ==> Input File <==

--------------------------------------------------------------------------
#psi4
#
memory 32 gb

molecule  {
0 1
  O       -2.2580520    -1.6446380    -0.1299340
  O       -2.1922020    -0.0289620     1.4584460
  O        2.5787120    -1.2491670    -0.5482700
  N       -1.4644620     1.9009220    -0.4829880
  N        3.3512580     0.4763250     0.7206820
  C        0.0919590     0.0544950    -0.9741750
  C       -1.3719240     0.4734550    -0.7783870
  C        0.9633170     0.3705390     0.2368360
  C       -1.9915820    -0.3883620     0.3080910
  C        2.3594900    -0.2078000     0.0693900
  H        0.1535850    -1.0146500    -1.1939440
  H        0.4725780     0.5964070    -1.8456160
  H       -1.9082720     0.2705620    -1.7119190
  H        1.0131360     1.4533500     0.3956850
  H        0.5381800    -0.0660200     1.1504670
  H       -1.3038060     2.0229320     0.5177520
  H       -2.4253970     2.2086760    -0.6320610
  H        3.2135550     1.4259430     1.0332840
  H        4.3423613     0.3001011     0.2971762
  H       -2.5974020    -2.1351830     0.6479870
units angstrom
no_reorient  #important for SAPT in psi4, default
symmetry c1  #important for SAPT in psi4, default
}

set PROPERTIES_ORIGIN ["COM"]
properties('MP2/aug-cc-pvtz', properties = ['dipole'])
--------------------------------------------------------------------------

    Molecular point group: c1
  Charge       = 0
  Multiplicity = 1
  Basis Set: AUG-CC-PVTZ
    Blend: AUG-CC-PVTZ
  Basis Set: (AUG-CC-PVTZ AUX)
    Blend: AUG-CC-PVTZ-JKFIT

    Orbital Energies [Eh]
    ---------------------

    Doubly Occupied:

       1A    -20.625422     2A    -20.562459     3A    -20.525022
       4A    -15.595598     5A    -15.558432     6A    -11.395550
       7A    -11.358003     8A    -11.286707     9A    -11.246768
      10A    -11.238693    11A     -1.469748    12A     -1.377827
      13A     -1.367065    14A     -1.209065    15A     -1.205959
      16A     -1.071365    17A     -0.983293    18A     -0.883959
      19A     -0.800896    20A     -0.777166    21A     -0.727697
      22A     -0.713595    23A     -0.701073    24A     -0.678576
      25A     -0.656579    26A     -0.650679    27A     -0.621271
      28A     -0.605282    29A     -0.589575    30A     -0.583287
      31A     -0.553929    32A     -0.521208    33A     -0.511041
      34A     -0.500461    35A     -0.487029    36A     -0.464754
      37A     -0.432679    38A     -0.421596    39A     -0.415894

  @DF-RHF Final Energy:  -528.88277595481088

   => Energetics <=

    Nuclear Repulsion Energy =            548.0772313242106293
    One-Electron Energy =               -1811.1696092865427090
    Two-Electron Energy =                 734.2096020075213119
    Total Energy =                       -528.8827759548108816
  Basis Set: (AUG-CC-PVTZ AUX)
    Blend: AUG-CC-PVTZ-RI
    Molecular point group: c1

    Geometry (in Angstrom), charge = 0, multiplicity = 1:

       Center              X                  Y                   Z               Mass
    ------------   -----------------  -----------------  -----------------  -----------------
         O           -2.248543857467    -1.612249300088    -0.135395298584    15.994914619570
         O           -2.182693857467     0.003426699912     1.452984701416    15.994914619570
         O            2.588220142533    -1.216778300088    -0.553731298584    15.994914619570
         N           -1.454953857467     1.933310699912    -0.488449298584    14.003074004430
         N            3.360766142533     0.508713699912     0.715220701416    14.003074004430
         C            0.101467142533     0.086883699912    -0.979636298584    12.000000000000
         C           -1.362415857467     0.505843699912    -0.783848298584    12.000000000000
         C            0.972825142533     0.402927699912     0.231374701416    12.000000000000
         C           -1.982073857467    -0.355973300088     0.302629701416    12.000000000000
         C            2.368998142533    -0.175411300088     0.063928701416    12.000000000000
         H            0.163093142533    -0.982261300088    -1.199405298584     1.007825032230
         H            0.482086142533     0.628795699912    -1.851077298584     1.007825032230
         H           -1.898763857467     0.302950699912    -1.717380298584     1.007825032230
         H            1.022644142533     1.485738699912     0.390223701416     1.007825032230
         H            0.547688142533    -0.033631300088     1.145005701416     1.007825032230
         H           -1.294297857467     2.055320699912     0.512290701416     1.007825032230
         H           -2.415888857467     2.241064699912    -0.637522298584     1.007825032230
         H            3.223063142533     1.458331699912     1.027822701416     1.007825032230
         H            4.351869442533     0.332489799912     0.291714901416     1.007825032230
         H           -2.587893857467    -2.102794300088     0.642525701416     1.007825032230

  Basis Set: AUG-CC-PVTZ
    Blend: AUG-CC-PVTZ
  Basis Set: (AUG-CC-PVTZ AUX)
    Blend: AUG-CC-PVTZ-JKFIT
	 Reference Energy          =    -528.8827759548108816 [Eh]
	 Singles Energy            =      -0.0000000000000000 [Eh]
	 Same-Spin Energy          =      -0.5285186280669290 [Eh]
	 Opposite-Spin Energy      =      -1.6374748302578426 [Eh]
	 Correlation Energy        =      -2.1659934583247713 [Eh]
	 Total Energy              =    -531.0487694131356875 [Eh]

	 ================> DF-SCS-MP2 Energies <==================
	-----------------------------------------------------------
	 SCS Same-Spin Scale       =       0.3333333333333333 [-]
	 SCS Opposite-Spin Scale   =       1.2000000000000000 [-]
	 SCS Same-Spin Energy      =      -0.1761728760223096 [Eh]
	 SCS Opposite-Spin Energy  =      -1.9649697963094110 [Eh]
	 SCS Correlation Energy    =      -2.1411426723317208 [Eh]
	 SCS Total Energy          =    -531.0239186271426206 [Eh]
	-----------------------------------------------------------

  Dipole Moment: [D]
     X:    -0.4828      Y:     2.0766      Z:     0.4781     Total:     2.1850

*** Psi4 exiting successfully. Buy a developer a beer!
