                               Psi4 1.3.2 release

  ==> Input File <==

--------------------------------------------------------------------------
#psi4
#
memory 32 gb

molecule  {
0 1
  O       -2.2580520    -1.6446380    -0.1299340
  O       -2.1922020    -0.0289620     1.4584460
  O        2.5787120    -1.2491670    -0.5482700
  N       -1.4644620     1.9009220    -0.4829880
  N        3.3512580     0.4763250     0.7206820
  C        0.0919590     0.0544950    -0.9741750
  C       -1.4634470     0.5035381    -0.8051928
  C        0.9633170     0.3705390     0.2368360
  C       -1.9915820    -0.3883620     0.3080910
  C        2.3594900    -0.2078000     0.0693900
  H        0.1535850    -1.0146500    -1.1939440
  H        0.4725780     0.5964070    -1.8456160
  H       -1.9082720     0.2705620    -1.7119190
  H        1.0131360     1.4533500     0.3956850
  H        0.5381800    -0.0660200     1.1504670
  H       -1.3038060     2.0229320     0.5177520
  H       -2.4253970     2.2086760    -0.6320610
  H        3.2135550     1.4259430     1.0332840
  H        4.3010400     0.1654310     0.5620470
  H       -2.5974020    -2.1351830     0.6479870
units angstrom
no_reorient  #important for SAPT in psi4, default
symmetry c1  #important for SAPT in psi4, default
}

set PROPERTIES_ORIGIN ["COM"]
properties('MP2/aug-cc-pvtz', properties = ['dipole'])
--------------------------------------------------------------------------

    Molecular point group: c1
  Charge       = 0
  Multiplicity = 1
  Basis Set: AUG-CC-PVTZ
    Blend: AUG-CC-PVTZ
  Basis Set: (AUG-CC-PVTZ AUX)
    Blend: AUG-CC-PVTZ-JKFIT

    Orbital Energies [Eh]
    ---------------------

    Doubly Occupied:

       1A    -20.624153     2A    -20.560906     3A    -20.522128
       4A    -15.589367     5A    -15.559495     6A    -11.394810
       7A    -11.357444     8A    -11.284228     9A    -11.246495
      10A    -11.240783    11A     -1.468451    12A     -1.376272
      13A     -1.365862    14A     -1.215068    15A     -1.211842
      16A     -1.064306    17A     -0.981762    18A     -0.879878
      19A     -0.807468    20A     -0.777811    21A     -0.733410
      22A     -0.713734    23A     -0.711059    24A     -0.686800
      25A     -0.653187    26A     -0.650740    27A     -0.622097
      28A     -0.606372    29A     -0.594574    30A     -0.589801
      31A     -0.554253    32A     -0.513505    33A     -0.508114
      34A     -0.502478    35A     -0.481057    36A     -0.467496
      37A     -0.428823    38A     -0.418663    39A     -0.411193

  @DF-RHF Final Energy:  -528.88328673935689

   => Energetics <=

    Nuclear Repulsion Energy =            547.3530779530416339
    One-Electron Energy =               -1809.7209559974589865
    Two-Electron Energy =                 733.4845913050605759
    Total Energy =                       -528.8832867393568904
  Basis Set: (AUG-CC-PVTZ AUX)
    Blend: AUG-CC-PVTZ-RI
    Molecular point group: c1

    Geometry (in Angstrom), charge = 0, multiplicity = 1:

       Center              X                  Y                   Z               Mass
    ------------   -----------------  -----------------  -----------------  -----------------
         O           -2.240739877629    -1.613791537543    -0.135020639182    15.994914619570
         O           -2.174889877629     0.001884462457     1.453359360818    15.994914619570
         O            2.596024122371    -1.218320537543    -0.553356639182    15.994914619570
         N           -1.447149877629     1.931768462457    -0.488074639182    14.003074004430
         N            3.368570122371     0.507171462457     0.715595360818    14.003074004430
         C            0.109271122371     0.085341462457    -0.979261639182    12.000000000000
         C           -1.446134877629     0.534384562457    -0.810279439182    12.000000000000
         C            0.980629122371     0.401385462457     0.231749360818    12.000000000000
         C           -1.974269877629    -0.357515537543     0.303004360818    12.000000000000
         C            2.376802122371    -0.176953537543     0.064303360818    12.000000000000
         H            0.170897122371    -0.983803537543    -1.199030639182     1.007825032230
         H            0.489890122371     0.627253462457    -1.850702639182     1.007825032230
         H           -1.890959877629     0.301408462457    -1.717005639182     1.007825032230
         H            1.030448122371     1.484196462457     0.390598360818     1.007825032230
         H            0.555492122371    -0.035173537543     1.145380360818     1.007825032230
         H           -1.286493877629     2.053778462457     0.512665360818     1.007825032230
         H           -2.408084877629     2.239522462457    -0.637147639182     1.007825032230
         H            3.230867122371     1.456789462457     1.028197360818     1.007825032230
         H            4.318352122371     0.196277462457     0.556960360818     1.007825032230
         H           -2.580089877629    -2.104336537543     0.642900360818     1.007825032230

  Basis Set: AUG-CC-PVTZ
    Blend: AUG-CC-PVTZ
  Basis Set: (AUG-CC-PVTZ AUX)
    Blend: AUG-CC-PVTZ-JKFIT
	 Reference Energy          =    -528.8832867393568904 [Eh]
	 Singles Energy            =      -0.0000000000000000 [Eh]
	 Same-Spin Energy          =      -0.5281133293302307 [Eh]
	 Opposite-Spin Energy      =      -1.6359804516956626 [Eh]
	 Correlation Energy        =      -2.1640937810258931 [Eh]
	 Total Energy              =    -531.0473805203828306 [Eh]

	 ================> DF-SCS-MP2 Energies <==================
	-----------------------------------------------------------
	 SCS Same-Spin Scale       =       0.3333333333333333 [-]
	 SCS Opposite-Spin Scale   =       1.2000000000000000 [-]
	 SCS Same-Spin Energy      =      -0.1760377764434102 [Eh]
	 SCS Opposite-Spin Energy  =      -1.9631765420347951 [Eh]
	 SCS Correlation Energy    =      -2.1392143184782055 [Eh]
	 SCS Total Energy          =    -531.0225010578351430 [Eh]
	-----------------------------------------------------------

  Dipole Moment: [D]
     X:    -0.4637      Y:     2.0410      Z:     0.8133     Total:     2.2455

*** Psi4 exiting successfully. Buy a developer a beer!
