                               Psi4 1.3.2 release

  ==> Input File <==

--------------------------------------------------------------------------
#psi4
#
memory 32 gb

molecule  {
0 1
  O       -2.2580520    -1.6446380    -0.1299340
  O       -2.1922020    -0.0289620     1.4584460
  O        2.5787120    -1.2491670    -0.5482700
  N       -1.4644620     1.9009220    -0.4829880
  N        3.3512580     0.4763250     0.7206820
  C        0.0919590     0.0544950    -0.9741750
  C       -1.3719240     0.4734550    -0.7783870
  C        0.9633170     0.3705390     0.2368360
  C       -1.9915820    -0.3883620     0.3080910
  C        2.3594900    -0.2078000     0.0693900
  H        0.1535850    -1.0146500    -1.1939440
  H        0.4725780     0.5964070    -1.8456160
  H       -1.9082720     0.2705620    -1.7119190
  H        1.0131360     1.4533500     0.3956850
  H        0.5381800    -0.0660200     1.1504670
  H       -1.3038060     2.0229320     0.5177520
  H       -2.4253970     2.2086760    -0.6320610
  H        3.2135550     1.4259430     1.0332840
  H        4.3217007     0.2327660     0.4296116
  H       -2.5974020    -2.1351830     0.6479870
units angstrom
no_reorient  #important for SAPT in psi4, default
symmetry c1  #important for SAPT in psi4, default
}

set PROPERTIES_ORIGIN ["COM"]
properties('MP2/aug-cc-pvtz', properties = ['dipole'])
--------------------------------------------------------------------------

    Molecular point group: c1
  Charge       = 0
  Multiplicity = 1
  Basis Set: AUG-CC-PVTZ
    Blend: AUG-CC-PVTZ
  Basis Set: (AUG-CC-PVTZ AUX)
    Blend: AUG-CC-PVTZ-JKFIT

    Orbital Energies [Eh]
    ---------------------

    Doubly Occupied:

       1A    -20.625288     2A    -20.562323     3A    -20.523699
       4A    -15.591993     5A    -15.558221     6A    -11.395398
       7A    -11.357776     8A    -11.286458     9A    -11.246658
      10A    -11.238240    11A     -1.469614    12A     -1.377295
      13A     -1.366934    14A     -1.210838    15A     -1.207592
      16A     -1.071426    17A     -0.983651    18A     -0.884848
      19A     -0.802333    20A     -0.777430    21A     -0.729603
      22A     -0.713839    23A     -0.704131    24A     -0.686168
      25A     -0.656276    26A     -0.651063    27A     -0.620906
      28A     -0.604610    29A     -0.590615    30A     -0.584629
      31A     -0.554438    32A     -0.521679    33A     -0.510321
      34A     -0.500723    35A     -0.486736    36A     -0.464528
      37A     -0.430800    38A     -0.420885    39A     -0.416032

  @DF-RHF Final Energy:  -528.88944909331587

   => Energetics <=

    Nuclear Repulsion Energy =            548.2687376816701317
    One-Electron Energy =               -1811.5443852986236379
    Two-Electron Energy =                 734.3861985236375176
    Total Energy =                       -528.8894490933158750
  Basis Set: (AUG-CC-PVTZ AUX)
    Blend: AUG-CC-PVTZ-RI
    Molecular point group: c1

    Geometry (in Angstrom), charge = 0, multiplicity = 1:

       Center              X                  Y                   Z               Mass
    ------------   -----------------  -----------------  -----------------  -----------------
         O           -2.248401306689    -1.611784711891    -0.136309055653    15.994914619570
         O           -2.182551306689     0.003891288109     1.452070944347    15.994914619570
         O            2.588362693311    -1.216313711891    -0.554645055653    15.994914619570
         N           -1.454811306689     1.933775288109    -0.489363055653    14.003074004430
         N            3.360908693311     0.509178288109     0.714306944347    14.003074004430
         C            0.101609693311     0.087348288109    -0.980550055653    12.000000000000
         C           -1.362273306689     0.506308288109    -0.784762055653    12.000000000000
         C            0.972967693311     0.403392288109     0.230460944347    12.000000000000
         C           -1.981931306689    -0.355508711891     0.301715944347    12.000000000000
         C            2.369140693311    -0.174946711891     0.063014944347    12.000000000000
         H            0.163235693311    -0.981796711891    -1.200319055653     1.007825032230
         H            0.482228693311     0.629260288109    -1.851991055653     1.007825032230
         H           -1.898621306689     0.303415288109    -1.718294055653     1.007825032230
         H            1.022786693311     1.486203288109     0.389309944347     1.007825032230
         H            0.547830693311    -0.033166711891     1.144091944347     1.007825032230
         H           -1.294155306689     2.055785288109     0.511376944347     1.007825032230
         H           -2.415746306689     2.241529288109    -0.638436055653     1.007825032230
         H            3.223205693311     1.458796288109     1.026908944347     1.007825032230
         H            4.331351393311     0.265619288109     0.423236544347     1.007825032230
         H           -2.587751306689    -2.102329711891     0.641611944347     1.007825032230

  Basis Set: AUG-CC-PVTZ
    Blend: AUG-CC-PVTZ
  Basis Set: (AUG-CC-PVTZ AUX)
    Blend: AUG-CC-PVTZ-JKFIT
	 Reference Energy          =    -528.8894490933158750 [Eh]
	 Singles Energy            =      -0.0000000000000000 [Eh]
	 Same-Spin Energy          =      -0.5282137836190973 [Eh]
	 Opposite-Spin Energy      =      -1.6364789695384605 [Eh]
	 Correlation Energy        =      -2.1646927531575577 [Eh]
	 Total Energy              =    -531.0541418464733852 [Eh]

	 ================> DF-SCS-MP2 Energies <==================
	-----------------------------------------------------------
	 SCS Same-Spin Scale       =       0.3333333333333333 [-]
	 SCS Opposite-Spin Scale   =       1.2000000000000000 [-]
	 SCS Same-Spin Energy      =      -0.1760712612063658 [Eh]
	 SCS Opposite-Spin Energy  =      -1.9637747634461524 [Eh]
	 SCS Correlation Energy    =      -2.1398460246525182 [Eh]
	 SCS Total Energy          =    -531.0292951179684451 [Eh]
	-----------------------------------------------------------

  Dipole Moment: [D]
     X:    -0.4332      Y:     2.0092      Z:     0.6652     Total:     2.1604

*** Psi4 exiting successfully. Buy a developer a beer!
