                               Psi4 1.3.2 release

  ==> Input File <==

--------------------------------------------------------------------------
#psi4
#
memory 32 gb

molecule  {
0 1
  O       -2.2580520    -1.6446380    -0.1299340
  O       -2.1922020    -0.0289620     1.4584460
  O        2.5787120    -1.2491670    -0.5482700
  N       -1.4644620     1.9009220    -0.4829880
  N        3.3512580     0.4763250     0.7206820
  C        0.0919590     0.0544950    -0.9741750
  C       -1.3719240     0.4734550    -0.7783870
  C        0.9633170     0.3705390     0.2368360
  C       -1.9915820    -0.3883620     0.3080910
  C        2.3594900    -0.2078000     0.0693900
  H        0.1535850    -1.0146500    -1.1939440
  H        0.4725780     0.5964070    -1.8456160
  H       -1.9082720     0.2705620    -1.7119190
  H        1.0131360     1.4533500     0.3956850
  H        0.5381800    -0.0660200     1.1504670
  H       -1.3038060     2.0229320     0.5177520
  H       -2.4253970     2.2086760    -0.6320610
  H        3.2135550     1.4259430     1.0332840
  H        4.3079269     0.1878760     0.5179019
  H       -2.5974020    -2.1351830     0.6479870
units angstrom
no_reorient  #important for SAPT in psi4, default
symmetry c1  #important for SAPT in psi4, default
}

set PROPERTIES_ORIGIN ["COM"]
properties('MP2/aug-cc-pvtz', properties = ['dipole'])
--------------------------------------------------------------------------

    Molecular point group: c1
  Charge       = 0
  Multiplicity = 1
  Basis Set: AUG-CC-PVTZ
    Blend: AUG-CC-PVTZ
  Basis Set: (AUG-CC-PVTZ AUX)
    Blend: AUG-CC-PVTZ-JKFIT

    Orbital Energies [Eh]
    ---------------------

    Doubly Occupied:

       1A    -20.625219     2A    -20.562254     3A    -20.522928
       4A    -15.590255     5A    -15.558093     6A    -11.395317
       7A    -11.357648     8A    -11.286302     9A    -11.246625
      10A    -11.237938    11A     -1.469545    12A     -1.376909
      13A     -1.366868    14A     -1.212241    15A     -1.207678
      16A     -1.071417    17A     -0.983812    18A     -0.885305
      19A     -0.803165    20A     -0.777553    21A     -0.731194
      22A     -0.714163    23A     -0.706285    24A     -0.688712
      25A     -0.655982    26A     -0.651062    27A     -0.620661
      28A     -0.604143    29A     -0.591373    30A     -0.585016
      31A     -0.554429    32A     -0.521938    33A     -0.509821
      34A     -0.500758    35A     -0.486536    36A     -0.464396
      37A     -0.429614    38A     -0.420323    39A     -0.416162

  @DF-RHF Final Energy:  -528.89129532796892

   => Energetics <=

    Nuclear Repulsion Energy =            548.3540887865859759
    One-Electron Energy =               -1811.7114871073624727
    Two-Electron Energy =                 734.4661029928076914
    Total Energy =                       -528.8912953279689191
  Basis Set: (AUG-CC-PVTZ AUX)
    Blend: AUG-CC-PVTZ-RI
    Molecular point group: c1

    Geometry (in Angstrom), charge = 0, multiplicity = 1:

       Center              X                  Y                   Z               Mass
    ------------   -----------------  -----------------  -----------------  -----------------
         O           -2.248306272377    -1.611474986887    -0.136918227263    15.994914619570
         O           -2.182456272377     0.004201013113     1.451461772737    15.994914619570
         O            2.588457727623    -1.216003986887    -0.555254227263    15.994914619570
         N           -1.454716272377     1.934085013113    -0.489972227263    14.003074004430
         N            3.361003727623     0.509488013113     0.713697772737    14.003074004430
         C            0.101704727623     0.087658013113    -0.981159227263    12.000000000000
         C           -1.362178272377     0.506618013113    -0.785371227263    12.000000000000
         C            0.973062727623     0.403702013113     0.229851772737    12.000000000000
         C           -1.981836272377    -0.355198986887     0.301106772737    12.000000000000
         C            2.369235727623    -0.174636986887     0.062405772737    12.000000000000
         H            0.163330727623    -0.981486986887    -1.200928227263     1.007825032230
         H            0.482323727623     0.629570013113    -1.852600227263     1.007825032230
         H           -1.898526272377     0.303725013113    -1.718903227263     1.007825032230
         H            1.022881727623     1.486513013113     0.388700772737     1.007825032230
         H            0.547925727623    -0.032856986887     1.143482772737     1.007825032230
         H           -1.294060272377     2.056095013113     0.510767772737     1.007825032230
         H           -2.415651272377     2.241839013113    -0.639045227263     1.007825032230
         H            3.223300727623     1.459106013113     1.026299772737     1.007825032230
         H            4.317672627623     0.221039013113     0.510917672737     1.007825032230
         H           -2.587656272377    -2.102019986887     0.641002772737     1.007825032230

  Basis Set: AUG-CC-PVTZ
    Blend: AUG-CC-PVTZ
  Basis Set: (AUG-CC-PVTZ AUX)
    Blend: AUG-CC-PVTZ-JKFIT
	 Reference Energy          =    -528.8912953279689191 [Eh]
	 Singles Energy            =      -0.0000000000000000 [Eh]
	 Same-Spin Energy          =      -0.5280880722013999 [Eh]
	 Opposite-Spin Energy      =      -1.6360582957712761 [Eh]
	 Correlation Energy        =      -2.1641463679726760 [Eh]
	 Total Energy              =    -531.0554416959415676 [Eh]

	 ================> DF-SCS-MP2 Energies <==================
	-----------------------------------------------------------
	 SCS Same-Spin Scale       =       0.3333333333333333 [-]
	 SCS Opposite-Spin Scale   =       1.2000000000000000 [-]
	 SCS Same-Spin Energy      =      -0.1760293574004666 [Eh]
	 SCS Opposite-Spin Energy  =      -1.9632699549255312 [Eh]
	 SCS Correlation Energy    =      -2.1392993123259978 [Eh]
	 SCS Total Energy          =    -531.0305946402949075 [Eh]
	-----------------------------------------------------------

  Dipole Moment: [D]
     X:    -0.4114      Y:     1.9584      Z:     0.7943     Total:     2.1530

*** Psi4 exiting successfully. Buy a developer a beer!
