                               Psi4 1.4a2.dev612

  ==> Input File <==

--------------------------------------------------------------------------
#psi4
#
memory 32 gb

molecule  {
0 1
  I        1.5544000     0.0000000    -0.0000560
  C       -0.5574020     0.0000000     0.0000200
  C       -1.2475700    -1.2180840     0.0000490
  C       -1.2475790     1.2180831    -0.2499600
  C       -2.6465850    -1.2090920     0.0000990
  C       -2.6465850     1.2090920     0.0000900
  C       -3.3492890     0.0000000     0.0001200
  H       -0.7049610    -2.1578320     0.0000340
  H       -0.7049610     2.1578320     0.0000170
  H       -3.1840510    -2.1533320     0.0001220
  H       -3.1840510     2.1533320     0.0001050
  H       -4.4351490     0.0000000     0.0001590
units angstrom
no_reorient  #important for SAPT in psi4, default
symmetry c1  #important for SAPT in psi4, default
}

set PROPERTIES_ORIGIN ["COM"]
properties('MP2/aug-cc-pvtz', properties = ['dipole'])
--------------------------------------------------------------------------

    Molecular point group: c1
  Charge       = 0
  Multiplicity = 1
  Basis Set: AUG-CC-PVTZ
    Blend: AUG-CC-PVTZ
  Basis Set: (AUG-CC-PVTZ AUX)
    Blend: AUG-CC-PVTZ-JKFIT + DEF2-UNIVERSAL-JKFIT

    Orbital Energies [Eh]
    ---------------------

    Doubly Occupied:

       1A    -11.300437     2A    -11.261391     3A    -11.258207
       4A    -11.256661     5A    -11.255438     6A    -11.250765
       7A     -7.721576     8A     -5.553339     9A     -5.543649
      10A     -5.543620    11A     -2.282997    12A     -2.278043
      13A     -2.277997    14A     -2.267241    15A     -2.267235
      16A     -1.164589    17A     -1.036189    18A     -1.027943
      19A     -0.898953    20A     -0.841029    21A     -0.805098
      22A     -0.702933    23A     -0.640624    24A     -0.634734
      25A     -0.598867    26A     -0.562213    27A     -0.524171
      28A     -0.507300    29A     -0.459963    30A     -0.401250
      31A     -0.371344    32A     -0.351464    33A     -0.325252

  @DF-RHF Final Energy:  -524.83363871367033

   => Energetics <=

    Nuclear Repulsion Energy =            350.6671843877920764
    One-Electron Energy =               -1520.6566285118183259
    Two-Electron Energy =                 645.1558054103559243
    Total Energy =                       -524.8336387136703252
  Basis Set: (AUG-CC-PVTZ AUX)
    Blend: AUG-CC-PVTZ-RI + DEF2-QZVPP-RI
    Molecular point group: c1

    Geometry (in Angstrom), charge = 0, multiplicity = 1:

       Center              X                  Y                   Z               Mass
    ------------   -----------------  -----------------  -----------------  -----------------
         I            1.335655943840     0.000000052956     0.014662041038   126.904471900000
         C           -0.776146056160     0.000000052956     0.014738041038    12.000000000000
         C           -1.466314056160    -1.218083947044     0.014767041038    12.000000000000
         C           -1.466323056160     1.218083152956    -0.235241958962    12.000000000000
         C           -2.865329056160    -1.209091947044     0.014817041038    12.000000000000
         C           -2.865329056160     1.209092052956     0.014808041038    12.000000000000
         C           -3.568033056160     0.000000052956     0.014838041038    12.000000000000
         H           -0.923705056160    -2.157831947044     0.014752041038     1.007825032230
         H           -0.923705056160     2.157832052956     0.014735041038     1.007825032230
         H           -3.402795056160    -2.153331947044     0.014840041038     1.007825032230
         H           -3.402795056160     2.153332052956     0.014823041038     1.007825032230
         H           -4.653893056160     0.000000052956     0.014877041038     1.007825032230

  Basis Set: AUG-CC-PVTZ
    Blend: AUG-CC-PVTZ
  Basis Set: (AUG-CC-PVTZ AUX)
    Blend: AUG-CC-PVTZ-JKFIT + DEF2-UNIVERSAL-JKFIT
	 Reference Energy          =    -524.8336387136703252 [Eh]
	 Singles Energy            =      -0.0000000000000000 [Eh]
	 Same-Spin Energy          =      -0.3384324040842592 [Eh]
	 Opposite-Spin Energy      =      -0.9897667680219355 [Eh]
	 Correlation Energy        =      -1.3281991721061948 [Eh]
	 Total Energy              =    -526.1618378857765492 [Eh]

	 ================> DF-SCS-MP2 Energies <==================
	-----------------------------------------------------------
	 SCS Same-Spin Scale       =       0.3333333333333333 [-]
	 SCS Opposite-Spin Scale   =       1.2000000000000000 [-]
	 SCS Same-Spin Energy      =      -0.1128108013614197 [Eh]
	 SCS Opposite-Spin Energy  =      -1.1877201216263227 [Eh]
	 SCS Correlation Energy    =      -1.3005309229877424 [Eh]
	 SCS Total Energy          =    -526.1341696366580436 [Eh]
	-----------------------------------------------------------

  Dipole Moment: [D]
     X:    -1.7192      Y:    -0.1067      Z:     0.1080     Total:     1.7259

*** Psi4 exiting successfully. Buy a developer a beer!
