                               Psi4 1.4a2.dev612

  ==> Input File <==

--------------------------------------------------------------------------
#psi4
#
memory 32 gb

molecule  {
0 1
  I        1.5544000     0.0000000    -0.0000560
  C       -0.5574020     0.0000000     0.0000200
  C       -1.2475700    -1.2180840     0.0000490
  C       -1.2475772     1.2180833    -0.1999600
  C       -2.6465850    -1.2090920     0.0000990
  C       -2.6465850     1.2090920     0.0000900
  C       -3.3492890     0.0000000     0.0001200
  H       -0.7049610    -2.1578320     0.0000340
  H       -0.7049610     2.1578320     0.0000170
  H       -3.1840510    -2.1533320     0.0001220
  H       -3.1840510     2.1533320     0.0001050
  H       -4.4351490     0.0000000     0.0001590
units angstrom
no_reorient  #important for SAPT in psi4, default
symmetry c1  #important for SAPT in psi4, default
}

set PROPERTIES_ORIGIN ["COM"]
properties('MP2/aug-cc-pvtz', properties = ['dipole'])
--------------------------------------------------------------------------

    Molecular point group: c1
  Charge       = 0
  Multiplicity = 1
  Basis Set: AUG-CC-PVTZ
    Blend: AUG-CC-PVTZ
  Basis Set: (AUG-CC-PVTZ AUX)
    Blend: AUG-CC-PVTZ-JKFIT + DEF2-UNIVERSAL-JKFIT

    Orbital Energies [Eh]
    ---------------------

    Doubly Occupied:

       1A    -11.298686     2A    -11.259674     3A    -11.256349
       4A    -11.256306     5A    -11.254769     6A    -11.250870
       7A     -7.721540     8A     -5.553303     9A     -5.543619
      10A     -5.543579    11A     -2.282960    12A     -2.278001
      13A     -2.277968    14A     -2.267205    15A     -2.267199
      16A     -1.165286    17A     -1.036382    18A     -1.028911
      19A     -0.899087    20A     -0.841553    21A     -0.806158
      22A     -0.704148    23A     -0.640691    24A     -0.636626
      25A     -0.600428    26A     -0.562617    27A     -0.524375
      28A     -0.509645    29A     -0.459983    30A     -0.401745
      31A     -0.371451    32A     -0.351508    33A     -0.325473

  @DF-RHF Final Energy:  -524.84073164195274

   => Energetics <=

    Nuclear Repulsion Energy =            350.9198500025774479
    One-Electron Energy =               -1521.1649758615612882
    Two-Electron Energy =                 645.4043942170310402
    Total Energy =                       -524.8407316419527433
  Basis Set: (AUG-CC-PVTZ AUX)
    Blend: AUG-CC-PVTZ-RI + DEF2-QZVPP-RI
    Molecular point group: c1

    Geometry (in Angstrom), charge = 0, multiplicity = 1:

       Center              X                  Y                   Z               Mass
    ------------   -----------------  -----------------  -----------------  -----------------
         I            1.335655837928     0.000000041188     0.011720051151   126.904471900000
         C           -0.776146162072     0.000000041188     0.011796051151    12.000000000000
         C           -1.466314162072    -1.218083958812     0.011825051151    12.000000000000
         C           -1.466321362072     1.218083341188    -0.188183948849    12.000000000000
         C           -2.865329162072    -1.209091958812     0.011875051151    12.000000000000
         C           -2.865329162072     1.209092041188     0.011866051151    12.000000000000
         C           -3.568033162072     0.000000041188     0.011896051151    12.000000000000
         H           -0.923705162072    -2.157831958812     0.011810051151     1.007825032230
         H           -0.923705162072     2.157832041188     0.011793051151     1.007825032230
         H           -3.402795162072    -2.153331958812     0.011898051151     1.007825032230
         H           -3.402795162072     2.153332041188     0.011881051151     1.007825032230
         H           -4.653893162072     0.000000041188     0.011935051151     1.007825032230

  Basis Set: AUG-CC-PVTZ
    Blend: AUG-CC-PVTZ
  Basis Set: (AUG-CC-PVTZ AUX)
    Blend: AUG-CC-PVTZ-JKFIT + DEF2-UNIVERSAL-JKFIT
	 Reference Energy          =    -524.8407316419527433 [Eh]
	 Singles Energy            =      -0.0000000000000000 [Eh]
	 Same-Spin Energy          =      -0.3380707238433935 [Eh]
	 Opposite-Spin Energy      =      -0.9886828038035439 [Eh]
	 Correlation Energy        =      -1.3267535276469373 [Eh]
	 Total Energy              =    -526.1674851695996722 [Eh]

	 ================> DF-SCS-MP2 Energies <==================
	-----------------------------------------------------------
	 SCS Same-Spin Scale       =       0.3333333333333333 [-]
	 SCS Opposite-Spin Scale   =       1.2000000000000000 [-]
	 SCS Same-Spin Energy      =      -0.1126902412811312 [Eh]
	 SCS Opposite-Spin Energy  =      -1.1864193645642527 [Eh]
	 SCS Correlation Energy    =      -1.2991096058453839 [Eh]
	 SCS Total Energy          =    -526.1398412477981310 [Eh]
	-----------------------------------------------------------

  Dipole Moment: [D]
     X:    -1.6928      Y:    -0.0688      Z:     0.0845     Total:     1.6963

*** Psi4 exiting successfully. Buy a developer a beer!
