                               Psi4 1.4a2.dev612

  ==> Input File <==

--------------------------------------------------------------------------
#psi4
#
memory 32 gb

molecule  {
0 1
  I        1.5544000     0.0000000    -0.0000560
  C       -0.5574020     0.0000000     0.0000200
  C       -1.2475700    -1.2180840     0.0000490
  C       -1.2475718     1.2180838    -0.0499600
  C       -2.6465850    -1.2090920     0.0000990
  C       -2.6465850     1.2090920     0.0000900
  C       -3.3492890     0.0000000     0.0001200
  H       -0.7049610    -2.1578320     0.0000340
  H       -0.7049610     2.1578320     0.0000170
  H       -3.1840510    -2.1533320     0.0001220
  H       -3.1840510     2.1533320     0.0001050
  H       -4.4351490     0.0000000     0.0001590
units angstrom
no_reorient  #important for SAPT in psi4, default
symmetry c1  #important for SAPT in psi4, default
}

set PROPERTIES_ORIGIN ["COM"]
properties('MP2/aug-cc-pvtz', properties = ['dipole'])
--------------------------------------------------------------------------

    Molecular point group: c1
  Charge       = 0
  Multiplicity = 1
  Basis Set: AUG-CC-PVTZ
    Blend: AUG-CC-PVTZ
  Basis Set: (AUG-CC-PVTZ AUX)
    Blend: AUG-CC-PVTZ-JKFIT + DEF2-UNIVERSAL-JKFIT

    Orbital Energies [Eh]
    ---------------------

    Doubly Occupied:

       1A    -11.295693     2A    -11.256689     3A    -11.256462
       4A    -11.253339     5A    -11.252983     6A    -11.250979
       7A     -7.721496     8A     -5.553261     9A     -5.543589
      10A     -5.543524    11A     -2.282914    12A     -2.277954
      13A     -2.277930    14A     -2.267161    15A     -2.267155
      16A     -1.166541    17A     -1.036826    18A     -1.030458
      19A     -0.899320    20A     -0.842529    21A     -0.808096
      22A     -0.706576    23A     -0.641029    24A     -0.639776
      25A     -0.603156    26A     -0.563185    27A     -0.524717
      28A     -0.513478    29A     -0.459964    30A     -0.402648
      31A     -0.371632    32A     -0.351689    33A     -0.325885

  @DF-RHF Final Energy:  -524.85238630280230

   => Energetics <=

    Nuclear Repulsion Energy =            351.3491298490426402
    One-Electron Energy =               -1522.0257661534701583
    Two-Electron Energy =                 645.8242500016252734
    Total Energy =                       -524.8523863028023015
  Basis Set: (AUG-CC-PVTZ AUX)
    Blend: AUG-CC-PVTZ-RI + DEF2-QZVPP-RI
    Molecular point group: c1

    Geometry (in Angstrom), charge = 0, multiplicity = 1:

       Center              X                  Y                   Z               Mass
    ------------   -----------------  -----------------  -----------------  -----------------
         I            1.335655520194     0.000000011768     0.002894081491   126.904471900000
         C           -0.776146479806     0.000000011768     0.002970081491    12.000000000000
         C           -1.466314479806    -1.218083988232     0.002999081491    12.000000000000
         C           -1.466316279806     1.218083811768    -0.047009918509    12.000000000000
         C           -2.865329479806    -1.209091988232     0.003049081491    12.000000000000
         C           -2.865329479806     1.209092011768     0.003040081491    12.000000000000
         C           -3.568033479806     0.000000011768     0.003070081491    12.000000000000
         H           -0.923705479806    -2.157831988232     0.002984081491     1.007825032230
         H           -0.923705479806     2.157832011768     0.002967081491     1.007825032230
         H           -3.402795479806    -2.153331988232     0.003072081491     1.007825032230
         H           -3.402795479806     2.153332011768     0.003055081491     1.007825032230
         H           -4.653893479806     0.000000011768     0.003109081491     1.007825032230

  Basis Set: AUG-CC-PVTZ
    Blend: AUG-CC-PVTZ
  Basis Set: (AUG-CC-PVTZ AUX)
    Blend: AUG-CC-PVTZ-JKFIT + DEF2-UNIVERSAL-JKFIT
	 Reference Energy          =    -524.8523863028023015 [Eh]
	 Singles Energy            =      -0.0000000000000000 [Eh]
	 Same-Spin Energy          =      -0.3374386661097425 [Eh]
	 Opposite-Spin Energy      =      -0.9867790088797919 [Eh]
	 Correlation Energy        =      -1.3242176749895345 [Eh]
	 Total Energy              =    -526.1766039777918422 [Eh]

	 ================> DF-SCS-MP2 Energies <==================
	-----------------------------------------------------------
	 SCS Same-Spin Scale       =       0.3333333333333333 [-]
	 SCS Opposite-Spin Scale   =       1.2000000000000000 [-]
	 SCS Same-Spin Energy      =      -0.1124795553699142 [Eh]
	 SCS Opposite-Spin Energy  =      -1.1841348106557501 [Eh]
	 SCS Correlation Energy    =      -1.2966143660256644 [Eh]
	 SCS Total Energy          =    -526.1490006688279664 [Eh]
	-----------------------------------------------------------

  Dipole Moment: [D]
     X:    -1.6479      Y:    -0.0045      Z:     0.0202     Total:     1.6480

*** Psi4 exiting successfully. Buy a developer a beer!
