                               Psi4 1.4a2.dev612

  ==> Input File <==

--------------------------------------------------------------------------
#psi4
#
memory 32 gb

molecule  {
0 1
  I        1.5544000     0.0000000    -0.0000560
  C       -0.5574020     0.0000000     0.0000200
  C       -1.2475700    -1.2180840     0.0000490
  C       -1.2475736     1.2180836    -0.0999600
  C       -2.6465850    -1.2090920     0.0000990
  C       -2.6465850     1.2090920     0.0000900
  C       -3.3492890     0.0000000     0.0001200
  H       -0.7049610    -2.1578320     0.0000340
  H       -0.7049610     2.1578320     0.0000170
  H       -3.1840510    -2.1533320     0.0001220
  H       -3.1840510     2.1533320     0.0001050
  H       -4.4351490     0.0000000     0.0001590
units angstrom
no_reorient  #important for SAPT in psi4, default
symmetry c1  #important for SAPT in psi4, default
}

set PROPERTIES_ORIGIN ["COM"]
properties('MP2/aug-cc-pvtz', properties = ['dipole'])
--------------------------------------------------------------------------

    Molecular point group: c1
  Charge       = 0
  Multiplicity = 1
  Basis Set: AUG-CC-PVTZ
    Blend: AUG-CC-PVTZ
  Basis Set: (AUG-CC-PVTZ AUX)
    Blend: AUG-CC-PVTZ-JKFIT + DEF2-UNIVERSAL-JKFIT

    Orbital Energies [Eh]
    ---------------------

    Doubly Occupied:

       1A    -11.296292     2A    -11.257290     3A    -11.256403
       4A    -11.253858     5A    -11.253398     6A    -11.250974
       7A     -7.721500     8A     -5.553264     9A     -5.543590
      10A     -5.543530    11A     -2.282918    12A     -2.277957
      13A     -2.277934    14A     -2.267165    15A     -2.267159
      16A     -1.166275    17A     -1.036718    18A     -1.030150
      19A     -0.899268    20A     -0.842317    21A     -0.807686
      22A     -0.706041    23A     -0.640914    24A     -0.639160
      25A     -0.602596    26A     -0.563076    27A     -0.524647
      28A     -0.512714    29A     -0.459969    30A     -0.402456
      31A     -0.371593    32A     -0.351637    33A     -0.325794

  @DF-RHF Final Energy:  -524.85007984582785

   => Energetics <=

    Nuclear Repulsion Energy =            351.2624381040733397
    One-Electron Energy =               -1521.8525537935615830
    Two-Electron Energy =                 645.7400358436605075
    Total Energy =                       -524.8500798458278496
  Basis Set: (AUG-CC-PVTZ AUX)
    Blend: AUG-CC-PVTZ-RI + DEF2-QZVPP-RI
    Molecular point group: c1

    Geometry (in Angstrom), charge = 0, multiplicity = 1:

       Center              X                  Y                   Z               Mass
    ------------   -----------------  -----------------  -----------------  -----------------
         I            1.335655626105     0.000000023536     0.005836071378   126.904471900000
         C           -0.776146373895     0.000000023536     0.005912071378    12.000000000000
         C           -1.466314373895    -1.218083976464     0.005941071378    12.000000000000
         C           -1.466317973895     1.218083623536    -0.094067928622    12.000000000000
         C           -2.865329373895    -1.209091976464     0.005991071378    12.000000000000
         C           -2.865329373895     1.209092023536     0.005982071378    12.000000000000
         C           -3.568033373895     0.000000023536     0.006012071378    12.000000000000
         H           -0.923705373895    -2.157831976464     0.005926071378     1.007825032230
         H           -0.923705373895     2.157832023536     0.005909071378     1.007825032230
         H           -3.402795373895    -2.153331976464     0.006014071378     1.007825032230
         H           -3.402795373895     2.153332023536     0.005997071378     1.007825032230
         H           -4.653893373895     0.000000023536     0.006051071378     1.007825032230

  Basis Set: AUG-CC-PVTZ
    Blend: AUG-CC-PVTZ
  Basis Set: (AUG-CC-PVTZ AUX)
    Blend: AUG-CC-PVTZ-JKFIT + DEF2-UNIVERSAL-JKFIT
	 Reference Energy          =    -524.8500798458278496 [Eh]
	 Singles Energy            =      -0.0000000000000000 [Eh]
	 Same-Spin Energy          =      -0.3375688845923460 [Eh]
	 Opposite-Spin Energy      =      -0.9871793869805437 [Eh]
	 Correlation Energy        =      -1.3247482715728898 [Eh]
	 Total Energy              =    -526.1748281174006934 [Eh]

	 ================> DF-SCS-MP2 Energies <==================
	-----------------------------------------------------------
	 SCS Same-Spin Scale       =       0.3333333333333333 [-]
	 SCS Opposite-Spin Scale   =       1.2000000000000000 [-]
	 SCS Same-Spin Energy      =      -0.1125229615307820 [Eh]
	 SCS Opposite-Spin Energy  =      -1.1846152643766525 [Eh]
	 SCS Correlation Energy    =      -1.2971382259074344 [Eh]
	 SCS Total Energy          =    -526.1472180717353240 [Eh]
	-----------------------------------------------------------

  Dipole Moment: [D]
     X:    -1.6570      Y:    -0.0175      Z:     0.0408     Total:     1.6576

*** Psi4 exiting successfully. Buy a developer a beer!
