                               Psi4 1.4a2.dev612

  ==> Input File <==

--------------------------------------------------------------------------
#psi4
#
memory 32 gb

molecule  {
0 1
  I        1.5544000     0.0000000    -0.0000560
  C       -0.5574020     0.0000000     0.0000200
  C       -1.2475700    -1.2180840     0.0000490
  C       -1.2475754     1.2180834    -0.1499600
  C       -2.6465850    -1.2090920     0.0000990
  C       -2.6465850     1.2090920     0.0000900
  C       -3.3492890     0.0000000     0.0001200
  H       -0.7049610    -2.1578320     0.0000340
  H       -0.7049610     2.1578320     0.0000170
  H       -3.1840510    -2.1533320     0.0001220
  H       -3.1840510     2.1533320     0.0001050
  H       -4.4351490     0.0000000     0.0001590
units angstrom
no_reorient  #important for SAPT in psi4, default
symmetry c1  #important for SAPT in psi4, default
}

set PROPERTIES_ORIGIN ["COM"]
properties('MP2/aug-cc-pvtz', properties = ['dipole'])
--------------------------------------------------------------------------

    Molecular point group: c1
  Charge       = 0
  Multiplicity = 1
  Basis Set: AUG-CC-PVTZ
    Blend: AUG-CC-PVTZ
  Basis Set: (AUG-CC-PVTZ AUX)
    Blend: AUG-CC-PVTZ-JKFIT + DEF2-UNIVERSAL-JKFIT

    Orbital Energies [Eh]
    ---------------------

    Doubly Occupied:

       1A    -11.297296     2A    -11.258295     3A    -11.256335
       4A    -11.254871     5A    -11.253997     6A    -11.250942
       7A     -7.721515     8A     -5.553279     9A     -5.543600
      10A     -5.543549    11A     -2.282933    12A     -2.277972
      13A     -2.277947    14A     -2.267179    15A     -2.267173
      16A     -1.165853    17A     -1.036565    18A     -1.029641
      19A     -0.899191    20A     -0.841988    21A     -0.807032
      22A     -0.705211    23A     -0.640794    24A     -0.638108
      25A     -0.601683    26A     -0.562894    27A     -0.524532
      28A     -0.511443    29A     -0.459980    30A     -0.402151
      31A     -0.371533    32A     -0.351572    33A     -0.325655

  @DF-RHF Final Energy:  -524.84620303408963

   => Energetics <=

    Nuclear Repulsion Energy =            351.1188881067658940
    One-Electron Energy =               -1521.5647635117668415
    Two-Electron Energy =                 645.5996723709114349
    Total Energy =                       -524.8462030340896263
  Basis Set: (AUG-CC-PVTZ AUX)
    Blend: AUG-CC-PVTZ-RI + DEF2-QZVPP-RI
    Molecular point group: c1

    Geometry (in Angstrom), charge = 0, multiplicity = 1:

       Center              X                  Y                   Z               Mass
    ------------   -----------------  -----------------  -----------------  -----------------
         I            1.335655732017     0.000000035304     0.008778061264   126.904471900000
         C           -0.776146267983     0.000000035304     0.008854061264    12.000000000000
         C           -1.466314267983    -1.218083964696     0.008883061264    12.000000000000
         C           -1.466319667983     1.218083435304    -0.141125938736    12.000000000000
         C           -2.865329267983    -1.209091964696     0.008933061264    12.000000000000
         C           -2.865329267983     1.209092035304     0.008924061264    12.000000000000
         C           -3.568033267983     0.000000035304     0.008954061264    12.000000000000
         H           -0.923705267983    -2.157831964696     0.008868061264     1.007825032230
         H           -0.923705267983     2.157832035304     0.008851061264     1.007825032230
         H           -3.402795267983    -2.153331964696     0.008956061264     1.007825032230
         H           -3.402795267983     2.153332035304     0.008939061264     1.007825032230
         H           -4.653893267983     0.000000035304     0.008993061264     1.007825032230

  Basis Set: AUG-CC-PVTZ
    Blend: AUG-CC-PVTZ
  Basis Set: (AUG-CC-PVTZ AUX)
    Blend: AUG-CC-PVTZ-JKFIT + DEF2-UNIVERSAL-JKFIT
	 Reference Energy          =    -524.8462030340896263 [Eh]
	 Singles Energy            =      -0.0000000000000000 [Eh]
	 Same-Spin Energy          =      -0.3377811694504453 [Eh]
	 Opposite-Spin Energy      =      -0.9878174015536354 [Eh]
	 Correlation Energy        =      -1.3255985710040807 [Eh]
	 Total Energy              =    -526.1718016050937194 [Eh]

	 ================> DF-SCS-MP2 Energies <==================
	-----------------------------------------------------------
	 SCS Same-Spin Scale       =       0.3333333333333333 [-]
	 SCS Opposite-Spin Scale   =       1.2000000000000000 [-]
	 SCS Same-Spin Energy      =      -0.1125937231501484 [Eh]
	 SCS Opposite-Spin Energy  =      -1.1853808818643625 [Eh]
	 SCS Correlation Energy    =      -1.2979746050145109 [Eh]
	 SCS Total Energy          =    -526.1441776391041003 [Eh]
	-----------------------------------------------------------

  Dipole Moment: [D]
     X:    -1.6720      Y:    -0.0390      Z:     0.0621     Total:     1.6736

*** Psi4 exiting successfully. Buy a developer a beer!
