                               Psi4 1.4a2.dev612

  ==> Input File <==

--------------------------------------------------------------------------
#psi4
#
memory 32 gb

molecule  {
0 1
  I        1.5544000     0.0000000    -0.0000560
  C       -0.5574020     0.0000000     0.0000200
  C       -1.2475700    -1.2180840     0.0000490
  C       -1.2475808     1.2180829    -0.2999600
  C       -2.6465850    -1.2090920     0.0000990
  C       -2.6465850     1.2090920     0.0000900
  C       -3.3492890     0.0000000     0.0001200
  H       -0.7049610    -2.1578320     0.0000340
  H       -0.7049610     2.1578320     0.0000170
  H       -3.1840510    -2.1533320     0.0001220
  H       -3.1840510     2.1533320     0.0001050
  H       -4.4351490     0.0000000     0.0001590
units angstrom
no_reorient  #important for SAPT in psi4, default
symmetry c1  #important for SAPT in psi4, default
}

set PROPERTIES_ORIGIN ["COM"]
properties('MP2/aug-cc-pvtz', properties = ['dipole'])
--------------------------------------------------------------------------

    Molecular point group: c1
  Charge       = 0
  Multiplicity = 1
  Basis Set: AUG-CC-PVTZ
    Blend: AUG-CC-PVTZ
  Basis Set: (AUG-CC-PVTZ AUX)
    Blend: AUG-CC-PVTZ-JKFIT + DEF2-UNIVERSAL-JKFIT

    Orbital Energies [Eh]
    ---------------------

    Doubly Occupied:

       1A    -11.302521     2A    -11.263408     3A    -11.260442
       4A    -11.257820     5A    -11.255571     6A    -11.250644
       7A     -7.721624     8A     -5.553386     9A     -5.543695
      10A     -5.543667    11A     -2.283046    12A     -2.278099
      13A     -2.278034    14A     -2.267288    15A     -2.267283
      16A     -1.163785    17A     -1.036006    18A     -1.026719
      19A     -0.898787    20A     -0.840430    21A     -0.803892
      22A     -0.701657    23A     -0.640616    24A     -0.632458
      25A     -0.597063    26A     -0.561641    27A     -0.523909
      28A     -0.504383    29A     -0.459897    30A     -0.400683
      31A     -0.371210    32A     -0.351464    33A     -0.325000

  @DF-RHF Final Energy:  -524.82490070906317

   => Energetics <=

    Nuclear Repulsion Energy =            350.3631744695551902
    One-Electron Energy =               -1520.0439051215162181
    Two-Electron Energy =                 644.8558299428979126
    Total Energy =                       -524.8249007090631721
  Basis Set: (AUG-CC-PVTZ AUX)
    Blend: AUG-CC-PVTZ-RI + DEF2-QZVPP-RI
    Molecular point group: c1

    Geometry (in Angstrom), charge = 0, multiplicity = 1:

       Center              X                  Y                   Z               Mass
    ------------   -----------------  -----------------  -----------------  -----------------
         I            1.335656049752     0.000000064724     0.017604030924   126.904471900000
         C           -0.776145950248     0.000000064724     0.017680030924    12.000000000000
         C           -1.466313950248    -1.218083935276     0.017709030924    12.000000000000
         C           -1.466324750248     1.218082964724    -0.282299969076    12.000000000000
         C           -2.865328950248    -1.209091935276     0.017759030924    12.000000000000
         C           -2.865328950248     1.209092064724     0.017750030924    12.000000000000
         C           -3.568032950248     0.000000064724     0.017780030924    12.000000000000
         H           -0.923704950248    -2.157831935276     0.017694030924     1.007825032230
         H           -0.923704950248     2.157832064724     0.017677030924     1.007825032230
         H           -3.402794950248    -2.153331935276     0.017782030924     1.007825032230
         H           -3.402794950248     2.153332064724     0.017765030924     1.007825032230
         H           -4.653892950248     0.000000064724     0.017819030924     1.007825032230

  Basis Set: AUG-CC-PVTZ
    Blend: AUG-CC-PVTZ
  Basis Set: (AUG-CC-PVTZ AUX)
    Blend: AUG-CC-PVTZ-JKFIT + DEF2-UNIVERSAL-JKFIT
	 Reference Energy          =    -524.8249007090631721 [Eh]
	 Singles Energy            =      -0.0000000000000000 [Eh]
	 Same-Spin Energy          =      -0.3388602704110054 [Eh]
	 Opposite-Spin Energy      =      -0.9910614617861245 [Eh]
	 Correlation Energy        =      -1.3299217321971299 [Eh]
	 Total Energy              =    -526.1548224412603076 [Eh]

	 ================> DF-SCS-MP2 Energies <==================
	-----------------------------------------------------------
	 SCS Same-Spin Scale       =       0.3333333333333333 [-]
	 SCS Opposite-Spin Scale   =       1.2000000000000000 [-]
	 SCS Same-Spin Energy      =      -0.1129534234703351 [Eh]
	 SCS Opposite-Spin Energy  =      -1.1892737541433493 [Eh]
	 SCS Correlation Energy    =      -1.3022271776136845 [Eh]
	 SCS Total Energy          =    -526.1271278866768171 [Eh]
	-----------------------------------------------------------

  Dipole Moment: [D]
     X:    -1.7510      Y:    -0.1522      Z:     0.1323     Total:     1.7625

*** Psi4 exiting successfully. Buy a developer a beer!
