                               Psi4 1.3.2 release

  ==> Input File <==

--------------------------------------------------------------------------
#psi4
#
memory 32 gb

molecule  {
0 1
  O        0.8562401     2.5102719    -0.6692901
  N        2.0463840     0.6978680     0.1749460
  C        0.7564320    -1.5550710    -0.8733250
  C        1.8157710    -1.7711630     0.2163790
  C       -0.4497480    -0.7926040    -0.3845090
  C        2.0266990    -0.4897580     1.0228720
  C       -0.3650830     0.5850230    -0.0943830
  C        0.9119250     1.3593610    -0.2260870
  C       -1.6913630    -1.4231620    -0.2398970
  C       -1.5035900     1.3035830     0.2885800
  C       -2.8212120    -0.7143780     0.1714760
  C       -2.7281430     0.6547360     0.4326570
  H        0.4383490    -2.5216720    -1.2799980
  H        1.2165960    -1.0011160    -1.6986390
  H        1.5065410    -2.5704870     0.9013410
  H        2.7543720    -2.0878480    -0.2534440
  H        1.2290340    -0.3883270     1.7666860
  H        2.9729880    -0.5259550     1.5704730
  H        2.8793190     1.2773810     0.1528780
  H       -1.7755450    -2.4842720    -0.4701710
  H       -1.4080790     2.3720960     0.4641940
  H       -3.7741480    -1.2278540     0.2772780
  H       -3.6082280     1.2145190     0.7397060
units angstrom
no_reorient  #important for SAPT in psi4, default
symmetry c1  #important for SAPT in psi4, default
}

set PROPERTIES_ORIGIN ["COM"]
properties('MP2/aug-cc-pvtz', properties = ['dipole'])
--------------------------------------------------------------------------

    Molecular point group: c1
  Charge       = 0
  Multiplicity = 1
  Basis Set: AUG-CC-PVTZ
    Blend: AUG-CC-PVTZ
  Basis Set: (AUG-CC-PVTZ AUX)
    Blend: AUG-CC-PVTZ-JKFIT

    Orbital Energies [Eh]
    ---------------------

    Doubly Occupied:

       1A    -20.516553     2A    -15.587378     3A    -11.352238
       4A    -11.278090     5A    -11.255675     6A    -11.246541
       7A    -11.244010     8A    -11.242650     9A    -11.239905
      10A    -11.239085    11A    -11.238448    12A    -11.237890
      13A     -1.369244    14A     -1.239443    15A     -1.162194
      16A     -1.082125    17A     -1.034441    18A     -1.019791
      19A     -0.938818    20A     -0.880523    21A     -0.840609
      22A     -0.797370    23A     -0.776457    24A     -0.697145
      25A     -0.686604    26A     -0.671380    27A     -0.652632
      28A     -0.622218    29A     -0.617042    30A     -0.598714
      31A     -0.587240    32A     -0.576261    33A     -0.556840
      34A     -0.535869    35A     -0.518517    36A     -0.508341
      37A     -0.492533    38A     -0.489040    39A     -0.477678
      40A     -0.423017    41A     -0.393278    42A     -0.340683
      43A     -0.334276

  @DF-RHF Final Energy:  -514.59504484153410

   => Energetics <=

    Nuclear Repulsion Energy =            685.5645887544276320
    One-Electron Energy =               -2059.1216990319358047
    Two-Electron Energy =                 858.9620654359740684
    Total Energy =                       -514.5950448415341043
  Basis Set: (AUG-CC-PVTZ AUX)
    Blend: AUG-CC-PVTZ-RI
    Molecular point group: c1

    Geometry (in Angstrom), charge = 0, multiplicity = 1:

       Center              X                  Y                   Z               Mass
    ------------   -----------------  -----------------  -----------------  -----------------
         O            0.879695970241     2.461868647985    -0.654993133157    15.994914619570
         N            2.069839870241     0.649464747985     0.189242966843    14.003074004430
         C            0.779887870241    -1.603474252015    -0.859028033157    12.000000000000
         C            1.839226870241    -1.819566252015     0.230675966843    12.000000000000
         C           -0.426292129759    -0.841007252015    -0.370212033157    12.000000000000
         C            2.050154870241    -0.538161252015     1.037168966843    12.000000000000
         C           -0.341627129759     0.536619747985    -0.080086033157    12.000000000000
         C            0.935380870241     1.310957747985    -0.211790033157    12.000000000000
         C           -1.667907129759    -1.471565252015    -0.225600033157    12.000000000000
         C           -1.480134129759     1.255179747985     0.302876966843    12.000000000000
         C           -2.797756129759    -0.762781252015     0.185772966843    12.000000000000
         C           -2.704687129759     0.606332747985     0.446953966843    12.000000000000
         H            0.461804870241    -2.570075252015    -1.265701033157     1.007825032230
         H            1.240051870241    -1.049519252015    -1.684342033157     1.007825032230
         H            1.529996870241    -2.618890252015     0.915637966843     1.007825032230
         H            2.777827870241    -2.136251252015    -0.239147033157     1.007825032230
         H            1.252489870241    -0.436730252015     1.780982966843     1.007825032230
         H            2.996443870241    -0.574358252015     1.584769966843     1.007825032230
         H            2.902774870241     1.228977747985     0.167174966843     1.007825032230
         H           -1.752089129759    -2.532675252015    -0.455874033157     1.007825032230
         H           -1.384623129759     2.323692747985     0.478490966843     1.007825032230
         H           -3.750692129759    -1.276257252015     0.291574966843     1.007825032230
         H           -3.584772129759     1.166115747985     0.754002966843     1.007825032230

  Basis Set: AUG-CC-PVTZ
    Blend: AUG-CC-PVTZ
  Basis Set: (AUG-CC-PVTZ AUX)
    Blend: AUG-CC-PVTZ-JKFIT
	 Reference Energy          =    -514.5950448415341043 [Eh]
	 Singles Energy            =      -0.0000000000000000 [Eh]
	 Same-Spin Energy          =      -0.5588139868198972 [Eh]
	 Opposite-Spin Energy      =      -1.7446572412089381 [Eh]
	 Correlation Energy        =      -2.3034712280288354 [Eh]
	 Total Energy              =    -516.8985160695629020 [Eh]

	 ================> DF-SCS-MP2 Energies <==================
	-----------------------------------------------------------
	 SCS Same-Spin Scale       =       0.3333333333333333 [-]
	 SCS Opposite-Spin Scale   =       1.2000000000000000 [-]
	 SCS Same-Spin Energy      =      -0.1862713289399657 [Eh]
	 SCS Opposite-Spin Energy  =      -2.0935886894507254 [Eh]
	 SCS Correlation Energy    =      -2.2798600183906910 [Eh]
	 SCS Total Energy          =    -516.8749048599247544 [Eh]
	-----------------------------------------------------------

  Dipole Moment: [D]
     X:     0.9111      Y:    -3.5521      Z:     1.7906     Total:     4.0809

*** Psi4 exiting successfully. Buy a developer a beer!
