                               Psi4 1.4a3.dev225

  ==> Input File <==

--------------------------------------------------------------------------
#psi4
#
memory 32 gb

molecule  {
0 1
  O        0.9417500     2.5148810    -0.6596880
  N        2.0463840     0.6978680     0.1749460
  C        0.7564320    -1.5550710    -0.8733250
  C        1.8157710    -1.7711630     0.2163790
  C       -0.4497480    -0.7926040    -0.3845090
  C        2.0266990    -0.4897580     1.0228720
  C       -0.3650830     0.5850230    -0.0943830
  C        0.9289605     1.3696908    -0.2278440
  C       -1.6913630    -1.4231620    -0.2398970
  C       -1.5035900     1.3035830     0.2885800
  C       -2.8212120    -0.7143780     0.1714760
  C       -2.7281430     0.6547360     0.4326570
  H        0.4383490    -2.5216720    -1.2799980
  H        1.2165960    -1.0011160    -1.6986390
  H        1.5065410    -2.5704870     0.9013410
  H        2.7543720    -2.0878480    -0.2534440
  H        1.2290340    -0.3883270     1.7666860
  H        2.9729880    -0.5259550     1.5704730
  H        2.8793190     1.2773810     0.1528780
  H       -1.7755450    -2.4842720    -0.4701710
  H       -1.4080790     2.3720960     0.4641940
  H       -3.7741480    -1.2278540     0.2772780
  H       -3.6082280     1.2145190     0.7397060
units angstrom
no_reorient  #important for SAPT in psi4, default
symmetry c1  #important for SAPT in psi4, default
}

set PROPERTIES_ORIGIN ["COM"]
properties('MP2/aug-cc-pvtz', properties = ['dipole'])
--------------------------------------------------------------------------

    Molecular point group: c1
  Charge       = 0
  Multiplicity = 1
  Basis Set: AUG-CC-PVTZ
    Blend: AUG-CC-PVTZ
  Basis Set: (AUG-CC-PVTZ AUX)
    Blend: AUG-CC-PVTZ-JKFIT

    Orbital Energies [Eh]
    ---------------------

    Doubly Occupied:

       1A    -20.516380     2A    -15.583587     3A    -11.351007
       4A    -11.276869     5A    -11.256659     6A    -11.247277
       7A    -11.246710     8A    -11.244053     9A    -11.240800
      10A    -11.238981    11A    -11.238875    12A    -11.238058
      13A     -1.375882    14A     -1.238494    15A     -1.162791
      16A     -1.082310    17A     -1.033872    18A     -1.020260
      19A     -0.938895    20A     -0.878738    21A     -0.840870
      22A     -0.797515    23A     -0.776217    24A     -0.695430
      25A     -0.686936    26A     -0.671492    27A     -0.653016
      28A     -0.623382    29A     -0.616675    30A     -0.599430
      31A     -0.588579    32A     -0.576241    33A     -0.558339
      34A     -0.535758    35A     -0.519289    36A     -0.509562
      37A     -0.492689    38A     -0.489705    39A     -0.478402
      40A     -0.422656    41A     -0.391728    42A     -0.342546
      43A     -0.335064

  @DF-RHF Final Energy:  -514.59742921733334

   => Energetics <=

    Nuclear Repulsion Energy =            685.0138469624516802
    One-Electron Energy =               -2057.9985146076110141
    Two-Electron Energy =                 858.3872384278259915
    Total Energy =                       -514.5974292173333424
  Basis Set: (AUG-CC-PVTZ AUX)
    Blend: AUG-CC-PVTZ-RI
    Molecular point group: c1

    Geometry (in Angstrom), charge = 0, multiplicity = 1:

       Center              X                  Y                   Z               Mass
    ------------   -----------------  -----------------  -----------------  -----------------
         O            0.955446062159     2.465250564140    -0.646213589817    15.994914619570
         N            2.060080062159     0.648237564140     0.188420410183    14.003074004430
         C            0.770128062159    -1.604701435860    -0.859850589817    12.000000000000
         C            1.829467062159    -1.820793435860     0.229853410183    12.000000000000
         C           -0.436051937841    -0.842234435860    -0.371034589817    12.000000000000
         C            2.040395062159    -0.539388435860     1.036346410183    12.000000000000
         C           -0.351386937841     0.535392564140    -0.080908589817    12.000000000000
         C            0.942656562159     1.320060364140    -0.214369589817    12.000000000000
         C           -1.677666937841    -1.472792435860    -0.226422589817    12.000000000000
         C           -1.489893937841     1.253952564140     0.302054410183    12.000000000000
         C           -2.807515937841    -0.764008435860     0.184950410183    12.000000000000
         C           -2.714446937841     0.605105564140     0.446131410183    12.000000000000
         H            0.452045062159    -2.571302435860    -1.266523589817     1.007825032230
         H            1.230292062159    -1.050746435860    -1.685164589817     1.007825032230
         H            1.520237062159    -2.620117435860     0.914815410183     1.007825032230
         H            2.768068062159    -2.137478435860    -0.239969589817     1.007825032230
         H            1.242730062159    -0.437957435860     1.780160410183     1.007825032230
         H            2.986684062159    -0.575585435860     1.583947410183     1.007825032230
         H            2.893015062159     1.227750564140     0.166352410183     1.007825032230
         H           -1.761848937841    -2.533902435860    -0.456696589817     1.007825032230
         H           -1.394382937841     2.322465564140     0.477668410183     1.007825032230
         H           -3.760451937841    -1.277484435860     0.290752410183     1.007825032230
         H           -3.594531937841     1.164888564140     0.753180410183     1.007825032230

  Basis Set: AUG-CC-PVTZ
    Blend: AUG-CC-PVTZ
  Basis Set: (AUG-CC-PVTZ AUX)
    Blend: AUG-CC-PVTZ-JKFIT
	 Reference Energy          =    -514.5974292173333424 [Eh]
	 Singles Energy            =      -0.0000000000000000 [Eh]
	 Same-Spin Energy          =      -0.5583076724928724 [Eh]
	 Opposite-Spin Energy      =      -1.7436952988831775 [Eh]
	 Correlation Energy        =      -2.3020029713760497 [Eh]
	 Total Energy              =    -516.8994321887093975 [Eh]

	 ================> DF-SCS-MP2 Energies <==================
	-----------------------------------------------------------
	 SCS Same-Spin Scale       =       0.3333333333333333 [-]
	 SCS Opposite-Spin Scale   =       1.2000000000000000 [-]
	 SCS Same-Spin Energy      =      -0.1861025574976241 [Eh]
	 SCS Opposite-Spin Energy  =      -2.0924343586598129 [Eh]
	 SCS Correlation Energy    =      -2.2785369161574369 [Eh]
	 SCS Total Energy          =    -516.8759661334908060 [Eh]
	-----------------------------------------------------------

  Dipole Moment: [D]
     X:     0.7485      Y:    -3.5594      Z:     1.7659     Total:     4.0433

*** Psi4 exiting successfully. Buy a developer a beer!
