                               Psi4 1.3.2 release

  ==> Input File <==

--------------------------------------------------------------------------
#psi4
#
memory 32 gb

molecule  {
0 1
  O        0.9417500     2.5148810    -0.6596880
  N        2.0463840     0.6978680     0.1749460
  C        0.7564320    -1.5550710    -0.8733250
  C        1.8157710    -1.7711630     0.2163790
  C       -0.4497480    -0.7926040    -0.3845090
  C        2.1284093    -0.4909737     1.0174118
  C       -0.3650830     0.5850230    -0.0943830
  C        0.9119250     1.3593610    -0.2260870
  C       -1.6913630    -1.4231620    -0.2398970
  C       -1.5035900     1.3035830     0.2885800
  C       -2.8212120    -0.7143780     0.1714760
  C       -2.7281430     0.6547360     0.4326570
  H        0.4383490    -2.5216720    -1.2799980
  H        1.2165960    -1.0011160    -1.6986390
  H        1.5065410    -2.5704870     0.9013410
  H        2.7543720    -2.0878480    -0.2534440
  H        1.2290340    -0.3883270     1.7666860
  H        2.9729880    -0.5259550     1.5704730
  H        2.8793190     1.2773810     0.1528780
  H       -1.7755450    -2.4842720    -0.4701710
  H       -1.4080790     2.3720960     0.4641940
  H       -3.7741480    -1.2278540     0.2772780
  H       -3.6082280     1.2145190     0.7397060
units angstrom
no_reorient  #important for SAPT in psi4, default
symmetry c1  #important for SAPT in psi4, default
}

set PROPERTIES_ORIGIN ["COM"]
properties('MP2/aug-cc-pvtz', properties = ['dipole'])
--------------------------------------------------------------------------

    Molecular point group: c1
  Charge       = 0
  Multiplicity = 1
  Basis Set: AUG-CC-PVTZ
    Blend: AUG-CC-PVTZ
  Basis Set: (AUG-CC-PVTZ AUX)
    Blend: AUG-CC-PVTZ-JKFIT

    Orbital Energies [Eh]
    ---------------------

    Doubly Occupied:

       1A    -20.515920     2A    -15.583288     3A    -11.353709
       4A    -11.277230     5A    -11.258322     6A    -11.248677
       7A    -11.247092     8A    -11.245377     9A    -11.241515
      10A    -11.240859    11A    -11.239568    12A    -11.238993
      13A     -1.369536    14A     -1.234055    15A     -1.164137
      16A     -1.080906    17A     -1.037412    18A     -1.020485
      19A     -0.941123    20A     -0.883596    21A     -0.840301
      22A     -0.798667    23A     -0.774634    24A     -0.699144
      25A     -0.689078    26A     -0.669499    27A     -0.658142
      28A     -0.623124    29A     -0.616821    30A     -0.599796
      31A     -0.587116    32A     -0.571937    33A     -0.557342
      34A     -0.538857    35A     -0.511884    36A     -0.510137
      37A     -0.498496    38A     -0.489703    39A     -0.474539
      40A     -0.424895    41A     -0.384333    42A     -0.343703
      43A     -0.335788

  @DF-RHF Final Energy:  -514.58437763005895

   => Energetics <=

    Nuclear Repulsion Energy =            683.9480510311723265
    One-Electron Energy =               -2055.8253891941162692
    Two-Electron Energy =                 857.2929605328849902
    Total Energy =                       -514.5843776300589525
  Basis Set: (AUG-CC-PVTZ AUX)
    Blend: AUG-CC-PVTZ-RI
    Molecular point group: c1

    Geometry (in Angstrom), charge = 0, multiplicity = 1:

       Center              X                  Y                   Z               Mass
    ------------   -----------------  -----------------  -----------------  -----------------
         O            0.949138190511     2.466110649220    -0.645937718952    15.994914619570
         N            2.053772190511     0.649097649220     0.188696281048    14.003074004430
         C            0.763820190511    -1.603841350780    -0.859574718952    12.000000000000
         C            1.823159190511    -1.819933350780     0.230129281048    12.000000000000
         C           -0.442359809489    -0.841374350780    -0.370758718952    12.000000000000
         C            2.135797490511    -0.539744050780     1.031162081048    12.000000000000
         C           -0.357694809489     0.536252649220    -0.080632718952    12.000000000000
         C            0.919313190511     1.310590649220    -0.212336718952    12.000000000000
         C           -1.683974809489    -1.471932350780    -0.226146718952    12.000000000000
         C           -1.496201809489     1.254812649220     0.302330281048    12.000000000000
         C           -2.813823809489    -0.763148350780     0.185226281048    12.000000000000
         C           -2.720754809489     0.605965649220     0.446407281048    12.000000000000
         H            0.445737190511    -2.570442350780    -1.266247718952     1.007825032230
         H            1.223984190511    -1.049886350780    -1.684888718952     1.007825032230
         H            1.513929190511    -2.619257350780     0.915091281048     1.007825032230
         H            2.761760190511    -2.136618350780    -0.239693718952     1.007825032230
         H            1.236422190511    -0.437097350780     1.780436281048     1.007825032230
         H            2.980376190511    -0.574725350780     1.584223281048     1.007825032230
         H            2.886707190511     1.228610649220     0.166628281048     1.007825032230
         H           -1.768156809489    -2.533042350780    -0.456420718952     1.007825032230
         H           -1.400690809489     2.323325649220     0.477944281048     1.007825032230
         H           -3.766759809489    -1.276624350780     0.291028281048     1.007825032230
         H           -3.600839809489     1.165748649220     0.753456281048     1.007825032230

  Basis Set: AUG-CC-PVTZ
    Blend: AUG-CC-PVTZ
  Basis Set: (AUG-CC-PVTZ AUX)
    Blend: AUG-CC-PVTZ-JKFIT
	 Reference Energy          =    -514.5843776300589525 [Eh]
	 Singles Energy            =      -0.0000000000000000 [Eh]
	 Same-Spin Energy          =      -0.5586641833399963 [Eh]
	 Opposite-Spin Energy      =      -1.7447379372584071 [Eh]
	 Correlation Energy        =      -2.3034021205984034 [Eh]
	 Total Energy              =    -516.8877797506573870 [Eh]

	 ================> DF-SCS-MP2 Energies <==================
	-----------------------------------------------------------
	 SCS Same-Spin Scale       =       0.3333333333333333 [-]
	 SCS Opposite-Spin Scale   =       1.2000000000000000 [-]
	 SCS Same-Spin Energy      =      -0.1862213944466654 [Eh]
	 SCS Opposite-Spin Energy  =      -2.0936855247100885 [Eh]
	 SCS Correlation Energy    =      -2.2799069191567538 [Eh]
	 SCS Total Energy          =    -516.8642845492156539 [Eh]
	-----------------------------------------------------------

  Dipole Moment: [D]
     X:     0.6868      Y:    -3.6038      Z:     1.7283     Total:     4.0554

*** Psi4 exiting successfully. Buy a developer a beer!
