                               Psi4 1.3.2 release

  ==> Input File <==

--------------------------------------------------------------------------
#psi4
#
memory 32 gb

molecule  {
0 1
  O        0.9417500     2.5148810    -0.6596880
  N        2.0463840     0.6978680     0.1749460
  C        0.7268993    -1.5986050    -0.8754578
  C        1.8157710    -1.7711630     0.2163790
  C       -0.4497480    -0.7926040    -0.3845090
  C        2.0266990    -0.4897580     1.0228720
  C       -0.3650830     0.5850230    -0.0943830
  C        0.9119250     1.3593610    -0.2260870
  C       -1.6913630    -1.4231620    -0.2398970
  C       -1.5035900     1.3035830     0.2885800
  C       -2.8212120    -0.7143780     0.1714760
  C       -2.7281430     0.6547360     0.4326570
  H        0.4383490    -2.5216720    -1.2799980
  H        1.2165960    -1.0011160    -1.6986390
  H        1.5065410    -2.5704870     0.9013410
  H        2.7543720    -2.0878480    -0.2534440
  H        1.2290340    -0.3883270     1.7666860
  H        2.9729880    -0.5259550     1.5704730
  H        2.8793190     1.2773810     0.1528780
  H       -1.7755450    -2.4842720    -0.4701710
  H       -1.4080790     2.3720960     0.4641940
  H       -3.7741480    -1.2278540     0.2772780
  H       -3.6082280     1.2145190     0.7397060
units angstrom
no_reorient  #important for SAPT in psi4, default
symmetry c1  #important for SAPT in psi4, default
}

set PROPERTIES_ORIGIN ["COM"]
properties('MP2/aug-cc-pvtz', properties = ['dipole'])
--------------------------------------------------------------------------

    Molecular point group: c1
  Charge       = 0
  Multiplicity = 1
  Basis Set: AUG-CC-PVTZ
    Blend: AUG-CC-PVTZ
  Basis Set: (AUG-CC-PVTZ AUX)
    Blend: AUG-CC-PVTZ-JKFIT

    Orbital Energies [Eh]
    ---------------------

    Doubly Occupied:

       1A    -20.514977     2A    -15.582707     3A    -11.351362
       4A    -11.276554     5A    -11.258698     6A    -11.248527
       7A    -11.247800     8A    -11.245933     9A    -11.240860
      10A    -11.239547    11A    -11.239417    12A    -11.238649
      13A     -1.368894    14A     -1.234394    15A     -1.164226
      16A     -1.080929    17A     -1.036448    18A     -1.020400
      19A     -0.939169    20A     -0.881970    21A     -0.840046
      22A     -0.799938    23A     -0.776196    24A     -0.696192
      25A     -0.687350    26A     -0.671696    27A     -0.651176
      28A     -0.625201    29A     -0.615465    30A     -0.599899
      31A     -0.586414    32A     -0.575197    33A     -0.560939
      34A     -0.534224    35A     -0.516470    36A     -0.510245
      37A     -0.500417    38A     -0.485110    39A     -0.476985
      40A     -0.423089    41A     -0.389347    42A     -0.343917
      43A     -0.335015

  @DF-RHF Final Energy:  -514.59388156503667

   => Energetics <=

    Nuclear Repulsion Energy =            684.6184465877342973
    One-Electron Energy =               -2057.2006814809392381
    Two-Electron Energy =                 857.9883533281682730
    Total Energy =                       -514.5938815650366678
  Basis Set: (AUG-CC-PVTZ AUX)
    Blend: AUG-CC-PVTZ-RI
    Molecular point group: c1

    Geometry (in Angstrom), charge = 0, multiplicity = 1:

       Center              X                  Y                   Z               Mass
    ------------   -----------------  -----------------  -----------------  -----------------
         O            0.958915172549     2.469263162184    -0.646185594496    15.994914619570
         N            2.063549172549     0.652250162184     0.188448405504    14.003074004430
         C            0.744064472549    -1.644222837816    -0.861955394496    12.000000000000
         C            1.832936172549    -1.816780837816     0.229881405504    12.000000000000
         C           -0.432582827451    -0.838221837816    -0.371006594496    12.000000000000
         C            2.043864172549    -0.535375837816     1.036374405504    12.000000000000
         C           -0.347917827451     0.539405162184    -0.080880594496    12.000000000000
         C            0.929090172549     1.313743162184    -0.212584594496    12.000000000000
         C           -1.674197827451    -1.468779837816    -0.226394594496    12.000000000000
         C           -1.486424827451     1.257965162184     0.302082405504    12.000000000000
         C           -2.804046827451    -0.759995837816     0.184978405504    12.000000000000
         C           -2.710977827451     0.609118162184     0.446159405504    12.000000000000
         H            0.455514172549    -2.567289837816    -1.266495594496     1.007825032230
         H            1.233761172549    -1.046733837816    -1.685136594496     1.007825032230
         H            1.523706172549    -2.616104837816     0.914843405504     1.007825032230
         H            2.771537172549    -2.133465837816    -0.239941594496     1.007825032230
         H            1.246199172549    -0.433944837816     1.780188405504     1.007825032230
         H            2.990153172549    -0.571572837816     1.583975405504     1.007825032230
         H            2.896484172549     1.231763162184     0.166380405504     1.007825032230
         H           -1.758379827451    -2.529889837816    -0.456668594496     1.007825032230
         H           -1.390913827451     2.326478162184     0.477696405504     1.007825032230
         H           -3.756982827451    -1.273471837816     0.290780405504     1.007825032230
         H           -3.591062827451     1.168901162184     0.753208405504     1.007825032230

  Basis Set: AUG-CC-PVTZ
    Blend: AUG-CC-PVTZ
  Basis Set: (AUG-CC-PVTZ AUX)
    Blend: AUG-CC-PVTZ-JKFIT
	 Reference Energy          =    -514.5938815650366678 [Eh]
	 Singles Energy            =      -0.0000000000000000 [Eh]
	 Same-Spin Energy          =      -0.5585263135857359 [Eh]
	 Opposite-Spin Energy      =      -1.7443107256894588 [Eh]
	 Correlation Energy        =      -2.3028370392751949 [Eh]
	 Total Energy              =    -516.8967186043119000 [Eh]

	 ================> DF-SCS-MP2 Energies <==================
	-----------------------------------------------------------
	 SCS Same-Spin Scale       =       0.3333333333333333 [-]
	 SCS Opposite-Spin Scale   =       1.2000000000000000 [-]
	 SCS Same-Spin Energy      =      -0.1861754378619120 [Eh]
	 SCS Opposite-Spin Energy  =      -2.0931728708273503 [Eh]
	 SCS Correlation Energy    =      -2.2793483086892623 [Eh]
	 SCS Total Energy          =    -516.8732298737259043 [Eh]
	-----------------------------------------------------------

  Dipole Moment: [D]
     X:     0.6292      Y:    -3.6402      Z:     1.7702     Total:     4.0964

*** Psi4 exiting successfully. Buy a developer a beer!
