                               Psi4 1.4a3.dev225

  ==> Input File <==

--------------------------------------------------------------------------
#psi4
#
memory 32 gb

molecule  {
0 1
  O        0.9417500     2.5148810    -0.6596880
  N        2.0463840     0.6978680     0.1749460
  C        0.7564320    -1.5550710    -0.8733250
  C        1.8157710    -1.7711630     0.2163790
  C       -0.4497480    -0.7926040    -0.3845090
  C        2.0260246    -0.5304471     1.0519227
  C       -0.3650830     0.5850230    -0.0943830
  C        0.9119250     1.3593610    -0.2260870
  C       -1.6913630    -1.4231620    -0.2398970
  C       -1.5035900     1.3035830     0.2885800
  C       -2.8212120    -0.7143780     0.1714760
  C       -2.7281430     0.6547360     0.4326570
  H        0.4383490    -2.5216720    -1.2799980
  H        1.2165960    -1.0011160    -1.6986390
  H        1.5065410    -2.5704870     0.9013410
  H        2.7543720    -2.0878480    -0.2534440
  H        1.2290340    -0.3883270     1.7666860
  H        2.9729880    -0.5259550     1.5704730
  H        2.8793190     1.2773810     0.1528780
  H       -1.7755450    -2.4842720    -0.4701710
  H       -1.4080790     2.3720960     0.4641940
  H       -3.7741480    -1.2278540     0.2772780
  H       -3.6082280     1.2145190     0.7397060
units angstrom
no_reorient  #important for SAPT in psi4, default
symmetry c1  #important for SAPT in psi4, default
}

set PROPERTIES_ORIGIN ["COM"]
properties('MP2/aug-cc-pvtz', properties = ['dipole'])
--------------------------------------------------------------------------

    Molecular point group: c1
  Charge       = 0
  Multiplicity = 1
  Basis Set: AUG-CC-PVTZ
    Blend: AUG-CC-PVTZ
  Basis Set: (AUG-CC-PVTZ AUX)
    Blend: AUG-CC-PVTZ-JKFIT

    Orbital Energies [Eh]
    ---------------------

    Doubly Occupied:

       1A    -20.512919     2A    -15.580441     3A    -11.349372
       4A    -11.277372     5A    -11.258093     6A    -11.248538
       7A    -11.246729     8A    -11.245072     9A    -11.241745
      10A    -11.240342    11A    -11.239689    12A    -11.238952
      13A     -1.366340    14A     -1.224442    15A     -1.163313
      16A     -1.083854    17A     -1.036721    18A     -1.022482
      19A     -0.940424    20A     -0.879391    21A     -0.841391
      22A     -0.798126    23A     -0.774338    24A     -0.695299
      25A     -0.682006    26A     -0.672275    27A     -0.649470
      28A     -0.622963    29A     -0.617760    30A     -0.599505
      31A     -0.587139    32A     -0.573427    33A     -0.556450
      34A     -0.538141    35A     -0.520525    36A     -0.509598
      37A     -0.495237    38A     -0.489477    39A     -0.479442
      40A     -0.421051    41A     -0.389692    42A     -0.343523
      43A     -0.336198

  @DF-RHF Final Energy:  -514.59458243915788

   => Energetics <=

    Nuclear Repulsion Energy =            684.4783563731949698
    One-Electron Energy =               -2056.9673513907650886
    Two-Electron Energy =                 857.8944125784123571
    Total Energy =                       -514.5945824391578753
  Basis Set: (AUG-CC-PVTZ AUX)
    Blend: AUG-CC-PVTZ-RI
    Molecular point group: c1

    Geometry (in Angstrom), charge = 0, multiplicity = 1:

       Center              X                  Y                   Z               Mass
    ------------   -----------------  -----------------  -----------------  -----------------
         O            0.956765365849     2.469051230605    -0.648508617586    15.994914619570
         N            2.061399365849     0.652038230605     0.186125382414    14.003074004430
         C            0.771447365849    -1.600900769395    -0.862145617586    12.000000000000
         C            1.830786365849    -1.816992769395     0.227558382414    12.000000000000
         C           -0.434732634151    -0.838433769395    -0.373329617586    12.000000000000
         C            2.041039965849    -0.576276869395     1.063102082414    12.000000000000
         C           -0.350067634151     0.539193230605    -0.083203617586    12.000000000000
         C            0.926940365849     1.313531230605    -0.214907617586    12.000000000000
         C           -1.676347634151    -1.468991769395    -0.228717617586    12.000000000000
         C           -1.488574634151     1.257753230605     0.299759382414    12.000000000000
         C           -2.806196634151    -0.760207769395     0.182655382414    12.000000000000
         C           -2.713127634151     0.608906230605     0.443836382414    12.000000000000
         H            0.453364365849    -2.567501769395    -1.268818617586     1.007825032230
         H            1.231611365849    -1.046945769395    -1.687459617586     1.007825032230
         H            1.521556365849    -2.616316769395     0.912520382414     1.007825032230
         H            2.769387365849    -2.133677769395    -0.242264617586     1.007825032230
         H            1.244049365849    -0.434156769395     1.777865382414     1.007825032230
         H            2.988003365849    -0.571784769395     1.581652382414     1.007825032230
         H            2.894334365849     1.231551230605     0.164057382414     1.007825032230
         H           -1.760529634151    -2.530101769395    -0.458991617586     1.007825032230
         H           -1.393063634151     2.326266230605     0.475373382414     1.007825032230
         H           -3.759132634151    -1.273683769395     0.288457382414     1.007825032230
         H           -3.593212634151     1.168689230605     0.750885382414     1.007825032230

  Basis Set: AUG-CC-PVTZ
    Blend: AUG-CC-PVTZ
  Basis Set: (AUG-CC-PVTZ AUX)
    Blend: AUG-CC-PVTZ-JKFIT
	 Reference Energy          =    -514.5945824391578753 [Eh]
	 Singles Energy            =      -0.0000000000000000 [Eh]
	 Same-Spin Energy          =      -0.5585139887504080 [Eh]
	 Opposite-Spin Energy      =      -1.7445111548336425 [Eh]
	 Correlation Energy        =      -2.3030251435840503 [Eh]
	 Total Energy              =    -516.8976075827418981 [Eh]

	 ================> DF-SCS-MP2 Energies <==================
	-----------------------------------------------------------
	 SCS Same-Spin Scale       =       0.3333333333333333 [-]
	 SCS Opposite-Spin Scale   =       1.2000000000000000 [-]
	 SCS Same-Spin Energy      =      -0.1861713295834693 [Eh]
	 SCS Opposite-Spin Energy  =      -2.0934133858003707 [Eh]
	 SCS Correlation Energy    =      -2.2795847153838400 [Eh]
	 SCS Total Energy          =    -516.8741671545417375 [Eh]
	-----------------------------------------------------------

  Dipole Moment: [D]
     X:     0.6513      Y:    -3.7302      Z:     1.8321     Total:     4.2066

*** Psi4 exiting successfully. Buy a developer a beer!
