                               Psi4 1.3.2 release

  ==> Input File <==

--------------------------------------------------------------------------
#psi4
#
memory 32 gb

molecule  {
0 1
  O        0.9417500     2.5148810    -0.6596880
  N        2.0463840     0.6978680     0.1749460
  C        0.7564320    -1.5550710    -0.8733250
  C        1.8157710    -1.7711630     0.2163790
  C       -0.4497480    -0.7926040    -0.3845090
  C        2.0266990    -0.4897580     1.0228720
  C       -0.3650830     0.5850230    -0.0943830
  C        0.9590592     1.2699489    -0.2531867
  C       -1.6913630    -1.4231620    -0.2398970
  C       -1.5035900     1.3035830     0.2885800
  C       -2.8212120    -0.7143780     0.1714760
  C       -2.7281430     0.6547360     0.4326570
  H        0.4383490    -2.5216720    -1.2799980
  H        1.2165960    -1.0011160    -1.6986390
  H        1.5065410    -2.5704870     0.9013410
  H        2.7543720    -2.0878480    -0.2534440
  H        1.2290340    -0.3883270     1.7666860
  H        2.9729880    -0.5259550     1.5704730
  H        2.8793190     1.2773810     0.1528780
  H       -1.7755450    -2.4842720    -0.4701710
  H       -1.4080790     2.3720960     0.4641940
  H       -3.7741480    -1.2278540     0.2772780
  H       -3.6082280     1.2145190     0.7397060
units angstrom
no_reorient  #important for SAPT in psi4, default
symmetry c1  #important for SAPT in psi4, default
}

set PROPERTIES_ORIGIN ["COM"]
properties('MP2/aug-cc-pvtz', properties = ['dipole'])
--------------------------------------------------------------------------

    Molecular point group: c1
  Charge       = 0
  Multiplicity = 1
  Basis Set: AUG-CC-PVTZ
    Blend: AUG-CC-PVTZ
  Basis Set: (AUG-CC-PVTZ AUX)
    Blend: AUG-CC-PVTZ-JKFIT

    Orbital Energies [Eh]
    ---------------------

    Doubly Occupied:

       1A    -20.496595     2A    -15.597684     3A    -11.349640
       4A    -11.283812     5A    -11.257217     6A    -11.249025
       7A    -11.248795     8A    -11.246207     9A    -11.244131
      10A    -11.243074    11A    -11.241432    12A    -11.240058
      13A     -1.339301    14A     -1.239590    15A     -1.165621
      16A     -1.087858    17A     -1.037381    18A     -1.023850
      19A     -0.947023    20A     -0.886944    21A     -0.846655
      22A     -0.799274    23A     -0.787419    24A     -0.702191
      25A     -0.692994    26A     -0.671643    27A     -0.656658
      28A     -0.626259    29A     -0.616028    30A     -0.601961
      31A     -0.583682    32A     -0.564718    33A     -0.555120
      34A     -0.538690    35A     -0.516849    36A     -0.504696
      37A     -0.493425    38A     -0.491447    39A     -0.477961
      40A     -0.410718    41A     -0.386067    42A     -0.341888
      43A     -0.336443

  @DF-RHF Final Energy:  -514.58013238758303

   => Energetics <=

    Nuclear Repulsion Energy =            685.5497643278694113
    One-Electron Energy =               -2059.0037451740645338
    Two-Electron Energy =                 858.8738484586119739
    Total Energy =                       -514.5801323875830349
  Basis Set: (AUG-CC-PVTZ AUX)
    Blend: AUG-CC-PVTZ-RI
    Molecular point group: c1

    Geometry (in Angstrom), charge = 0, multiplicity = 1:

       Center              X                  Y                   Z               Mass
    ------------   -----------------  -----------------  -----------------  -----------------
         O            0.953203851532     2.472680863392    -0.644325678670    15.994914619570
         N            2.057837851532     0.655667863392     0.190308321330    14.003074004430
         C            0.767885851532    -1.597271136608    -0.857962678670    12.000000000000
         C            1.827224851532    -1.813363136608     0.231741321330    12.000000000000
         C           -0.438294148468    -0.834804136608    -0.369146678670    12.000000000000
         C            2.038152851532    -0.531958136608     1.038234321330    12.000000000000
         C           -0.353629148468     0.542822863392    -0.079020678670    12.000000000000
         C            0.970513051532     1.227748763392    -0.237824378670    12.000000000000
         C           -1.679909148468    -1.465362136608    -0.224534678670    12.000000000000
         C           -1.492136148468     1.261382863392     0.303942321330    12.000000000000
         C           -2.809758148468    -0.756578136608     0.186838321330    12.000000000000
         C           -2.716689148468     0.612535863392     0.448019321330    12.000000000000
         H            0.449802851532    -2.563872136608    -1.264635678670     1.007825032230
         H            1.228049851532    -1.043316136608    -1.683276678670     1.007825032230
         H            1.517994851532    -2.612687136608     0.916703321330     1.007825032230
         H            2.765825851532    -2.130048136608    -0.238081678670     1.007825032230
         H            1.240487851532    -0.430527136608     1.782048321330     1.007825032230
         H            2.984441851532    -0.568155136608     1.585835321330     1.007825032230
         H            2.890772851532     1.235180863392     0.168240321330     1.007825032230
         H           -1.764091148468    -2.526472136608    -0.454808678670     1.007825032230
         H           -1.396625148468     2.329895863392     0.479556321330     1.007825032230
         H           -3.762694148468    -1.270054136608     0.292640321330     1.007825032230
         H           -3.596774148468     1.172318863392     0.755068321330     1.007825032230

  Basis Set: AUG-CC-PVTZ
    Blend: AUG-CC-PVTZ
  Basis Set: (AUG-CC-PVTZ AUX)
    Blend: AUG-CC-PVTZ-JKFIT
	 Reference Energy          =    -514.5801323875830349 [Eh]
	 Singles Energy            =      -0.0000000000000000 [Eh]
	 Same-Spin Energy          =      -0.5601350453650011 [Eh]
	 Opposite-Spin Energy      =      -1.7471872042105376 [Eh]
	 Correlation Energy        =      -2.3073222495755390 [Eh]
	 Total Energy              =    -516.8874546371586121 [Eh]

	 ================> DF-SCS-MP2 Energies <==================
	-----------------------------------------------------------
	 SCS Same-Spin Scale       =       0.3333333333333333 [-]
	 SCS Opposite-Spin Scale   =       1.2000000000000000 [-]
	 SCS Same-Spin Energy      =      -0.1867116817883337 [Eh]
	 SCS Opposite-Spin Energy  =      -2.0966246450526449 [Eh]
	 SCS Correlation Energy    =      -2.2833363268409785 [Eh]
	 SCS Total Energy          =    -516.8634687144240161 [Eh]
	-----------------------------------------------------------

  Dipole Moment: [D]
     X:     0.9558      Y:    -4.2089      Z:     2.0101     Total:     4.7612

*** Psi4 exiting successfully. Buy a developer a beer!
