                               Psi4 1.4a3.dev225

  ==> Input File <==

--------------------------------------------------------------------------
#psi4
#
memory 32 gb

molecule  {
0 1
  O        0.9417500     2.5148810    -0.6596880
  N        2.0463840     0.6978680     0.1749460
  C        0.7564320    -1.5550710    -0.8733250
  C        1.8157710    -1.7711630     0.2163790
  C       -0.4497480    -0.7926040    -0.3845090
  C        2.0266990    -0.4897580     1.0228720
  C       -0.3650830     0.5850230    -0.0943830
  C        0.9119250     1.3593610    -0.2260870
  C       -1.6913630    -1.4231620    -0.2398970
  C       -1.5198578     1.3138503     0.2940520
  C       -2.8212120    -0.7143780     0.1714760
  C       -2.7281430     0.6547360     0.4326570
  H        0.4383490    -2.5216720    -1.2799980
  H        1.2165960    -1.0011160    -1.6986390
  H        1.5065410    -2.5704870     0.9013410
  H        2.7543720    -2.0878480    -0.2534440
  H        1.2290340    -0.3883270     1.7666860
  H        2.9729880    -0.5259550     1.5704730
  H        2.8793190     1.2773810     0.1528780
  H       -1.7755450    -2.4842720    -0.4701710
  H       -1.4080790     2.3720960     0.4641940
  H       -3.7741480    -1.2278540     0.2772780
  H       -3.6082280     1.2145190     0.7397060
units angstrom
no_reorient  #important for SAPT in psi4, default
symmetry c1  #important for SAPT in psi4, default
}

set PROPERTIES_ORIGIN ["COM"]
properties('MP2/aug-cc-pvtz', properties = ['dipole'])
--------------------------------------------------------------------------

    Molecular point group: c1
  Charge       = 0
  Multiplicity = 1
  Basis Set: AUG-CC-PVTZ
    Blend: AUG-CC-PVTZ
  Basis Set: (AUG-CC-PVTZ AUX)
    Blend: AUG-CC-PVTZ-JKFIT

    Orbital Energies [Eh]
    ---------------------

    Doubly Occupied:

       1A    -20.515073     2A    -15.582662     3A    -11.351423
       4A    -11.275677     5A    -11.258415     6A    -11.249146
       7A    -11.248767     8A    -11.245957     9A    -11.242094
      10A    -11.239413    11A    -11.238939    12A    -11.237947
      13A     -1.368946    14A     -1.234727    15A     -1.163301
      16A     -1.082603    17A     -1.035067    18A     -1.021325
      19A     -0.938337    20A     -0.882376    21A     -0.841053
      22A     -0.798076    23A     -0.775854    24A     -0.696532
      25A     -0.685464    26A     -0.673275    27A     -0.652349
      28A     -0.624430    29A     -0.616334    30A     -0.598658
      31A     -0.586967    32A     -0.576880    33A     -0.556842
      34A     -0.535512    35A     -0.518077    36A     -0.512331
      37A     -0.492408    38A     -0.489829    39A     -0.477434
      40A     -0.423264    41A     -0.389421    42A     -0.341762
      43A     -0.337656

  @DF-RHF Final Energy:  -514.59603149901977

   => Energetics <=

    Nuclear Repulsion Energy =            684.7849502429427275
    One-Electron Energy =               -2057.5367521449102242
    Two-Electron Energy =                 858.1557704029478373
    Total Energy =                       -514.5960314990197730
  Basis Set: (AUG-CC-PVTZ AUX)
    Blend: AUG-CC-PVTZ-RI
    Molecular point group: c1

    Geometry (in Angstrom), charge = 0, multiplicity = 1:

       Center              X                  Y                   Z               Mass
    ------------   -----------------  -----------------  -----------------  -----------------
         O            0.957927000311     2.465255220094    -0.646752116086    15.994914619570
         N            2.062561000311     0.648242220094     0.187881883914    14.003074004430
         C            0.772609000311    -1.604696779906    -0.860389116086    12.000000000000
         C            1.831948000311    -1.820788779906     0.229314883914    12.000000000000
         C           -0.433570999689    -0.842229779906    -0.371573116086    12.000000000000
         C            2.042876000311    -0.539383779906     1.035807883914    12.000000000000
         C           -0.348905999689     0.535397220094    -0.081447116086    12.000000000000
         C            0.928102000311     1.309735220094    -0.213151116086    12.000000000000
         C           -1.675185999689    -1.472787779906    -0.226961116086    12.000000000000
         C           -1.503680799689     1.264224520094     0.306987883914    12.000000000000
         C           -2.805034999689    -0.764003779906     0.184411883914    12.000000000000
         C           -2.711965999689     0.605110220094     0.445592883914    12.000000000000
         H            0.454526000311    -2.571297779906    -1.267062116086     1.007825032230
         H            1.232773000311    -1.050741779906    -1.685703116086     1.007825032230
         H            1.522718000311    -2.620112779906     0.914276883914     1.007825032230
         H            2.770549000311    -2.137473779906    -0.240508116086     1.007825032230
         H            1.245211000311    -0.437952779906     1.779621883914     1.007825032230
         H            2.989165000311    -0.575580779906     1.583408883914     1.007825032230
         H            2.895496000311     1.227755220094     0.165813883914     1.007825032230
         H           -1.759367999689    -2.533897779906    -0.457235116086     1.007825032230
         H           -1.391901999689     2.322470220094     0.477129883914     1.007825032230
         H           -3.757970999689    -1.277479779906     0.290213883914     1.007825032230
         H           -3.592050999689     1.164893220094     0.752641883914     1.007825032230

  Basis Set: AUG-CC-PVTZ
    Blend: AUG-CC-PVTZ
  Basis Set: (AUG-CC-PVTZ AUX)
    Blend: AUG-CC-PVTZ-JKFIT
	 Reference Energy          =    -514.5960314990197730 [Eh]
	 Singles Energy            =      -0.0000000000000000 [Eh]
	 Same-Spin Energy          =      -0.5586602456317351 [Eh]
	 Opposite-Spin Energy      =      -1.7444413245550290 [Eh]
	 Correlation Energy        =      -2.3031015701867643 [Eh]
	 Total Energy              =    -516.8991330692065276 [Eh]

	 ================> DF-SCS-MP2 Energies <==================
	-----------------------------------------------------------
	 SCS Same-Spin Scale       =       0.3333333333333333 [-]
	 SCS Opposite-Spin Scale   =       1.2000000000000000 [-]
	 SCS Same-Spin Energy      =      -0.1862200818772450 [Eh]
	 SCS Opposite-Spin Energy  =      -2.0933295894660349 [Eh]
	 SCS Correlation Energy    =      -2.2795496713432799 [Eh]
	 SCS Total Energy          =    -516.8755811703630343 [Eh]
	-----------------------------------------------------------

  Dipole Moment: [D]
     X:     0.6307      Y:    -3.6194      Z:     1.7681     Total:     4.0773

*** Psi4 exiting successfully. Buy a developer a beer!
