                               Psi4 1.3.2 release

  ==> Input File <==

--------------------------------------------------------------------------
#psi4
#
memory 32 gb

molecule  {
0 1
  O        0.9417500     2.5148810    -0.6596880
  N        2.0463840     0.6978680     0.1749460
  C        0.7535954    -1.5296976    -0.8652065
  C        1.8157710    -1.7711630     0.2163790
  C       -0.4497480    -0.7926040    -0.3845090
  C        2.0266990    -0.4897580     1.0228720
  C       -0.3650830     0.5850230    -0.0943830
  C        0.9119250     1.3593610    -0.2260870
  C       -1.6913630    -1.4231620    -0.2398970
  C       -1.5035900     1.3035830     0.2885800
  C       -2.8212120    -0.7143780     0.1714760
  C       -2.7281430     0.6547360     0.4326570
  H        0.4383490    -2.5216720    -1.2799980
  H        1.2165960    -1.0011160    -1.6986390
  H        1.5065410    -2.5704870     0.9013410
  H        2.7543720    -2.0878480    -0.2534440
  H        1.2290340    -0.3883270     1.7666860
  H        2.9729880    -0.5259550     1.5704730
  H        2.8793190     1.2773810     0.1528780
  H       -1.7755450    -2.4842720    -0.4701710
  H       -1.4080790     2.3720960     0.4641940
  H       -3.7741480    -1.2278540     0.2772780
  H       -3.6082280     1.2145190     0.7397060
units angstrom
no_reorient  #important for SAPT in psi4, default
symmetry c1  #important for SAPT in psi4, default
}

set PROPERTIES_ORIGIN ["COM"]
properties('MP2/aug-cc-pvtz', properties = ['dipole'])
--------------------------------------------------------------------------

    Molecular point group: c1
  Charge       = 0
  Multiplicity = 1
  Basis Set: AUG-CC-PVTZ
    Blend: AUG-CC-PVTZ
  Basis Set: (AUG-CC-PVTZ AUX)
    Blend: AUG-CC-PVTZ-JKFIT

    Orbital Energies [Eh]
    ---------------------

    Doubly Occupied:

       1A    -20.515271     2A    -15.582747     3A    -11.351585
       4A    -11.275378     5A    -11.257613     6A    -11.249011
       7A    -11.247080     8A    -11.245501     9A    -11.242202
      10A    -11.240066    11A    -11.239718    12A    -11.238182
      13A     -1.369187    14A     -1.235132    15A     -1.164990
      16A     -1.083379    17A     -1.037118    18A     -1.021101
      19A     -0.937671    20A     -0.881955    21A     -0.842484
      22A     -0.797358    23A     -0.776513    24A     -0.697329
      25A     -0.684976    26A     -0.673037    27A     -0.652792
      28A     -0.623183    29A     -0.616717    30A     -0.599939
      31A     -0.587858    32A     -0.576384    33A     -0.556412
      34A     -0.536176    35A     -0.519154    36A     -0.509819
      37A     -0.491427    38A     -0.486388    39A     -0.481248
      40A     -0.423565    41A     -0.389493    42A     -0.343986
      43A     -0.336182

  @DF-RHF Final Energy:  -514.59538758966710

   => Energetics <=

    Nuclear Repulsion Energy =            685.5906246038026666
    One-Electron Energy =               -2059.1374136426597943
    Two-Electron Energy =                 858.9514014491901435
    Total Energy =                       -514.5953875896670979
  Basis Set: (AUG-CC-PVTZ AUX)
    Blend: AUG-CC-PVTZ-RI
    Molecular point group: c1

    Geometry (in Angstrom), charge = 0, multiplicity = 1:

       Center              X                  Y                   Z               Mass
    ------------   -----------------  -----------------  -----------------  -----------------
         O            0.956926439510     2.464129887175    -0.646949267804    15.994914619570
         N            2.061560439510     0.647116887175     0.187684732196    14.003074004430
         C            0.768771839510    -1.580448712825    -0.852467767804    12.000000000000
         C            1.830947439510    -1.821914112825     0.229117732196    12.000000000000
         C           -0.434571560490    -0.843355112825    -0.371770267804    12.000000000000
         C            2.041875439510    -0.540509112825     1.035610732196    12.000000000000
         C           -0.349906560490     0.534271887175    -0.081644267804    12.000000000000
         C            0.927101439510     1.308609887175    -0.213348267804    12.000000000000
         C           -1.676186560490    -1.473913112825    -0.227158267804    12.000000000000
         C           -1.488413560490     1.252831887175     0.301318732196    12.000000000000
         C           -2.806035560490    -0.765129112825     0.184214732196    12.000000000000
         C           -2.712966560490     0.603984887175     0.445395732196    12.000000000000
         H            0.453525439510    -2.572423112825    -1.267259267804     1.007825032230
         H            1.231772439510    -1.051867112825    -1.685900267804     1.007825032230
         H            1.521717439510    -2.621238112825     0.914079732196     1.007825032230
         H            2.769548439510    -2.138599112825    -0.240705267804     1.007825032230
         H            1.244210439510    -0.439078112825     1.779424732196     1.007825032230
         H            2.988164439510    -0.576706112825     1.583211732196     1.007825032230
         H            2.894495439510     1.226629887175     0.165616732196     1.007825032230
         H           -1.760368560490    -2.535023112825    -0.457432267804     1.007825032230
         H           -1.392902560490     2.321344887175     0.476932732196     1.007825032230
         H           -3.758971560490    -1.278605112825     0.290016732196     1.007825032230
         H           -3.593051560490     1.163767887175     0.752444732196     1.007825032230

  Basis Set: AUG-CC-PVTZ
    Blend: AUG-CC-PVTZ
  Basis Set: (AUG-CC-PVTZ AUX)
    Blend: AUG-CC-PVTZ-JKFIT
	 Reference Energy          =    -514.5953875896670979 [Eh]
	 Singles Energy            =      -0.0000000000000000 [Eh]
	 Same-Spin Energy          =      -0.5589060578155073 [Eh]
	 Opposite-Spin Energy      =      -1.7447098678341064 [Eh]
	 Correlation Energy        =      -2.3036159256496136 [Eh]
	 Total Energy              =    -516.8990035153167355 [Eh]

	 ================> DF-SCS-MP2 Energies <==================
	-----------------------------------------------------------
	 SCS Same-Spin Scale       =       0.3333333333333333 [-]
	 SCS Opposite-Spin Scale   =       1.2000000000000000 [-]
	 SCS Same-Spin Energy      =      -0.1863020192718358 [Eh]
	 SCS Opposite-Spin Energy  =      -2.0936518414009275 [Eh]
	 SCS Correlation Energy    =      -2.2799538606727632 [Eh]
	 SCS Total Energy          =    -516.8753414503398744 [Eh]
	-----------------------------------------------------------

  Dipole Moment: [D]
     X:     0.6291      Y:    -3.6018      Z:     1.7737     Total:     4.0638

*** Psi4 exiting successfully. Buy a developer a beer!
