                               Psi4 1.3.2 release

  ==> Input File <==

--------------------------------------------------------------------------
#psi4
#
memory 32 gb

molecule  {
0 1
  O        0.9417500     2.5148810    -0.6596880
  N        2.0463840     0.6978680     0.1749460
  C        0.8520782    -1.4398729    -0.9316161
  C        1.8157710    -1.7711630     0.2163790
  C       -0.4497480    -0.7926040    -0.3845090
  C        2.0266990    -0.4897580     1.0228720
  C       -0.3650830     0.5850230    -0.0943830
  C        0.9119250     1.3593610    -0.2260870
  C       -1.6913630    -1.4231620    -0.2398970
  C       -1.5035900     1.3035830     0.2885800
  C       -2.8212120    -0.7143780     0.1714760
  C       -2.7281430     0.6547360     0.4326570
  H        0.4383490    -2.5216720    -1.2799980
  H        1.2165960    -1.0011160    -1.6986390
  H        1.5065410    -2.5704870     0.9013410
  H        2.7543720    -2.0878480    -0.2534440
  H        1.2290340    -0.3883270     1.7666860
  H        2.9729880    -0.5259550     1.5704730
  H        2.8793190     1.2773810     0.1528780
  H       -1.7755450    -2.4842720    -0.4701710
  H       -1.4080790     2.3720960     0.4641940
  H       -3.7741480    -1.2278540     0.2772780
  H       -3.6082280     1.2145190     0.7397060
units angstrom
no_reorient  #important for SAPT in psi4, default
symmetry c1  #important for SAPT in psi4, default
}

set PROPERTIES_ORIGIN ["COM"]
properties('MP2/aug-cc-pvtz', properties = ['dipole'])
--------------------------------------------------------------------------

    Molecular point group: c1
  Charge       = 0
  Multiplicity = 1
  Basis Set: AUG-CC-PVTZ
    Blend: AUG-CC-PVTZ
  Basis Set: (AUG-CC-PVTZ AUX)
    Blend: AUG-CC-PVTZ-JKFIT

    Orbital Energies [Eh]
    ---------------------

    Doubly Occupied:

       1A    -20.515935     2A    -15.583328     3A    -11.351973
       4A    -11.274391     5A    -11.260540     6A    -11.249632
       7A    -11.245742     8A    -11.244487     9A    -11.244127
      10A    -11.241548    11A    -11.240272    12A    -11.239604
      13A     -1.369850    14A     -1.236131    15A     -1.162926
      16A     -1.081135    17A     -1.037236    18A     -1.019743
      19A     -0.941149    20A     -0.879427    21A     -0.842876
      22A     -0.804411    23A     -0.776579    24A     -0.699462
      25A     -0.683258    26A     -0.677422    27A     -0.654769
      28A     -0.621299    29A     -0.617914    30A     -0.600209
      31A     -0.586602    32A     -0.581900    33A     -0.554742
      34A     -0.540216    35A     -0.522672    36A     -0.511377
      37A     -0.500734    38A     -0.472510    39A     -0.462623
      40A     -0.424315    41A     -0.390364    42A     -0.343805
      43A     -0.338177

  @DF-RHF Final Energy:  -514.56435462822651

   => Energetics <=

    Nuclear Repulsion Energy =            685.4136737444903247
    One-Electron Energy =               -2058.7012330437651144
    Two-Electron Energy =                 858.7232046710482791
    Total Energy =                       -514.5643546282265106
  Basis Set: (AUG-CC-PVTZ AUX)
    Blend: AUG-CC-PVTZ-RI
    Molecular point group: c1

    Geometry (in Angstrom), charge = 0, multiplicity = 1:

       Center              X                  Y                   Z               Mass
    ------------   -----------------  -----------------  -----------------  -----------------
         O            0.949589937247     2.457438372363    -0.642002067067    15.994914619570
         N            2.054223937247     0.640425372363     0.192631932933    14.003074004430
         C            0.859918137247    -1.497315527637    -0.913930167067    12.000000000000
         C            1.823610937247    -1.828605627637     0.234064932933    12.000000000000
         C           -0.441908062753    -0.850046627637    -0.366823067067    12.000000000000
         C            2.034538937247    -0.547200627637     1.040557932933    12.000000000000
         C           -0.357243062753     0.527580372363    -0.076697067067    12.000000000000
         C            0.919764937247     1.301918372363    -0.208401067067    12.000000000000
         C           -1.683523062753    -1.480604627637    -0.222211067067    12.000000000000
         C           -1.495750062753     1.246140372363     0.306265932933    12.000000000000
         C           -2.813372062753    -0.771820627637     0.189161932933    12.000000000000
         C           -2.720303062753     0.597293372363     0.450342932933    12.000000000000
         H            0.446188937247    -2.579114627637    -1.262312067067     1.007825032230
         H            1.224435937247    -1.058558627637    -1.680953067067     1.007825032230
         H            1.514380937247    -2.627929627637     0.919026932933     1.007825032230
         H            2.762211937247    -2.145290627637    -0.235758067067     1.007825032230
         H            1.236873937247    -0.445769627637     1.784371932933     1.007825032230
         H            2.980827937247    -0.583397627637     1.588158932933     1.007825032230
         H            2.887158937247     1.219938372363     0.170563932933     1.007825032230
         H           -1.767705062753    -2.541714627637    -0.452485067067     1.007825032230
         H           -1.400239062753     2.314653372363     0.481879932933     1.007825032230
         H           -3.766308062753    -1.285296627637     0.294963932933     1.007825032230
         H           -3.600388062753     1.157076372363     0.757391932933     1.007825032230

  Basis Set: AUG-CC-PVTZ
    Blend: AUG-CC-PVTZ
  Basis Set: (AUG-CC-PVTZ AUX)
    Blend: AUG-CC-PVTZ-JKFIT
	 Reference Energy          =    -514.5643546282265106 [Eh]
	 Singles Energy            =      -0.0000000000000000 [Eh]
	 Same-Spin Energy          =      -0.5591324400308575 [Eh]
	 Opposite-Spin Energy      =      -1.7460843741484879 [Eh]
	 Correlation Energy        =      -2.3052168141793454 [Eh]
	 Total Energy              =    -516.8695714424057996 [Eh]

	 ================> DF-SCS-MP2 Energies <==================
	-----------------------------------------------------------
	 SCS Same-Spin Scale       =       0.3333333333333333 [-]
	 SCS Opposite-Spin Scale   =       1.2000000000000000 [-]
	 SCS Same-Spin Energy      =      -0.1863774800102858 [Eh]
	 SCS Opposite-Spin Energy  =      -2.0953012489781853 [Eh]
	 SCS Correlation Energy    =      -2.2816787289884712 [Eh]
	 SCS Total Energy          =    -516.8460333572149921 [Eh]
	-----------------------------------------------------------

  Dipole Moment: [D]
     X:     0.6285      Y:    -3.5263      Z:     1.7894     Total:     4.0040

*** Psi4 exiting successfully. Buy a developer a beer!
