                               Psi4 1.3.2 release

  ==> Input File <==

--------------------------------------------------------------------------
#psi4
#
memory 32 gb

molecule  {
0 1
  O        0.9417500     2.5148810    -0.6596880
  N        1.9611706     0.5865512     0.2066327
  C        0.7564320    -1.5550710    -0.8733250
  C        1.8157710    -1.7711630     0.2163790
  C       -0.4497480    -0.7926040    -0.3845090
  C        2.0266990    -0.4897580     1.0228720
  C       -0.3650830     0.5850230    -0.0943830
  C        0.9119250     1.3593610    -0.2260870
  C       -1.6913630    -1.4231620    -0.2398970
  C       -1.5035900     1.3035830     0.2885800
  C       -2.8212120    -0.7143780     0.1714760
  C       -2.7281430     0.6547360     0.4326570
  H        0.4383490    -2.5216720    -1.2799980
  H        1.2165960    -1.0011160    -1.6986390
  H        1.5065410    -2.5704870     0.9013410
  H        2.7543720    -2.0878480    -0.2534440
  H        1.2290340    -0.3883270     1.7666860
  H        2.9729880    -0.5259550     1.5704730
  H        2.8793190     1.2773810     0.1528780
  H       -1.7755450    -2.4842720    -0.4701710
  H       -1.4080790     2.3720960     0.4641940
  H       -3.7741480    -1.2278540     0.2772780
  H       -3.6082280     1.2145190     0.7397060
units angstrom
no_reorient  #important for SAPT in psi4, default
symmetry c1  #important for SAPT in psi4, default
}

set PROPERTIES_ORIGIN ["COM"]
properties('MP2/aug-cc-pvtz', properties = ['dipole'])
--------------------------------------------------------------------------

    Molecular point group: c1
  Charge       = 0
  Multiplicity = 1
  Basis Set: AUG-CC-PVTZ
    Blend: AUG-CC-PVTZ
  Basis Set: (AUG-CC-PVTZ AUX)
    Blend: AUG-CC-PVTZ-JKFIT

    Orbital Energies [Eh]
    ---------------------

    Doubly Occupied:

       1A    -20.524147     2A    -15.593241     3A    -11.357758
       4A    -11.269097     5A    -11.256845     6A    -11.247408
       7A    -11.244083     8A    -11.242616     9A    -11.240651
      10A    -11.238530    11A    -11.237868    12A    -11.233747
      13A     -1.373250    14A     -1.260882    15A     -1.162525
      16A     -1.078907    17A     -1.040078    18A     -1.018571
      19A     -0.941580    20A     -0.883439    21A     -0.838765
      22A     -0.799333    23A     -0.764818    24A     -0.701275
      25A     -0.689687    26A     -0.670799    27A     -0.660575
      28A     -0.628560    29A     -0.608081    30A     -0.600806
      31A     -0.591763    32A     -0.568472    33A     -0.557576
      34A     -0.536241    35A     -0.517497    36A     -0.506854
      37A     -0.490575    38A     -0.485043    39A     -0.477344
      40A     -0.425663    41A     -0.386434    42A     -0.342653
      43A     -0.334883

  @DF-RHF Final Energy:  -514.56328657888048

   => Energetics <=

    Nuclear Repulsion Energy =            687.7686506486535336
    One-Electron Energy =               -2063.4060293080051451
    Two-Electron Energy =                 861.0740920804712459
    Total Energy =                       -514.5632865788804793
  Basis Set: (AUG-CC-PVTZ AUX)
    Blend: AUG-CC-PVTZ-RI
    Molecular point group: c1

    Geometry (in Angstrom), charge = 0, multiplicity = 1:

       Center              X                  Y                   Z               Mass
    ------------   -----------------  -----------------  -----------------  -----------------
         O            0.964122746319     2.475696879851    -0.649099009973    15.994914619570
         N            1.983543346319     0.547367079851     0.217221690027    14.003074004430
         C            0.778804746319    -1.594255120149    -0.862736009973    12.000000000000
         C            1.838143746319    -1.810347120149     0.226967990027    12.000000000000
         C           -0.427375253681    -0.831788120149    -0.373920009973    12.000000000000
         C            2.049071746319    -0.528942120149     1.033460990027    12.000000000000
         C           -0.342710253681     0.545838879851    -0.083794009973    12.000000000000
         C            0.934297746319     1.320176879851    -0.215498009973    12.000000000000
         C           -1.668990253681    -1.462346120149    -0.229308009973    12.000000000000
         C           -1.481217253681     1.264398879851     0.299168990027    12.000000000000
         C           -2.798839253681    -0.753562120149     0.182064990027    12.000000000000
         C           -2.705770253681     0.615551879851     0.443245990027    12.000000000000
         H            0.460721746319    -2.560856120149    -1.269409009973     1.007825032230
         H            1.238968746319    -1.040300120149    -1.688050009973     1.007825032230
         H            1.528913746319    -2.609671120149     0.911929990027     1.007825032230
         H            2.776744746319    -2.127032120149    -0.242855009973     1.007825032230
         H            1.251406746319    -0.427511120149     1.777274990027     1.007825032230
         H            2.995360746319    -0.565139120149     1.581061990027     1.007825032230
         H            2.901691746319     1.238196879851     0.163466990027     1.007825032230
         H           -1.753172253681    -2.523456120149    -0.459582009973     1.007825032230
         H           -1.385706253681     2.332911879851     0.474782990027     1.007825032230
         H           -3.751775253681    -1.267038120149     0.287866990027     1.007825032230
         H           -3.585855253681     1.175334879851     0.750294990027     1.007825032230

  Basis Set: AUG-CC-PVTZ
    Blend: AUG-CC-PVTZ
  Basis Set: (AUG-CC-PVTZ AUX)
    Blend: AUG-CC-PVTZ-JKFIT
	 Reference Energy          =    -514.5632865788804793 [Eh]
	 Singles Energy            =      -0.0000000000000000 [Eh]
	 Same-Spin Energy          =      -0.5617525972162933 [Eh]
	 Opposite-Spin Energy      =      -1.7490481769531305 [Eh]
	 Correlation Energy        =      -2.3108007741694241 [Eh]
	 Total Energy              =    -516.8740873530499584 [Eh]

	 ================> DF-SCS-MP2 Energies <==================
	-----------------------------------------------------------
	 SCS Same-Spin Scale       =       0.3333333333333333 [-]
	 SCS Opposite-Spin Scale   =       1.2000000000000000 [-]
	 SCS Same-Spin Energy      =      -0.1872508657387644 [Eh]
	 SCS Opposite-Spin Energy  =      -2.0988578123437565 [Eh]
	 SCS Correlation Energy    =      -2.2861086780825208 [Eh]
	 SCS Total Energy          =    -516.8493952569630210 [Eh]
	-----------------------------------------------------------

  Dipole Moment: [D]
     X:     0.7766      Y:    -3.3915      Z:     1.7134     Total:     3.8783

*** Psi4 exiting successfully. Buy a developer a beer!
