                               Psi4 1.3.2 release

  ==> Input File <==

--------------------------------------------------------------------------
#psi4
#
memory 32 gb

molecule  {
0 1
  O        0.9417500     2.5148810    -0.6596880
  N        2.0463840     0.6978680     0.1749460
  C        0.7470299    -1.4540495    -0.8388845
  C        1.8157710    -1.7711630     0.2163790
  C       -0.4497480    -0.7926040    -0.3845090
  C        2.0266990    -0.4897580     1.0228720
  C       -0.3650830     0.5850230    -0.0943830
  C        0.9119250     1.3593610    -0.2260870
  C       -1.6913630    -1.4231620    -0.2398970
  C       -1.5035900     1.3035830     0.2885800
  C       -2.8212120    -0.7143780     0.1714760
  C       -2.7281430     0.6547360     0.4326570
  H        0.4383490    -2.5216720    -1.2799980
  H        1.2165960    -1.0011160    -1.6986390
  H        1.5065410    -2.5704870     0.9013410
  H        2.7543720    -2.0878480    -0.2534440
  H        1.2290340    -0.3883270     1.7666860
  H        2.9729880    -0.5259550     1.5704730
  H        2.8793190     1.2773810     0.1528780
  H       -1.7755450    -2.4842720    -0.4701710
  H       -1.4080790     2.3720960     0.4641940
  H       -3.7741480    -1.2278540     0.2772780
  H       -3.6082280     1.2145190     0.7397060
units angstrom
no_reorient  #important for SAPT in psi4, default
symmetry c1  #important for SAPT in psi4, default
}

set PROPERTIES_ORIGIN ["COM"]
properties('MP2/aug-cc-pvtz', properties = ['dipole'])
--------------------------------------------------------------------------

    Molecular point group: c1
  Charge       = 0
  Multiplicity = 1
  Basis Set: AUG-CC-PVTZ
    Blend: AUG-CC-PVTZ
  Basis Set: (AUG-CC-PVTZ AUX)
    Blend: AUG-CC-PVTZ-JKFIT

    Orbital Energies [Eh]
    ---------------------

    Doubly Occupied:

       1A    -20.515758     2A    -15.582944     3A    -11.352068
       4A    -11.274402     5A    -11.255684     6A    -11.249654
       7A    -11.246862     8A    -11.245448     9A    -11.243653
      10A    -11.241923    11A    -11.240866    12A    -11.239459
      13A     -1.369692    14A     -1.236323    15A     -1.167687
      16A     -1.087207    17A     -1.038405    18A     -1.022558
      19A     -0.936200    20A     -0.883253    21A     -0.846207
      22A     -0.795167    23A     -0.776995    24A     -0.699081
      25A     -0.684233    26A     -0.675952    27A     -0.653656
      28A     -0.623041    29A     -0.618873    30A     -0.600455
      31A     -0.590650    32A     -0.577853    33A     -0.555524
      34A     -0.536045    35A     -0.520790    36A     -0.509838
      37A     -0.493125    38A     -0.487848    39A     -0.466182
      40A     -0.424104    41A     -0.389770    42A     -0.344397
      43A     -0.336291

  @DF-RHF Final Energy:  -514.58271365963685

   => Energetics <=

    Nuclear Repulsion Energy =            687.0132038105750780
    One-Electron Energy =               -2061.9195836946241798
    Two-Electron Energy =                 860.3236662244122499
    Total Energy =                       -514.5827136596368518
  Basis Set: (AUG-CC-PVTZ AUX)
    Blend: AUG-CC-PVTZ-RI
    Molecular point group: c1

    Geometry (in Angstrom), charge = 0, multiplicity = 1:

       Center              X                  Y                   Z               Mass
    ------------   -----------------  -----------------  -----------------  -----------------
         O            0.957415538171     2.458494461934    -0.648910132164    15.994914619570
         N            2.062049538171     0.641481461934     0.185723867836    14.003074004430
         C            0.762695438171    -1.510436038066    -0.828106632164    12.000000000000
         C            1.831436538171    -1.827549538066     0.227156867836    12.000000000000
         C           -0.434082461829    -0.848990538066    -0.373731132164    12.000000000000
         C            2.042364538171    -0.546144538066     1.033649867836    12.000000000000
         C           -0.349417461829     0.528636461934    -0.083605132164    12.000000000000
         C            0.927590538171     1.302974461934    -0.215309132164    12.000000000000
         C           -1.675697461829    -1.479548538066    -0.229119132164    12.000000000000
         C           -1.487924461829     1.247196461934     0.299357867836    12.000000000000
         C           -2.805546461829    -0.770764538066     0.182253867836    12.000000000000
         C           -2.712477461829     0.598349461934     0.443434867836    12.000000000000
         H            0.454014538171    -2.578058538066    -1.269220132164     1.007825032230
         H            1.232261538171    -1.057502538066    -1.687861132164     1.007825032230
         H            1.522206538171    -2.626873538066     0.912118867836     1.007825032230
         H            2.770037538171    -2.144234538066    -0.242666132164     1.007825032230
         H            1.244699538171    -0.444713538066     1.777463867836     1.007825032230
         H            2.988653538171    -0.582341538066     1.581250867836     1.007825032230
         H            2.894984538171     1.220994461934     0.163655867836     1.007825032230
         H           -1.759879461829    -2.540658538066    -0.459393132164     1.007825032230
         H           -1.392413461829     2.315709461934     0.474971867836     1.007825032230
         H           -3.758482461829    -1.284240538066     0.288055867836     1.007825032230
         H           -3.592562461829     1.158132461934     0.750483867836     1.007825032230

  Basis Set: AUG-CC-PVTZ
    Blend: AUG-CC-PVTZ
  Basis Set: (AUG-CC-PVTZ AUX)
    Blend: AUG-CC-PVTZ-JKFIT
	 Reference Energy          =    -514.5827136596368518 [Eh]
	 Singles Energy            =      -0.0000000000000000 [Eh]
	 Same-Spin Energy          =      -0.5599838653142977 [Eh]
	 Opposite-Spin Energy      =      -1.7463213079390361 [Eh]
	 Correlation Energy        =      -2.3063051732533335 [Eh]
	 Total Energy              =    -516.8890188328902013 [Eh]

	 ================> DF-SCS-MP2 Energies <==================
	-----------------------------------------------------------
	 SCS Same-Spin Scale       =       0.3333333333333333 [-]
	 SCS Opposite-Spin Scale   =       1.2000000000000000 [-]
	 SCS Same-Spin Energy      =      -0.1866612884380992 [Eh]
	 SCS Opposite-Spin Energy  =      -2.0955855695268433 [Eh]
	 SCS Correlation Energy    =      -2.2822468579649424 [Eh]
	 SCS Total Energy          =    -516.8649605176018440 [Eh]
	-----------------------------------------------------------

  Dipole Moment: [D]
     X:     0.6275      Y:    -3.5449      Z:     1.7999     Total:     4.0249

*** Psi4 exiting successfully. Buy a developer a beer!
