                               Psi4 1.3.2 release

  ==> Input File <==

--------------------------------------------------------------------------
#psi4
#
memory 32 gb

molecule  {
0 1
  O        0.8134705     2.5061265    -0.6725862
  N        2.0463840     0.6978680     0.1749460
  C        0.7564320    -1.5550710    -0.8733250
  C        1.8157710    -1.7711630     0.2163790
  C       -0.4497480    -0.7926040    -0.3845090
  C        2.0266990    -0.4897580     1.0228720
  C       -0.3650830     0.5850230    -0.0943830
  C        0.9119250     1.3593610    -0.2260870
  C       -1.6913630    -1.4231620    -0.2398970
  C       -1.5035900     1.3035830     0.2885800
  C       -2.8212120    -0.7143780     0.1714760
  C       -2.7281430     0.6547360     0.4326570
  H        0.4383490    -2.5216720    -1.2799980
  H        1.2165960    -1.0011160    -1.6986390
  H        1.5065410    -2.5704870     0.9013410
  H        2.7543720    -2.0878480    -0.2534440
  H        1.2290340    -0.3883270     1.7666860
  H        2.9729880    -0.5259550     1.5704730
  H        2.8793190     1.2773810     0.1528780
  H       -1.7755450    -2.4842720    -0.4701710
  H       -1.4080790     2.3720960     0.4641940
  H       -3.7741480    -1.2278540     0.2772780
  H       -3.6082280     1.2145190     0.7397060
units angstrom
no_reorient  #important for SAPT in psi4, default
symmetry c1  #important for SAPT in psi4, default
}

set PROPERTIES_ORIGIN ["COM"]
properties('MP2/aug-cc-pvtz', properties = ['dipole'])
--------------------------------------------------------------------------

    Molecular point group: c1
  Charge       = 0
  Multiplicity = 1
  Basis Set: AUG-CC-PVTZ
    Blend: AUG-CC-PVTZ
  Basis Set: (AUG-CC-PVTZ AUX)
    Blend: AUG-CC-PVTZ-JKFIT

    Orbital Energies [Eh]
    ---------------------

    Doubly Occupied:

       1A    -20.517187     2A    -15.589640     3A    -11.352681
       4A    -11.279162     5A    -11.254308     6A    -11.245358
       7A    -11.242439     8A    -11.241157     9A    -11.239114
      10A    -11.238943    11A    -11.238452    12A    -11.236883
      13A     -1.369573    14A     -1.241643    15A     -1.161126
      16A     -1.082017    17A     -1.033270    18A     -1.019269
      19A     -0.938994    20A     -0.879991    21A     -0.840239
      22A     -0.796868    23A     -0.776491    24A     -0.697305
      25A     -0.687033    26A     -0.671064    27A     -0.652627
      28A     -0.621731    29A     -0.617335    30A     -0.598079
      31A     -0.587275    32A     -0.576259    33A     -0.556736
      34A     -0.535828    35A     -0.518445    36A     -0.507524
      37A     -0.492367    38A     -0.488495    39A     -0.477261
      40A     -0.422529    41A     -0.395097    42A     -0.338989
      43A     -0.333302

  @DF-RHF Final Energy:  -514.59318221693059

   => Energetics <=

    Nuclear Repulsion Energy =            685.8325438628055508
    One-Electron Energy =               -2059.6712837177278743
    Two-Electron Energy =                 859.2455576379917375
    Total Energy =                       -514.5931822169305860
  Basis Set: (AUG-CC-PVTZ AUX)
    Blend: AUG-CC-PVTZ-RI
    Molecular point group: c1

    Geometry (in Angstrom), charge = 0, multiplicity = 1:

       Center              X                  Y                   Z               Mass
    ------------   -----------------  -----------------  -----------------  -----------------
         O            0.841173196919     2.458134867344    -0.657961945424    15.994914619570
         N            2.074086696919     0.649876367344     0.189570254576    14.003074004430
         C            0.784134696919    -1.603062632656    -0.858700745424    12.000000000000
         C            1.843473696919    -1.819154632656     0.231003254576    12.000000000000
         C           -0.422045303081    -0.840595632656    -0.369884745424    12.000000000000
         C            2.054401696919    -0.537749632656     1.037496254576    12.000000000000
         C           -0.337380303081     0.537031367344    -0.079758745424    12.000000000000
         C            0.939627696919     1.311369367344    -0.211462745424    12.000000000000
         C           -1.663660303081    -1.471153632656    -0.225272745424    12.000000000000
         C           -1.475887303081     1.255591367344     0.303204254576    12.000000000000
         C           -2.793509303081    -0.762369632656     0.186100254576    12.000000000000
         C           -2.700440303081     0.606744367344     0.447281254576    12.000000000000
         H            0.466051696919    -2.569663632656    -1.265373745424     1.007825032230
         H            1.244298696919    -1.049107632656    -1.684014745424     1.007825032230
         H            1.534243696919    -2.618478632656     0.915965254576     1.007825032230
         H            2.782074696919    -2.135839632656    -0.238819745424     1.007825032230
         H            1.256736696919    -0.436318632656     1.781310254576     1.007825032230
         H            3.000690696919    -0.573946632656     1.585097254576     1.007825032230
         H            2.907021696919     1.229389367344     0.167502254576     1.007825032230
         H           -1.747842303081    -2.532263632656    -0.455546745424     1.007825032230
         H           -1.380376303081     2.324104367344     0.478818254576     1.007825032230
         H           -3.746445303081    -1.275845632656     0.291902254576     1.007825032230
         H           -3.580525303081     1.166527367344     0.754330254576     1.007825032230

  Basis Set: AUG-CC-PVTZ
    Blend: AUG-CC-PVTZ
  Basis Set: (AUG-CC-PVTZ AUX)
    Blend: AUG-CC-PVTZ-JKFIT
	 Reference Energy          =    -514.5931822169305860 [Eh]
	 Singles Energy            =      -0.0000000000000000 [Eh]
	 Same-Spin Energy          =      -0.5589441732316585 [Eh]
	 Opposite-Spin Energy      =      -1.7448768657099309 [Eh]
	 Correlation Energy        =      -2.3038210389415896 [Eh]
	 Total Energy              =    -516.8970032558721641 [Eh]

	 ================> DF-SCS-MP2 Energies <==================
	-----------------------------------------------------------
	 SCS Same-Spin Scale       =       0.3333333333333333 [-]
	 SCS Opposite-Spin Scale   =       1.2000000000000000 [-]
	 SCS Same-Spin Energy      =      -0.1863147244105528 [Eh]
	 SCS Opposite-Spin Energy  =      -2.0938522388519170 [Eh]
	 SCS Correlation Energy    =      -2.2801669632624697 [Eh]
	 SCS Total Energy          =    -516.8733491801930313 [Eh]
	-----------------------------------------------------------

  Dipole Moment: [D]
     X:     1.0524      Y:    -3.5131      Z:     1.7974     Total:     4.0841

*** Psi4 exiting successfully. Buy a developer a beer!
