                               Psi4 1.3.2 release

  ==> Input File <==

--------------------------------------------------------------------------
#psi4
#
memory 32 gb

molecule  {
0 1
  O        0.9417500     2.5148810    -0.6596880
  N        2.0463840     0.6978680     0.1749460
  C        0.7564320    -1.5550710    -0.8733250
  C        1.8157710    -1.7711630     0.2163790
  C       -0.4497480    -0.7926040    -0.3845090
  C        2.0266990    -0.4897580     1.0228720
  C       -0.3650830     0.5850230    -0.0943830
  C        0.9119250     1.3593610    -0.2260870
  C       -1.6913630    -1.4231620    -0.2398970
  C       -1.5035900     1.3035830     0.2885800
  C       -2.8212120    -0.7143780     0.1714760
  C       -2.7281430     0.6547360     0.4326570
  H        0.4383490    -2.5216720    -1.2799980
  H        1.2165960    -1.0011160    -1.6986390
  H        1.5065410    -2.5704870     0.9013410
  H        2.7543720    -2.0878480    -0.2534440
  H        1.2290340    -0.3883270     1.7666860
  H        2.9729880    -0.5259550     1.5704730
  H        2.8793190     1.2773810     0.1528780
  H       -1.7755450    -2.4842720    -0.4701710
  H       -1.4080790     2.3720960     0.4641940
  H       -3.7741480    -1.2278540     0.2772780
  H       -3.6082280     1.2145190     0.7397060
units angstrom
no_reorient  #important for SAPT in psi4, default
symmetry c1  #important for SAPT in psi4, default
}

set PROPERTIES_ORIGIN ["COM"]
properties('MP2/aug-cc-pvtz', properties = ['dipole'])
--------------------------------------------------------------------------

    Molecular point group: c1
  Charge       = 0
  Multiplicity = 1
  Basis Set: AUG-CC-PVTZ
    Blend: AUG-CC-PVTZ
  Basis Set: (AUG-CC-PVTZ AUX)
    Blend: AUG-CC-PVTZ-JKFIT

    Orbital Energies [Eh]
    ---------------------

    Doubly Occupied:

       1A    -20.515157     2A    -15.582737     3A    -11.351472
       4A    -11.275792     5A    -11.258289     6A    -11.248808
       7A    -11.247185     8A    -11.245533     9A    -11.241747
      10A    -11.239819    11A    -11.239368    12A    -11.237942
      13A     -1.369070    14A     -1.234849    15A     -1.164206
      16A     -1.082268    17A     -1.036759    18A     -1.020644
      19A     -0.938358    20A     -0.881581    21A     -0.841302
      22A     -0.798278    23A     -0.776373    24A     -0.696840
      25A     -0.685669    26A     -0.672087    27A     -0.652533
      28A     -0.623387    29A     -0.616092    30A     -0.599903
      31A     -0.587197    32A     -0.576328    33A     -0.557013
      34A     -0.535861    35A     -0.518640    36A     -0.509872
      37A     -0.492821    38A     -0.489986    39A     -0.478379
      40A     -0.423386    41A     -0.389455    42A     -0.343868
      43A     -0.336118

  @DF-RHF Final Energy:  -514.59666504975382

   => Energetics <=

    Nuclear Repulsion Energy =            685.1217489455794976
    One-Electron Energy =               -2058.2108821149995492
    Two-Electron Energy =                 858.4924681196663414
    Total Energy =                       -514.5966650497538240
  Basis Set: (AUG-CC-PVTZ AUX)
    Blend: AUG-CC-PVTZ-RI
    Molecular point group: c1

    Geometry (in Angstrom), charge = 0, multiplicity = 1:

       Center              X                  Y                   Z               Mass
    ------------   -----------------  -----------------  -----------------  -----------------
         O            0.956715126242     2.466020085327    -0.646344477997    15.994914619570
         N            2.061349126242     0.649007085327     0.188289522003    14.003074004430
         C            0.771397126242    -1.603931914673    -0.859981477997    12.000000000000
         C            1.830736126242    -1.820023914673     0.229722522003    12.000000000000
         C           -0.434782873758    -0.841464914673    -0.371165477997    12.000000000000
         C            2.041664126242    -0.538618914673     1.036215522003    12.000000000000
         C           -0.350117873758     0.536162085327    -0.081039477997    12.000000000000
         C            0.926890126242     1.310500085327    -0.212743477997    12.000000000000
         C           -1.676397873758    -1.472022914673    -0.226553477997    12.000000000000
         C           -1.488624873758     1.254722085327     0.301923522003    12.000000000000
         C           -2.806246873758    -0.763238914673     0.184819522003    12.000000000000
         C           -2.713177873758     0.605875085327     0.446000522003    12.000000000000
         H            0.453314126242    -2.570532914673    -1.266654477997     1.007825032230
         H            1.231561126242    -1.049976914673    -1.685295477997     1.007825032230
         H            1.521506126242    -2.619347914673     0.914684522003     1.007825032230
         H            2.769337126242    -2.136708914673    -0.240100477997     1.007825032230
         H            1.243999126242    -0.437187914673     1.780029522003     1.007825032230
         H            2.987953126242    -0.574815914673     1.583816522003     1.007825032230
         H            2.894284126242     1.228520085327     0.166221522003     1.007825032230
         H           -1.760579873758    -2.533132914673    -0.456827477997     1.007825032230
         H           -1.393113873758     2.323235085327     0.477537522003     1.007825032230
         H           -3.759182873758    -1.276714914673     0.290621522003     1.007825032230
         H           -3.593262873758     1.165658085327     0.753049522003     1.007825032230

  Basis Set: AUG-CC-PVTZ
    Blend: AUG-CC-PVTZ
  Basis Set: (AUG-CC-PVTZ AUX)
    Blend: AUG-CC-PVTZ-JKFIT
	 Reference Energy          =    -514.5966650497538240 [Eh]
	 Singles Energy            =      -0.0000000000000000 [Eh]
	 Same-Spin Energy          =      -0.5586461056376336 [Eh]
	 Opposite-Spin Energy      =      -1.7443771629210441 [Eh]
	 Correlation Energy        =      -2.3030232685586776 [Eh]
	 Total Energy              =    -516.8996883183125419 [Eh]

	 ================> DF-SCS-MP2 Energies <==================
	-----------------------------------------------------------
	 SCS Same-Spin Scale       =       0.3333333333333333 [-]
	 SCS Opposite-Spin Scale   =       1.2000000000000000 [-]
	 SCS Same-Spin Energy      =      -0.1862153685458779 [Eh]
	 SCS Opposite-Spin Energy  =      -2.0932525955052528 [Eh]
	 SCS Correlation Energy    =      -2.2794679640511308 [Eh]
	 SCS Total Energy          =    -516.8761330138049743 [Eh]
	-----------------------------------------------------------

  Dipole Moment: [D]
     X:     0.6297      Y:    -3.6156      Z:     1.7689     Total:     4.0741

*** Psi4 exiting successfully. Buy a developer a beer!
