                               Psi4 1.3.2 release

  ==> Input File <==

--------------------------------------------------------------------------
#psi4
#
memory 32 gb

molecule  {
0 1
  O        0.9417500     2.5148810    -0.6596880
  N        2.0463840     0.6978680     0.1749460
  C        0.7564320    -1.5550710    -0.8733250
  C        1.8157710    -1.7711630     0.2163790
  C       -0.4801418    -0.8329006    -0.3994870
  C        2.0266990    -0.4897580     1.0228720
  C       -0.3650830     0.5850230    -0.0943830
  C        0.9119250     1.3593610    -0.2260870
  C       -1.6913630    -1.4231620    -0.2398970
  C       -1.5035900     1.3035830     0.2885800
  C       -2.8212120    -0.7143780     0.1714760
  C       -2.7281430     0.6547360     0.4326570
  H        0.4383490    -2.5216720    -1.2799980
  H        1.2165960    -1.0011160    -1.6986390
  H        1.5065410    -2.5704870     0.9013410
  H        2.7543720    -2.0878480    -0.2534440
  H        1.2290340    -0.3883270     1.7666860
  H        2.9729880    -0.5259550     1.5704730
  H        2.8793190     1.2773810     0.1528780
  H       -1.7755450    -2.4842720    -0.4701710
  H       -1.4080790     2.3720960     0.4641940
  H       -3.7741480    -1.2278540     0.2772780
  H       -3.6082280     1.2145190     0.7397060
units angstrom
no_reorient  #important for SAPT in psi4, default
symmetry c1  #important for SAPT in psi4, default
}

set PROPERTIES_ORIGIN ["COM"]
properties('MP2/aug-cc-pvtz', properties = ['dipole'])
--------------------------------------------------------------------------

    Molecular point group: c1
  Charge       = 0
  Multiplicity = 1
  Basis Set: AUG-CC-PVTZ
    Blend: AUG-CC-PVTZ
  Basis Set: (AUG-CC-PVTZ AUX)
    Blend: AUG-CC-PVTZ-JKFIT

    Orbital Energies [Eh]
    ---------------------

    Doubly Occupied:

       1A    -20.515043     2A    -15.582462     3A    -11.351898
       4A    -11.275672     5A    -11.257579     6A    -11.250165
       7A    -11.249459     8A    -11.246005     9A    -11.240241
      10A    -11.239172    11A    -11.238248    12A    -11.237195
      13A     -1.368846    14A     -1.234260    15A     -1.164463
      16A     -1.082223    17A     -1.033681    18A     -1.024715
      19A     -0.938586    20A     -0.883894    21A     -0.839563
      22A     -0.796075    23A     -0.776813    24A     -0.698075
      25A     -0.684997    26A     -0.672113    27A     -0.652169
      28A     -0.622220    29A     -0.616184    30A     -0.600345
      31A     -0.586515    32A     -0.577274    33A     -0.556173
      34A     -0.536035    35A     -0.520619    36A     -0.509813
      37A     -0.491086    38A     -0.490250    39A     -0.475966
      40A     -0.423987    41A     -0.389193    42A     -0.346961
      43A     -0.333982

  @DF-RHF Final Energy:  -514.59337312119078

   => Energetics <=

    Nuclear Repulsion Energy =            684.6509719830119138
    One-Electron Energy =               -2057.2682638438377580
    Two-Electron Energy =                 858.0239187396350644
    Total Energy =                       -514.5933731211907798
  Basis Set: (AUG-CC-PVTZ AUX)
    Blend: AUG-CC-PVTZ-RI
    Molecular point group: c1

    Geometry (in Angstrom), charge = 0, multiplicity = 1:

       Center              X                  Y                   Z               Mass
    ------------   -----------------  -----------------  -----------------  -----------------
         O            0.958979320421     2.469021991214    -0.645228687921    15.994914619570
         N            2.063613320421     0.652008991214     0.189405312079    14.003074004430
         C            0.773661320421    -1.600930008786    -0.858865687921    12.000000000000
         C            1.833000320421    -1.817022008786     0.230838312079    12.000000000000
         C           -0.462912479579    -0.878759608786    -0.385027687921    12.000000000000
         C            2.043928320421    -0.535617008786     1.037331312079    12.000000000000
         C           -0.347853679579     0.539163991214    -0.079923687921    12.000000000000
         C            0.929154320421     1.313501991214    -0.211627687921    12.000000000000
         C           -1.674133679579    -1.469021008786    -0.225437687921    12.000000000000
         C           -1.486360679579     1.257723991214     0.303039312079    12.000000000000
         C           -2.803982679579    -0.760237008786     0.185935312079    12.000000000000
         C           -2.710913679579     0.608876991214     0.447116312079    12.000000000000
         H            0.455578320421    -2.567531008786    -1.265538687921     1.007825032230
         H            1.233825320421    -1.046975008786    -1.684179687921     1.007825032230
         H            1.523770320421    -2.616346008786     0.915800312079     1.007825032230
         H            2.771601320421    -2.133707008786    -0.238984687921     1.007825032230
         H            1.246263320421    -0.434186008786     1.781145312079     1.007825032230
         H            2.990217320421    -0.571814008786     1.584932312079     1.007825032230
         H            2.896548320421     1.231521991214     0.167337312079     1.007825032230
         H           -1.758315679579    -2.530131008786    -0.455711687921     1.007825032230
         H           -1.390849679579     2.326236991214     0.478653312079     1.007825032230
         H           -3.756918679579    -1.273713008786     0.291737312079     1.007825032230
         H           -3.590998679579     1.168659991214     0.754165312079     1.007825032230

  Basis Set: AUG-CC-PVTZ
    Blend: AUG-CC-PVTZ
  Basis Set: (AUG-CC-PVTZ AUX)
    Blend: AUG-CC-PVTZ-JKFIT
	 Reference Energy          =    -514.5933731211907798 [Eh]
	 Singles Energy            =      -0.0000000000000000 [Eh]
	 Same-Spin Energy          =      -0.5585352550544711 [Eh]
	 Opposite-Spin Energy      =      -1.7444482749248356 [Eh]
	 Correlation Energy        =      -2.3029835299793069 [Eh]
	 Total Energy              =    -516.8963566511700947 [Eh]

	 ================> DF-SCS-MP2 Energies <==================
	-----------------------------------------------------------
	 SCS Same-Spin Scale       =       0.3333333333333333 [-]
	 SCS Opposite-Spin Scale   =       1.2000000000000000 [-]
	 SCS Same-Spin Energy      =      -0.1861784183514903 [Eh]
	 SCS Opposite-Spin Energy  =      -2.0933379299098025 [Eh]
	 SCS Correlation Energy    =      -2.2795163482612928 [Eh]
	 SCS Total Energy          =    -516.8728894694520477 [Eh]
	-----------------------------------------------------------

  Dipole Moment: [D]
     X:     0.6323      Y:    -3.5997      Z:     1.7799     Total:     4.0651

*** Psi4 exiting successfully. Buy a developer a beer!
