                               Psi4 1.3.2 release

  ==> Input File <==

--------------------------------------------------------------------------
#psi4
#
memory 32 gb

molecule  {
0 1
  O        0.9417500     2.5148810    -0.6596880
  N        2.0463840     0.6978680     0.1749460
  C        0.7564320    -1.5550710    -0.8733250
  C        1.8157710    -1.7711630     0.2163790
  C       -0.4256035    -0.7928600    -0.3892949
  C        2.0266990    -0.4897580     1.0228720
  C       -0.3650830     0.5850230    -0.0943830
  C        0.9119250     1.3593610    -0.2260870
  C       -1.6913630    -1.4231620    -0.2398970
  C       -1.5035900     1.3035830     0.2885800
  C       -2.8212120    -0.7143780     0.1714760
  C       -2.7281430     0.6547360     0.4326570
  H        0.4383490    -2.5216720    -1.2799980
  H        1.2165960    -1.0011160    -1.6986390
  H        1.5065410    -2.5704870     0.9013410
  H        2.7543720    -2.0878480    -0.2534440
  H        1.2290340    -0.3883270     1.7666860
  H        2.9729880    -0.5259550     1.5704730
  H        2.8793190     1.2773810     0.1528780
  H       -1.7755450    -2.4842720    -0.4701710
  H       -1.4080790     2.3720960     0.4641940
  H       -3.7741480    -1.2278540     0.2772780
  H       -3.6082280     1.2145190     0.7397060
units angstrom
no_reorient  #important for SAPT in psi4, default
symmetry c1  #important for SAPT in psi4, default
}

set PROPERTIES_ORIGIN ["COM"]
properties('MP2/aug-cc-pvtz', properties = ['dipole'])
--------------------------------------------------------------------------

    Molecular point group: c1
  Charge       = 0
  Multiplicity = 1
  Basis Set: AUG-CC-PVTZ
    Blend: AUG-CC-PVTZ
  Basis Set: (AUG-CC-PVTZ AUX)
    Blend: AUG-CC-PVTZ-JKFIT

    Orbital Energies [Eh]
    ---------------------

    Doubly Occupied:

       1A    -20.514796     2A    -15.582763     3A    -11.350770
       4A    -11.275985     5A    -11.259993     6A    -11.248621
       7A    -11.247367     8A    -11.245473     9A    -11.243946
      10A    -11.239907    11A    -11.239032    12A    -11.238319
      13A     -1.368807    14A     -1.235044    15A     -1.162758
      16A     -1.084773    17A     -1.036913    18A     -1.019032
      19A     -0.939152    20A     -0.881164    21A     -0.842307
      22A     -0.798217    23A     -0.775098    24A     -0.696470
      25A     -0.686189    26A     -0.672535    27A     -0.652983
      28A     -0.623370    29A     -0.616179    30A     -0.599623
      31A     -0.587704    32A     -0.575931    33A     -0.558004
      34A     -0.536344    35A     -0.518999    36A     -0.508794
      37A     -0.493359    38A     -0.489151    39A     -0.481069
      40A     -0.422373    41A     -0.389502    42A     -0.343897
      43A     -0.333824

  @DF-RHF Final Energy:  -514.59527424315115

   => Energetics <=

    Nuclear Repulsion Energy =            685.1559725389180358
    One-Electron Energy =               -2058.2694214822126924
    Two-Electron Energy =                 858.5181747001436179
    Total Energy =                       -514.5952742431511524
  Basis Set: (AUG-CC-PVTZ AUX)
    Blend: AUG-CC-PVTZ-RI
    Molecular point group: c1

    Geometry (in Angstrom), charge = 0, multiplicity = 1:

       Center              X                  Y                   Z               Mass
    ------------   -----------------  -----------------  -----------------  -----------------
         O            0.954916475321     2.466039156114    -0.645987951109    15.994914619570
         N            2.059550475321     0.649026156114     0.188646048891    14.003074004430
         C            0.769598475321    -1.603912843886    -0.859624951109    12.000000000000
         C            1.828937475321    -1.820004843886     0.230079048891    12.000000000000
         C           -0.412437024679    -0.841701843886    -0.375594851109    12.000000000000
         C            2.039865475321    -0.538599843886     1.036572048891    12.000000000000
         C           -0.351916524679     0.536181156114    -0.080682951109    12.000000000000
         C            0.925091475321     1.310519156114    -0.212386951109    12.000000000000
         C           -1.678196524679    -1.472003843886    -0.226196951109    12.000000000000
         C           -1.490423524679     1.254741156114     0.302280048891    12.000000000000
         C           -2.808045524679    -0.763219843886     0.185176048891    12.000000000000
         C           -2.714976524679     0.605894156114     0.446357048891    12.000000000000
         H            0.451515475321    -2.570513843886    -1.266297951109     1.007825032230
         H            1.229762475321    -1.049957843886    -1.684938951109     1.007825032230
         H            1.519707475321    -2.619328843886     0.915041048891     1.007825032230
         H            2.767538475321    -2.136689843886    -0.239743951109     1.007825032230
         H            1.242200475321    -0.437168843886     1.780386048891     1.007825032230
         H            2.986154475321    -0.574796843886     1.584173048891     1.007825032230
         H            2.892485475321     1.228539156114     0.166578048891     1.007825032230
         H           -1.762378524679    -2.533113843886    -0.456470951109     1.007825032230
         H           -1.394912524679     2.323254156114     0.477894048891     1.007825032230
         H           -3.760981524679    -1.276695843886     0.290978048891     1.007825032230
         H           -3.595061524679     1.165677156114     0.753406048891     1.007825032230

  Basis Set: AUG-CC-PVTZ
    Blend: AUG-CC-PVTZ
  Basis Set: (AUG-CC-PVTZ AUX)
    Blend: AUG-CC-PVTZ-JKFIT
	 Reference Energy          =    -514.5952742431511524 [Eh]
	 Singles Energy            =      -0.0000000000000000 [Eh]
	 Same-Spin Energy          =      -0.5589287236425300 [Eh]
	 Opposite-Spin Energy      =      -1.7447786324740113 [Eh]
	 Correlation Energy        =      -2.3037073561165413 [Eh]
	 Total Energy              =    -516.8989815992676995 [Eh]

	 ================> DF-SCS-MP2 Energies <==================
	-----------------------------------------------------------
	 SCS Same-Spin Scale       =       0.3333333333333333 [-]
	 SCS Opposite-Spin Scale   =       1.2000000000000000 [-]
	 SCS Same-Spin Energy      =      -0.1863095745475100 [Eh]
	 SCS Opposite-Spin Energy  =      -2.0937343589688133 [Eh]
	 SCS Correlation Energy    =      -2.2800439335163234 [Eh]
	 SCS Total Energy          =    -516.8753181766675198 [Eh]
	-----------------------------------------------------------

  Dipole Moment: [D]
     X:     0.6458      Y:    -3.6311      Z:     1.7626     Total:     4.0876

*** Psi4 exiting successfully. Buy a developer a beer!
