                               Psi4 1.3.2 release

  ==> Input File <==

--------------------------------------------------------------------------
#psi4
#
memory 32 gb

molecule  {
0 1
  O        0.9417500     2.5148810    -0.6596880
  N        2.0463840     0.6978680     0.1749460
  C        0.7564320    -1.5550710    -0.8733250
  C        1.8157710    -1.7711630     0.2163790
  C       -0.4736573    -0.7921438    -0.3786726
  C        2.0266990    -0.4897580     1.0228720
  C       -0.3650830     0.5850230    -0.0943830
  C        0.9119250     1.3593610    -0.2260870
  C       -1.6913630    -1.4231620    -0.2398970
  C       -1.5035900     1.3035830     0.2885800
  C       -2.8212120    -0.7143780     0.1714760
  C       -2.7281430     0.6547360     0.4326570
  H        0.4383490    -2.5216720    -1.2799980
  H        1.2165960    -1.0011160    -1.6986390
  H        1.5065410    -2.5704870     0.9013410
  H        2.7543720    -2.0878480    -0.2534440
  H        1.2290340    -0.3883270     1.7666860
  H        2.9729880    -0.5259550     1.5704730
  H        2.8793190     1.2773810     0.1528780
  H       -1.7755450    -2.4842720    -0.4701710
  H       -1.4080790     2.3720960     0.4641940
  H       -3.7741480    -1.2278540     0.2772780
  H       -3.6082280     1.2145190     0.7397060
units angstrom
no_reorient  #important for SAPT in psi4, default
symmetry c1  #important for SAPT in psi4, default
}

set PROPERTIES_ORIGIN ["COM"]
properties('MP2/aug-cc-pvtz', properties = ['dipole'])
--------------------------------------------------------------------------

    Molecular point group: c1
  Charge       = 0
  Multiplicity = 1
  Basis Set: AUG-CC-PVTZ
    Blend: AUG-CC-PVTZ
  Basis Set: (AUG-CC-PVTZ AUX)
    Blend: AUG-CC-PVTZ-JKFIT

    Orbital Energies [Eh]
    ---------------------

    Doubly Occupied:

       1A    -20.515501     2A    -15.582709     3A    -11.352165
       4A    -11.275601     5A    -11.256585     6A    -11.249013
       7A    -11.247051     8A    -11.245591     9A    -11.239739
      10A    -11.239723    11A    -11.239438    12A    -11.237505
      13A     -1.369322    14A     -1.234672    15A     -1.165853
      16A     -1.079910    17A     -1.036726    18A     -1.022261
      19A     -0.937571    20A     -0.882008    21A     -0.840224
      22A     -0.798295    23A     -0.777686    24A     -0.697222
      25A     -0.685169    26A     -0.671802    27A     -0.652145
      28A     -0.624028    29A     -0.615589    30A     -0.600178
      31A     -0.586682    32A     -0.576637    33A     -0.556051
      34A     -0.535452    35A     -0.518552    36A     -0.510886
      37A     -0.492787    38A     -0.490617    39A     -0.474570
      40A     -0.424308    41A     -0.389402    42A     -0.344380
      43A     -0.337921

  @DF-RHF Final Energy:  -514.59652940339731

   => Energetics <=

    Nuclear Repulsion Energy =            685.1040665124725138
    One-Electron Energy =               -2058.1821376121961293
    Two-Electron Energy =                 858.4815416963264170
    Total Energy =                       -514.5965294033973123
  Basis Set: (AUG-CC-PVTZ AUX)
    Blend: AUG-CC-PVTZ-RI
    Molecular point group: c1

    Geometry (in Angstrom), charge = 0, multiplicity = 1:

       Center              X                  Y                   Z               Mass
    ------------   -----------------  -----------------  -----------------  -----------------
         O            0.958496255876     2.465985802606    -0.646779262160    15.994914619570
         N            2.063130255876     0.648972802606     0.187854737840    14.003074004430
         C            0.773178255876    -1.603966197394    -0.860416262160    12.000000000000
         C            1.832517255876    -1.820058197394     0.229287737840    12.000000000000
         C           -0.456911044124    -0.841038997394    -0.365763862160    12.000000000000
         C            2.043445255876    -0.538653197394     1.035780737840    12.000000000000
         C           -0.348336744124     0.536127802606    -0.081474262160    12.000000000000
         C            0.928671255876     1.310465802606    -0.213178262160    12.000000000000
         C           -1.674616744124    -1.472057197394    -0.226988262160    12.000000000000
         C           -1.486843744124     1.254687802606     0.301488737840    12.000000000000
         C           -2.804465744124    -0.763273197394     0.184384737840    12.000000000000
         C           -2.711396744124     0.605840802606     0.445565737840    12.000000000000
         H            0.455095255876    -2.570567197394    -1.267089262160     1.007825032230
         H            1.233342255876    -1.050011197394    -1.685730262160     1.007825032230
         H            1.523287255876    -2.619382197394     0.914249737840     1.007825032230
         H            2.771118255876    -2.136743197394    -0.240535262160     1.007825032230
         H            1.245780255876    -0.437222197394     1.779594737840     1.007825032230
         H            2.989734255876    -0.574850197394     1.583381737840     1.007825032230
         H            2.896065255876     1.228485802606     0.165786737840     1.007825032230
         H           -1.758798744124    -2.533167197394    -0.457262262160     1.007825032230
         H           -1.391332744124     2.323200802606     0.477102737840     1.007825032230
         H           -3.757401744124    -1.276749197394     0.290186737840     1.007825032230
         H           -3.591481744124     1.165623802606     0.752614737840     1.007825032230

  Basis Set: AUG-CC-PVTZ
    Blend: AUG-CC-PVTZ
  Basis Set: (AUG-CC-PVTZ AUX)
    Blend: AUG-CC-PVTZ-JKFIT
	 Reference Energy          =    -514.5965294033973123 [Eh]
	 Singles Energy            =      -0.0000000000000000 [Eh]
	 Same-Spin Energy          =      -0.5584054192371857 [Eh]
	 Opposite-Spin Energy      =      -1.7440745648350968 [Eh]
	 Correlation Energy        =      -2.3024799840722823 [Eh]
	 Total Energy              =    -516.8990093874696186 [Eh]

	 ================> DF-SCS-MP2 Energies <==================
	-----------------------------------------------------------
	 SCS Same-Spin Scale       =       0.3333333333333333 [-]
	 SCS Opposite-Spin Scale   =       1.2000000000000000 [-]
	 SCS Same-Spin Energy      =      -0.1861351397457285 [Eh]
	 SCS Opposite-Spin Energy  =      -2.0928894778021161 [Eh]
	 SCS Correlation Energy    =      -2.2790246175478446 [Eh]
	 SCS Total Energy          =    -516.8755540209451738 [Eh]
	-----------------------------------------------------------

  Dipole Moment: [D]
     X:     0.6140      Y:    -3.6003      Z:     1.7748     Total:     4.0607

*** Psi4 exiting successfully. Buy a developer a beer!
