                               Psi4 1.3.2 release

  ==> Input File <==

--------------------------------------------------------------------------
#psi4
#
memory 32 gb

molecule  {
0 1
  O        0.9417500     2.5148810    -0.6596880
  N        1.9998707     0.6855876     0.1581961
  C        0.7564320    -1.5550710    -0.8733250
  C        1.8157710    -1.7711630     0.2163790
  C       -0.4497480    -0.7926040    -0.3845090
  C        2.0266990    -0.4897580     1.0228720
  C       -0.3650830     0.5850230    -0.0943830
  C        0.9119250     1.3593610    -0.2260870
  C       -1.6913630    -1.4231620    -0.2398970
  C       -1.5035900     1.3035830     0.2885800
  C       -2.8212120    -0.7143780     0.1714760
  C       -2.7281430     0.6547360     0.4326570
  H        0.4383490    -2.5216720    -1.2799980
  H        1.2165960    -1.0011160    -1.6986390
  H        1.5065410    -2.5704870     0.9013410
  H        2.7543720    -2.0878480    -0.2534440
  H        1.2290340    -0.3883270     1.7666860
  H        2.9729880    -0.5259550     1.5704730
  H        2.8793190     1.2773810     0.1528780
  H       -1.7755450    -2.4842720    -0.4701710
  H       -1.4080790     2.3720960     0.4641940
  H       -3.7741480    -1.2278540     0.2772780
  H       -3.6082280     1.2145190     0.7397060
units angstrom
no_reorient  #important for SAPT in psi4, default
symmetry c1  #important for SAPT in psi4, default
}

set PROPERTIES_ORIGIN ["COM"]
properties('MP2/aug-cc-pvtz', properties = ['dipole'])
--------------------------------------------------------------------------

    Molecular point group: c1
  Charge       = 0
  Multiplicity = 1
  Basis Set: AUG-CC-PVTZ
    Blend: AUG-CC-PVTZ
  Basis Set: (AUG-CC-PVTZ AUX)
    Blend: AUG-CC-PVTZ-JKFIT

    Orbital Energies [Eh]
    ---------------------

    Doubly Occupied:

       1A    -20.510489     2A    -15.588363     3A    -11.346796
       4A    -11.278614     5A    -11.257187     6A    -11.247641
       7A    -11.245017     8A    -11.243714     9A    -11.241005
      10A    -11.239485    11A    -11.238830    12A    -11.238725
      13A     -1.369180    14A     -1.241007    15A     -1.162962
      16A     -1.082966    17A     -1.036608    18A     -1.021165
      19A     -0.940723    20A     -0.881339    21A     -0.840690
      22A     -0.798299    23A     -0.773930    24A     -0.694174
      25A     -0.689138    26A     -0.670861    27A     -0.654837
      28A     -0.622725    29A     -0.615265    30A     -0.599544
      31A     -0.587916    32A     -0.572227    33A     -0.558633
      34A     -0.536920    35A     -0.518125    36A     -0.506992
      37A     -0.492780    38A     -0.489246    39A     -0.478344
      40A     -0.421715    41A     -0.391029    42A     -0.342563
      43A     -0.335342

  @DF-RHF Final Energy:  -514.59267303984120

   => Energetics <=

    Nuclear Repulsion Energy =            686.2610755822646524
    One-Electron Energy =               -2060.5012780758006556
    Two-Electron Energy =                 859.6475294536946876
    Total Energy =                       -514.5926730398412019
  Basis Set: (AUG-CC-PVTZ AUX)
    Blend: AUG-CC-PVTZ-RI
    Molecular point group: c1

    Geometry (in Angstrom), charge = 0, multiplicity = 1:

       Center              X                  Y                   Z               Mass
    ------------   -----------------  -----------------  -----------------  -----------------
         O            0.960758537899     2.467087623268    -0.644888405413    15.994914619570
         N            2.018879237899     0.637794223268     0.172995694587    14.003074004430
         C            0.775440537899    -1.602864376732    -0.858525405413    12.000000000000
         C            1.834779537899    -1.818956376732     0.231178594587    12.000000000000
         C           -0.430739462101    -0.840397376732    -0.369709405413    12.000000000000
         C            2.045707537899    -0.537551376732     1.037671594587    12.000000000000
         C           -0.346074462101     0.537229623268    -0.079583405413    12.000000000000
         C            0.930933537899     1.311567623268    -0.211287405413    12.000000000000
         C           -1.672354462101    -1.470955376732    -0.225097405413    12.000000000000
         C           -1.484581462101     1.255789623268     0.303379594587    12.000000000000
         C           -2.802203462101    -0.762171376732     0.186275594587    12.000000000000
         C           -2.709134462101     0.606942623268     0.447456594587    12.000000000000
         H            0.457357537899    -2.569465376732    -1.265198405413     1.007825032230
         H            1.235604537899    -1.048909376732    -1.683839405413     1.007825032230
         H            1.525549537899    -2.618280376732     0.916140594587     1.007825032230
         H            2.773380537899    -2.135641376732    -0.238644405413     1.007825032230
         H            1.248042537899    -0.436120376732     1.781485594587     1.007825032230
         H            2.991996537899    -0.573748376732     1.585272594587     1.007825032230
         H            2.898327537899     1.229587623268     0.167677594587     1.007825032230
         H           -1.756536462101    -2.532065376732    -0.455371405413     1.007825032230
         H           -1.389070462101     2.324302623268     0.478993594587     1.007825032230
         H           -3.755139462101    -1.275647376732     0.292077594587     1.007825032230
         H           -3.589219462101     1.166725623268     0.754505594587     1.007825032230

  Basis Set: AUG-CC-PVTZ
    Blend: AUG-CC-PVTZ
  Basis Set: (AUG-CC-PVTZ AUX)
    Blend: AUG-CC-PVTZ-JKFIT
	 Reference Energy          =    -514.5926730398412019 [Eh]
	 Singles Energy            =      -0.0000000000000000 [Eh]
	 Same-Spin Energy          =      -0.5591061082003864 [Eh]
	 Opposite-Spin Energy      =      -1.7448719341054733 [Eh]
	 Correlation Energy        =      -2.3039780423058596 [Eh]
	 Total Energy              =    -516.8966510821470592 [Eh]

	 ================> DF-SCS-MP2 Energies <==================
	-----------------------------------------------------------
	 SCS Same-Spin Scale       =       0.3333333333333333 [-]
	 SCS Opposite-Spin Scale   =       1.2000000000000000 [-]
	 SCS Same-Spin Energy      =      -0.1863687027334621 [Eh]
	 SCS Opposite-Spin Energy  =      -2.0938463209265676 [Eh]
	 SCS Correlation Energy    =      -2.2802150236600296 [Eh]
	 SCS Total Energy          =    -516.8728880635012501 [Eh]
	-----------------------------------------------------------

  Dipole Moment: [D]
     X:     0.8152      Y:    -3.7091      Z:     1.8579     Total:     4.2278

*** Psi4 exiting successfully. Buy a developer a beer!
