                               Psi4 1.3.2 release

  ==> Input File <==

--------------------------------------------------------------------------
#psi4
#
memory 32 gb

molecule  {
0 1
  O        0.9417500     2.5148810    -0.6596880
  N        2.0463840     0.6978680     0.1749460
  C        0.7564320    -1.5550710    -0.8733250
  C        1.8157710    -1.7711630     0.2163790
  C       -0.4497480    -0.7926040    -0.3845090
  C        1.8744682    -0.4770952     1.0233138
  C       -0.3650830     0.5850230    -0.0943830
  C        0.9119250     1.3593610    -0.2260870
  C       -1.6913630    -1.4231620    -0.2398970
  C       -1.5035900     1.3035830     0.2885800
  C       -2.8212120    -0.7143780     0.1714760
  C       -2.7281430     0.6547360     0.4326570
  H        0.4383490    -2.5216720    -1.2799980
  H        1.2165960    -1.0011160    -1.6986390
  H        1.5065410    -2.5704870     0.9013410
  H        2.7543720    -2.0878480    -0.2534440
  H        1.2290340    -0.3883270     1.7666860
  H        2.9729880    -0.5259550     1.5704730
  H        2.8793190     1.2773810     0.1528780
  H       -1.7755450    -2.4842720    -0.4701710
  H       -1.4080790     2.3720960     0.4641940
  H       -3.7741480    -1.2278540     0.2772780
  H       -3.6082280     1.2145190     0.7397060
units angstrom
no_reorient  #important for SAPT in psi4, default
symmetry c1  #important for SAPT in psi4, default
}

set PROPERTIES_ORIGIN ["COM"]
properties('MP2/aug-cc-pvtz', properties = ['dipole'])
--------------------------------------------------------------------------

    Molecular point group: c1
  Charge       = 0
  Multiplicity = 1
  Basis Set: AUG-CC-PVTZ
    Blend: AUG-CC-PVTZ
  Basis Set: (AUG-CC-PVTZ AUX)
    Blend: AUG-CC-PVTZ-JKFIT

    Orbital Energies [Eh]
    ---------------------

    Doubly Occupied:

       1A    -20.514960     2A    -15.584542     3A    -11.349362
       4A    -11.278847     5A    -11.258880     6A    -11.249560
       7A    -11.248110     8A    -11.246402     9A    -11.242672
      10A    -11.240765    11A    -11.239881    12A    -11.237628
      13A     -1.369460    14A     -1.237887    15A     -1.165062
      16A     -1.084680    17A     -1.036564    18A     -1.021065
      19A     -0.938559    20A     -0.879550    21A     -0.846408
      22A     -0.800308    23A     -0.778447    24A     -0.702347
      25A     -0.694572    26A     -0.672505    27A     -0.646577
      28A     -0.628684    29A     -0.612928    30A     -0.601727
      31A     -0.584062    32A     -0.580812    33A     -0.556385
      34A     -0.537717    35A     -0.520821    36A     -0.508419
      37A     -0.491400    38A     -0.485827    39A     -0.467859
      40A     -0.421173    41A     -0.393225    42A     -0.344484
      43A     -0.337205

  @DF-RHF Final Energy:  -514.56867233054049

   => Energetics <=

    Nuclear Repulsion Energy =            686.9260384147961531
    One-Electron Energy =               -2061.7127655832928212
    Two-Electron Energy =                 860.2180548379562879
    Total Energy =                       -514.5686723305404939
  Basis Set: (AUG-CC-PVTZ AUX)
    Blend: AUG-CC-PVTZ-RI
    Molecular point group: c1

    Geometry (in Angstrom), charge = 0, multiplicity = 1:

       Center              X                  Y                   Z               Mass
    ------------   -----------------  -----------------  -----------------  -----------------
         O            0.968055599998     2.465076766688    -0.646377390005    15.994914619570
         N            2.072689599998     0.648063766688     0.188256609995    14.003074004430
         C            0.782737599998    -1.604875233312    -0.860014390005    12.000000000000
         C            1.842076599998    -1.820967233312     0.229689609995    12.000000000000
         C           -0.423442400002    -0.842408233312    -0.371198390005    12.000000000000
         C            1.900773799998    -0.526899433312     1.036624409995    12.000000000000
         C           -0.338777400002     0.535218766688    -0.081072390005    12.000000000000
         C            0.938230599998     1.309556766688    -0.212776390005    12.000000000000
         C           -1.665057400002    -1.472966233312    -0.226586390005    12.000000000000
         C           -1.477284400002     1.253778766688     0.301890609995    12.000000000000
         C           -2.794906400002    -0.764182233312     0.184786609995    12.000000000000
         C           -2.701837400002     0.604931766688     0.445967609995    12.000000000000
         H            0.464654599998    -2.571476233312    -1.266687390005     1.007825032230
         H            1.242901599998    -1.050920233312    -1.685328390005     1.007825032230
         H            1.532846599998    -2.620291233312     0.914651609995     1.007825032230
         H            2.780677599998    -2.137652233312    -0.240133390005     1.007825032230
         H            1.255339599998    -0.438131233312     1.779996609995     1.007825032230
         H            2.999293599998    -0.575759233312     1.583783609995     1.007825032230
         H            2.905624599998     1.227576766688     0.166188609995     1.007825032230
         H           -1.749239400002    -2.534076233312    -0.456860390005     1.007825032230
         H           -1.381773400002     2.322291766688     0.477504609995     1.007825032230
         H           -3.747842400002    -1.277658233312     0.290588609995     1.007825032230
         H           -3.581922400002     1.164714766688     0.753016609995     1.007825032230

  Basis Set: AUG-CC-PVTZ
    Blend: AUG-CC-PVTZ
  Basis Set: (AUG-CC-PVTZ AUX)
    Blend: AUG-CC-PVTZ-JKFIT
	 Reference Energy          =    -514.5686723305404939 [Eh]
	 Singles Energy            =      -0.0000000000000000 [Eh]
	 Same-Spin Energy          =      -0.5596242521893795 [Eh]
	 Opposite-Spin Energy      =      -1.7465215055795329 [Eh]
	 Correlation Energy        =      -2.3061457577689124 [Eh]
	 Total Energy              =    -516.8748180883094392 [Eh]

	 ================> DF-SCS-MP2 Energies <==================
	-----------------------------------------------------------
	 SCS Same-Spin Scale       =       0.3333333333333333 [-]
	 SCS Opposite-Spin Scale   =       1.2000000000000000 [-]
	 SCS Same-Spin Energy      =      -0.1865414173964598 [Eh]
	 SCS Opposite-Spin Energy  =      -2.0958258066954394 [Eh]
	 SCS Correlation Energy    =      -2.2823672240918991 [Eh]
	 SCS Total Energy          =    -516.8510395546323934 [Eh]
	-----------------------------------------------------------

  Dipole Moment: [D]
     X:     0.4907      Y:    -3.6013      Z:     1.7365     Total:     4.0281

*** Psi4 exiting successfully. Buy a developer a beer!
