                               Psi4 1.3.2 release

  ==> Input File <==

--------------------------------------------------------------------------
#psi4
#
memory 32 gb

molecule  {
0 1
  O        1.0697028     2.5109754    -0.6420392
  N        2.0463840     0.6978680     0.1749460
  C        0.7564320    -1.5550710    -0.8733250
  C        1.8157710    -1.7711630     0.2163790
  C       -0.4497480    -0.7926040    -0.3845090
  C        2.0266990    -0.4897580     1.0228720
  C       -0.3650830     0.5850230    -0.0943830
  C        0.9119250     1.3593610    -0.2260870
  C       -1.6913630    -1.4231620    -0.2398970
  C       -1.5035900     1.3035830     0.2885800
  C       -2.8212120    -0.7143780     0.1714760
  C       -2.7281430     0.6547360     0.4326570
  H        0.4383490    -2.5216720    -1.2799980
  H        1.2165960    -1.0011160    -1.6986390
  H        1.5065410    -2.5704870     0.9013410
  H        2.7543720    -2.0878480    -0.2534440
  H        1.2290340    -0.3883270     1.7666860
  H        2.9729880    -0.5259550     1.5704730
  H        2.8793190     1.2773810     0.1528780
  H       -1.7755450    -2.4842720    -0.4701710
  H       -1.4080790     2.3720960     0.4641940
  H       -3.7741480    -1.2278540     0.2772780
  H       -3.6082280     1.2145190     0.7397060
units angstrom
no_reorient  #important for SAPT in psi4, default
symmetry c1  #important for SAPT in psi4, default
}

set PROPERTIES_ORIGIN ["COM"]
properties('MP2/aug-cc-pvtz', properties = ['dipole'])
--------------------------------------------------------------------------

    Molecular point group: c1
  Charge       = 0
  Multiplicity = 1
  Basis Set: AUG-CC-PVTZ
    Blend: AUG-CC-PVTZ
  Basis Set: (AUG-CC-PVTZ AUX)
    Blend: AUG-CC-PVTZ-JKFIT

    Orbital Energies [Eh]
    ---------------------

    Doubly Occupied:

       1A    -20.512722     2A    -15.575505     3A    -11.350640
       4A    -11.271924     5A    -11.261915     6A    -11.252025
       7A    -11.251962     8A    -11.249566     9A    -11.244320
      10A    -11.242516    11A    -11.239777    12A    -11.236773
      13A     -1.370022    14A     -1.227490    15A     -1.166877
      16A     -1.082300    17A     -1.040131    18A     -1.021483
      19A     -0.937383    20A     -0.883154    21A     -0.842214
      22A     -0.799364    23A     -0.776259    24A     -0.696392
      25A     -0.684119    26A     -0.673267    27A     -0.652072
      28A     -0.625195    29A     -0.614240    30A     -0.601463
      31A     -0.587054    32A     -0.576614    33A     -0.557242
      34A     -0.535637    35A     -0.518755    36A     -0.511960
      37A     -0.493352    38A     -0.490837    39A     -0.479080
      40A     -0.422321    41A     -0.383241    42A     -0.348166
      43A     -0.338645

  @DF-RHF Final Energy:  -514.59381939530795

   => Energetics <=

    Nuclear Repulsion Energy =            684.6875713777735655
    One-Electron Energy =               -2057.3108312357567229
    Two-Electron Energy =                 858.0294404626752112
    Total Energy =                       -514.5938193953079463
  Basis Set: (AUG-CC-PVTZ AUX)
    Blend: AUG-CC-PVTZ-RI
    Molecular point group: c1

    Geometry (in Angstrom), charge = 0, multiplicity = 1:

       Center              X                  Y                   Z               Mass
    ------------   -----------------  -----------------  -----------------  -----------------
         O            1.071962795388     2.462502293636    -0.630448123535    15.994914619570
         N            2.048643995388     0.649394893636     0.186537076465    14.003074004430
         C            0.758691995388    -1.603544106364    -0.861733923535    12.000000000000
         C            1.818030995388    -1.819636106364     0.227970076465    12.000000000000
         C           -0.447488004612    -0.841077106364    -0.372917923535    12.000000000000
         C            2.028958995388    -0.538231106364     1.034463076465    12.000000000000
         C           -0.362823004612     0.536549893636    -0.082791923535    12.000000000000
         C            0.914184995388     1.310887893636    -0.214495923535    12.000000000000
         C           -1.689103004612    -1.471635106364    -0.228305923535    12.000000000000
         C           -1.501330004612     1.255109893636     0.300171076465    12.000000000000
         C           -2.818952004612    -0.762851106364     0.183067076465    12.000000000000
         C           -2.725883004612     0.606262893636     0.444248076465    12.000000000000
         H            0.440608995388    -2.570145106364    -1.268406923535     1.007825032230
         H            1.218855995388    -1.049589106364    -1.687047923535     1.007825032230
         H            1.508800995388    -2.618960106364     0.912932076465     1.007825032230
         H            2.756631995388    -2.136321106364    -0.241852923535     1.007825032230
         H            1.231293995388    -0.436800106364     1.778277076465     1.007825032230
         H            2.975247995388    -0.574428106364     1.582064076465     1.007825032230
         H            2.881578995388     1.228907893636     0.164469076465     1.007825032230
         H           -1.773285004612    -2.532745106364    -0.458579923535     1.007825032230
         H           -1.405819004612     2.323622893636     0.475785076465     1.007825032230
         H           -3.771888004612    -1.276327106364     0.288869076465     1.007825032230
         H           -3.605968004612     1.166045893636     0.751297076465     1.007825032230

  Basis Set: AUG-CC-PVTZ
    Blend: AUG-CC-PVTZ
  Basis Set: (AUG-CC-PVTZ AUX)
    Blend: AUG-CC-PVTZ-JKFIT
	 Reference Energy          =    -514.5938193953079463 [Eh]
	 Singles Energy            =      -0.0000000000000000 [Eh]
	 Same-Spin Energy          =      -0.5586188212901173 [Eh]
	 Opposite-Spin Energy      =      -1.7443511345183083 [Eh]
	 Correlation Energy        =      -2.3029699558084253 [Eh]
	 Total Energy              =    -516.8967893511163538 [Eh]

	 ================> DF-SCS-MP2 Energies <==================
	-----------------------------------------------------------
	 SCS Same-Spin Scale       =       0.3333333333333333 [-]
	 SCS Opposite-Spin Scale   =       1.2000000000000000 [-]
	 SCS Same-Spin Energy      =      -0.1862062737633724 [Eh]
	 SCS Opposite-Spin Energy  =      -2.0932213614219699 [Eh]
	 SCS Correlation Energy    =      -2.2794276351853422 [Eh]
	 SCS Total Energy          =    -516.8732470304933031 [Eh]
	-----------------------------------------------------------

  Dipole Moment: [D]
     X:     0.2132      Y:    -3.6719      Z:     1.7234     Total:     4.0618

*** Psi4 exiting successfully. Buy a developer a beer!
