                               Psi4 1.4a3.dev225

  ==> Input File <==

--------------------------------------------------------------------------
#psi4
#
memory 32 gb

molecule  {
0 1
  O        0.9417500     2.5148810    -0.6596880
  N        2.0463840     0.6978680     0.1749460
  C        0.7564320    -1.5550710    -0.8733250
  C        1.8157710    -1.7711630     0.2163790
  C       -0.4497480    -0.7926040    -0.3845090
  C        2.0266990    -0.4897580     1.0228720
  C       -0.3650830     0.5850230    -0.0943830
  C        0.9119250     1.3593610    -0.2260870
  C       -1.6913630    -1.4231620    -0.2398970
  C       -1.4873222     1.2933157     0.2831080
  C       -2.8212120    -0.7143780     0.1714760
  C       -2.7281430     0.6547360     0.4326570
  H        0.4383490    -2.5216720    -1.2799980
  H        1.2165960    -1.0011160    -1.6986390
  H        1.5065410    -2.5704870     0.9013410
  H        2.7543720    -2.0878480    -0.2534440
  H        1.2290340    -0.3883270     1.7666860
  H        2.9729880    -0.5259550     1.5704730
  H        2.8793190     1.2773810     0.1528780
  H       -1.7755450    -2.4842720    -0.4701710
  H       -1.4080790     2.3720960     0.4641940
  H       -3.7741480    -1.2278540     0.2772780
  H       -3.6082280     1.2145190     0.7397060
units angstrom
no_reorient  #important for SAPT in psi4, default
symmetry c1  #important for SAPT in psi4, default
}

set PROPERTIES_ORIGIN ["COM"]
properties('MP2/aug-cc-pvtz', properties = ['dipole'])
--------------------------------------------------------------------------

    Molecular point group: c1
  Charge       = 0
  Multiplicity = 1
  Basis Set: AUG-CC-PVTZ
    Blend: AUG-CC-PVTZ
  Basis Set: (AUG-CC-PVTZ AUX)
    Blend: AUG-CC-PVTZ-JKFIT

    Orbital Energies [Eh]
    ---------------------

    Doubly Occupied:

       1A    -20.515245     2A    -15.582815     3A    -11.351522
       4A    -11.275913     5A    -11.258160     6A    -11.248465
       7A    -11.245946     8A    -11.244591     9A    -11.241418
      10A    -11.240699    11A    -11.239323    12A    -11.237938
      13A     -1.369198    14A     -1.234976    15A     -1.165216
      16A     -1.081967    17A     -1.038640    18A     -1.019893
      19A     -0.938350    20A     -0.880781    21A     -0.841596
      22A     -0.798535    23A     -0.776822    24A     -0.697154
      25A     -0.685877    26A     -0.670951    27A     -0.652733
      28A     -0.622635    29A     -0.615880    30A     -0.601060
      31A     -0.587333    32A     -0.575720    33A     -0.557163
      34A     -0.536221    35A     -0.519218    36A     -0.507294
      37A     -0.493076    38A     -0.490164    39A     -0.479155
      40A     -0.423483    41A     -0.389490    42A     -0.346266
      43A     -0.334444

  @DF-RHF Final Energy:  -514.59631381768440

   => Energetics <=

    Nuclear Repulsion Energy =            685.4647247081138630
    One-Electron Energy =               -2058.8954211339196263
    Two-Electron Energy =                 858.8343826081213592
    Total Energy =                       -514.5963138176844041
  Basis Set: (AUG-CC-PVTZ AUX)
    Blend: AUG-CC-PVTZ-RI
    Molecular point group: c1

    Geometry (in Angstrom), charge = 0, multiplicity = 1:

       Center              X                  Y                   Z               Mass
    ------------   -----------------  -----------------  -----------------  -----------------
         O            0.955503252173     2.466784950559    -0.645936839908    15.994914619570
         N            2.060137252173     0.649771950559     0.188697160092    14.003074004430
         C            0.770185252173    -1.603167049441    -0.859573839908    12.000000000000
         C            1.829524252173    -1.819259049441     0.230130160092    12.000000000000
         C           -0.435994747827    -0.840700049441    -0.370757839908    12.000000000000
         C            2.040452252173    -0.537854049441     1.036623160092    12.000000000000
         C           -0.351329747827     0.536926950559    -0.080631839908    12.000000000000
         C            0.925678252173     1.311264950559    -0.212335839908    12.000000000000
         C           -1.677609747827    -1.471258049441    -0.226145839908    12.000000000000
         C           -1.473568947827     1.245219650559     0.296859160092    12.000000000000
         C           -2.807458747827    -0.762474049441     0.185227160092    12.000000000000
         C           -2.714389747827     0.606639950559     0.446408160092    12.000000000000
         H            0.452102252173    -2.569768049441    -1.266246839908     1.007825032230
         H            1.230349252173    -1.049212049441    -1.684887839908     1.007825032230
         H            1.520294252173    -2.618583049441     0.915092160092     1.007825032230
         H            2.768125252173    -2.135944049441    -0.239692839908     1.007825032230
         H            1.242787252173    -0.436423049441     1.780437160092     1.007825032230
         H            2.986741252173    -0.574051049441     1.584224160092     1.007825032230
         H            2.893072252173     1.229284950559     0.166629160092     1.007825032230
         H           -1.761791747827    -2.532368049441    -0.456419839908     1.007825032230
         H           -1.394325747827     2.323999950559     0.477945160092     1.007825032230
         H           -3.760394747827    -1.275950049441     0.291029160092     1.007825032230
         H           -3.594474747827     1.166422950559     0.753457160092     1.007825032230

  Basis Set: AUG-CC-PVTZ
    Blend: AUG-CC-PVTZ
  Basis Set: (AUG-CC-PVTZ AUX)
    Blend: AUG-CC-PVTZ-JKFIT
	 Reference Energy          =    -514.5963138176844041 [Eh]
	 Singles Energy            =      -0.0000000000000000 [Eh]
	 Same-Spin Energy          =      -0.5586208582052596 [Eh]
	 Opposite-Spin Energy      =      -1.7443585364261498 [Eh]
	 Correlation Energy        =      -2.3029793946314094 [Eh]
	 Total Energy              =    -516.8992932123157971 [Eh]

	 ================> DF-SCS-MP2 Energies <==================
	-----------------------------------------------------------
	 SCS Same-Spin Scale       =       0.3333333333333333 [-]
	 SCS Opposite-Spin Scale   =       1.2000000000000000 [-]
	 SCS Same-Spin Energy      =      -0.1862069527350865 [Eh]
	 SCS Opposite-Spin Energy  =      -2.0932302437113797 [Eh]
	 SCS Correlation Energy    =      -2.2794371964464664 [Eh]
	 SCS Total Energy          =    -516.8757510141308558 [Eh]
	-----------------------------------------------------------

  Dipole Moment: [D]
     X:     0.6289      Y:    -3.6120      Z:     1.7697     Total:     4.0711

*** Psi4 exiting successfully. Buy a developer a beer!
