                               Psi4 1.3.2 release

  ==> Input File <==

--------------------------------------------------------------------------
#psi4
#
memory 32 gb

molecule  {
0 1
  O        0.9417500     2.5148810    -0.6596880
  N        2.0463840     0.6978680     0.1749460
  C        0.7564320    -1.5550710    -0.8733250
  C        1.8157710    -1.7711630     0.2163790
  C       -0.4497480    -0.7926040    -0.3845090
  C        2.0266990    -0.4897580     1.0228720
  C       -0.3650830     0.5850230    -0.0943830
  C        0.9362849     1.3150997    -0.2397254
  C       -1.6913630    -1.4231620    -0.2398970
  C       -1.5035900     1.3035830     0.2885800
  C       -2.8212120    -0.7143780     0.1714760
  C       -2.7281430     0.6547360     0.4326570
  H        0.4383490    -2.5216720    -1.2799980
  H        1.2165960    -1.0011160    -1.6986390
  H        1.5065410    -2.5704870     0.9013410
  H        2.7543720    -2.0878480    -0.2534440
  H        1.2290340    -0.3883270     1.7666860
  H        2.9729880    -0.5259550     1.5704730
  H        2.8793190     1.2773810     0.1528780
  H       -1.7755450    -2.4842720    -0.4701710
  H       -1.4080790     2.3720960     0.4641940
  H       -3.7741480    -1.2278540     0.2772780
  H       -3.6082280     1.2145190     0.7397060
units angstrom
no_reorient  #important for SAPT in psi4, default
symmetry c1  #important for SAPT in psi4, default
}

set PROPERTIES_ORIGIN ["COM"]
properties('MP2/aug-cc-pvtz', properties = ['dipole'])
--------------------------------------------------------------------------

    Molecular point group: c1
  Charge       = 0
  Multiplicity = 1
  Basis Set: AUG-CC-PVTZ
    Blend: AUG-CC-PVTZ
  Basis Set: (AUG-CC-PVTZ AUX)
    Blend: AUG-CC-PVTZ-JKFIT

    Orbital Energies [Eh]
    ---------------------

    Doubly Occupied:

       1A    -20.505918     2A    -15.590294     3A    -11.350729
       4A    -11.279911     5A    -11.257712     6A    -11.248774
       7A    -11.247917     8A    -11.245827     9A    -11.241560
      10A    -11.241430    11A    -11.240802    12A    -11.239906
      13A     -1.350104    14A     -1.240694    15A     -1.164913
      16A     -1.085062    17A     -1.036846    18A     -1.022437
      19A     -0.942710    20A     -0.884108    21A     -0.843868
      22A     -0.798820    23A     -0.781711    24A     -0.699538
      25A     -0.688967    26A     -0.671881    27A     -0.654130
      28A     -0.623102    29A     -0.616962    30A     -0.600741
      31A     -0.583239    32A     -0.572933    33A     -0.555870
      34A     -0.537333    35A     -0.517348    36A     -0.507034
      37A     -0.493481    38A     -0.491020    39A     -0.478137
      40A     -0.417990    41A     -0.388909    42A     -0.342909
      43A     -0.336276

  @DF-RHF Final Energy:  -514.59143350262536

   => Energetics <=

    Nuclear Repulsion Energy =            685.3221844577706179
    One-Electron Energy =               -2058.5875304732771838
    Two-Electron Energy =                 858.6739125128812020
    Total Energy =                       -514.5914335026253639
  Basis Set: (AUG-CC-PVTZ AUX)
    Blend: AUG-CC-PVTZ-RI
    Molecular point group: c1

    Geometry (in Angstrom), charge = 0, multiplicity = 1:

       Center              X                  Y                   Z               Mass
    ------------   -----------------  -----------------  -----------------  -----------------
         O            0.954900429041     2.469317342590    -0.645328481778    15.994914619570
         N            2.059534429041     0.652304342590     0.189305518222    14.003074004430
         C            0.769582429041    -1.600634657410    -0.858965481778    12.000000000000
         C            1.828921429041    -1.816726657410     0.230738518222    12.000000000000
         C           -0.436597570959    -0.838167657410    -0.370149481778    12.000000000000
         C            2.039849429041    -0.535321657410     1.037231518222    12.000000000000
         C           -0.351932570959     0.539459342590    -0.080023481778    12.000000000000
         C            0.949435329041     1.269536042590    -0.225365881778    12.000000000000
         C           -1.678212570959    -1.468725657410    -0.225537481778    12.000000000000
         C           -1.490439570959     1.258019342590     0.302939518222    12.000000000000
         C           -2.808061570959    -0.759941657410     0.185835518222    12.000000000000
         C           -2.714992570959     0.609172342590     0.447016518222    12.000000000000
         H            0.451499429041    -2.567235657410    -1.265638481778     1.007825032230
         H            1.229746429041    -1.046679657410    -1.684279481778     1.007825032230
         H            1.519691429041    -2.616050657410     0.915700518222     1.007825032230
         H            2.767522429041    -2.133411657410    -0.239084481778     1.007825032230
         H            1.242184429041    -0.433890657410     1.781045518222     1.007825032230
         H            2.986138429041    -0.571518657410     1.584832518222     1.007825032230
         H            2.892469429041     1.231817342590     0.167237518222     1.007825032230
         H           -1.762394570959    -2.529835657410    -0.455811481778     1.007825032230
         H           -1.394928570959     2.326532342590     0.478553518222     1.007825032230
         H           -3.760997570959    -1.273417657410     0.291637518222     1.007825032230
         H           -3.595077570959     1.168955342590     0.754065518222     1.007825032230

  Basis Set: AUG-CC-PVTZ
    Blend: AUG-CC-PVTZ
  Basis Set: (AUG-CC-PVTZ AUX)
    Blend: AUG-CC-PVTZ-JKFIT
	 Reference Energy          =    -514.5914335026253639 [Eh]
	 Singles Energy            =      -0.0000000000000000 [Eh]
	 Same-Spin Energy          =      -0.5593495091426675 [Eh]
	 Opposite-Spin Energy      =      -1.7456720236687371 [Eh]
	 Correlation Energy        =      -2.3050215328114048 [Eh]
	 Total Energy              =    -516.8964550354368157 [Eh]

	 ================> DF-SCS-MP2 Energies <==================
	-----------------------------------------------------------
	 SCS Same-Spin Scale       =       0.3333333333333333 [-]
	 SCS Opposite-Spin Scale   =       1.2000000000000000 [-]
	 SCS Same-Spin Energy      =      -0.1864498363808891 [Eh]
	 SCS Opposite-Spin Energy  =      -2.0948064284024843 [Eh]
	 SCS Correlation Energy    =      -2.2812562647833734 [Eh]
	 SCS Total Energy          =    -516.8726897674087013 [Eh]
	-----------------------------------------------------------

  Dipole Moment: [D]
     X:     0.8026      Y:    -3.9141      Z:     1.8887     Total:     4.4195

*** Psi4 exiting successfully. Buy a developer a beer!
