                               Psi4 1.4a3.dev225

  ==> Input File <==

--------------------------------------------------------------------------
#psi4
#
memory 32 gb

molecule  {
0 1
  O        0.9417500     2.5148810    -0.6596880
  N        2.0463840     0.6978680     0.1749460
  C        0.7564320    -1.5550710    -0.8733250
  C        1.8157710    -1.7711630     0.2163790
  C       -0.4497480    -0.7926040    -0.3845090
  C        2.0266990    -0.4897580     1.0228720
  C       -0.3650830     0.5850230    -0.0943830
  C        0.8948895     1.3490312    -0.2243300
  C       -1.6913630    -1.4231620    -0.2398970
  C       -1.5035900     1.3035830     0.2885800
  C       -2.8212120    -0.7143780     0.1714760
  C       -2.7281430     0.6547360     0.4326570
  H        0.4383490    -2.5216720    -1.2799980
  H        1.2165960    -1.0011160    -1.6986390
  H        1.5065410    -2.5704870     0.9013410
  H        2.7543720    -2.0878480    -0.2534440
  H        1.2290340    -0.3883270     1.7666860
  H        2.9729880    -0.5259550     1.5704730
  H        2.8793190     1.2773810     0.1528780
  H       -1.7755450    -2.4842720    -0.4701710
  H       -1.4080790     2.3720960     0.4641940
  H       -3.7741480    -1.2278540     0.2772780
  H       -3.6082280     1.2145190     0.7397060
units angstrom
no_reorient  #important for SAPT in psi4, default
symmetry c1  #important for SAPT in psi4, default
}

set PROPERTIES_ORIGIN ["COM"]
properties('MP2/aug-cc-pvtz', properties = ['dipole'])
--------------------------------------------------------------------------

    Molecular point group: c1
  Charge       = 0
  Multiplicity = 1
  Basis Set: AUG-CC-PVTZ
    Blend: AUG-CC-PVTZ
  Basis Set: (AUG-CC-PVTZ AUX)
    Blend: AUG-CC-PVTZ-JKFIT

    Orbital Energies [Eh]
    ---------------------

    Doubly Occupied:

       1A    -20.513953     2A    -15.581905     3A    -11.351989
       4A    -11.274717     5A    -11.259937     6A    -11.250373
       7A    -11.247870     8A    -11.246643     9A    -11.242693
      10A    -11.240764    11A    -11.239776    12A    -11.237800
      13A     -1.362302    14A     -1.231244    15A     -1.165631
      16A     -1.082253    17A     -1.039843    18A     -1.020979
      19A     -0.937835    20A     -0.884555    21A     -0.841708
      22A     -0.799002    23A     -0.776507    24A     -0.698278
      25A     -0.684501    26A     -0.672756    27A     -0.652013
      28A     -0.623764    29A     -0.615395    30A     -0.600416
      31A     -0.585727    32A     -0.576246    33A     -0.555807
      34A     -0.535937    35A     -0.518077    36A     -0.510254
      37A     -0.492944    38A     -0.490123    39A     -0.478267
      40A     -0.423603    41A     -0.387196    42A     -0.345164
      43A     -0.337160

  @DF-RHF Final Energy:  -514.59482887424440

   => Energetics <=

    Nuclear Repulsion Energy =            685.2331194133818144
    One-Electron Energy =               -2058.4280828704095256
    Two-Electron Energy =                 858.6001345827834257
    Total Energy =                       -514.5948288742443992
  Basis Set: (AUG-CC-PVTZ AUX)
    Blend: AUG-CC-PVTZ-RI
    Molecular point group: c1

    Geometry (in Angstrom), charge = 0, multiplicity = 1:

       Center              X                  Y                   Z               Mass
    ------------   -----------------  -----------------  -----------------  -----------------
         O            0.957984190325     2.466789606513    -0.646475366177    15.994914619570
         N            2.062618190325     0.649776606513     0.188158633823    14.003074004430
         C            0.772666190325    -1.603162393487    -0.860112366177    12.000000000000
         C            1.832005190325    -1.819254393487     0.229591633823    12.000000000000
         C           -0.433513809675    -0.840695393487    -0.371296366177    12.000000000000
         C            2.042933190325    -0.537849393487     1.036084633823    12.000000000000
         C           -0.348848809675     0.536931606513    -0.081170366177    12.000000000000
         C            0.911123690325     1.300939806513    -0.211117366177    12.000000000000
         C           -1.675128809675    -1.471253393487    -0.226684366177    12.000000000000
         C           -1.487355809675     1.255491606513     0.301792633823    12.000000000000
         C           -2.804977809675    -0.762469393487     0.184688633823    12.000000000000
         C           -2.711908809675     0.606644606513     0.445869633823    12.000000000000
         H            0.454583190325    -2.569763393487    -1.266785366177     1.007825032230
         H            1.232830190325    -1.049207393487    -1.685426366177     1.007825032230
         H            1.522775190325    -2.618578393487     0.914553633823     1.007825032230
         H            2.770606190325    -2.135939393487    -0.240231366177     1.007825032230
         H            1.245268190325    -0.436418393487     1.779898633823     1.007825032230
         H            2.989222190325    -0.574046393487     1.583685633823     1.007825032230
         H            2.895553190325     1.229289606513     0.166090633823     1.007825032230
         H           -1.759310809675    -2.532363393487    -0.456958366177     1.007825032230
         H           -1.391844809675     2.324004606513     0.477406633823     1.007825032230
         H           -3.757913809675    -1.275945393487     0.290490633823     1.007825032230
         H           -3.591993809675     1.166427606513     0.752918633823     1.007825032230

  Basis Set: AUG-CC-PVTZ
    Blend: AUG-CC-PVTZ
  Basis Set: (AUG-CC-PVTZ AUX)
    Blend: AUG-CC-PVTZ-JKFIT
	 Reference Energy          =    -514.5948288742443992 [Eh]
	 Singles Energy            =      -0.0000000000000000 [Eh]
	 Same-Spin Energy          =      -0.5590322884827974 [Eh]
	 Opposite-Spin Energy      =      -1.7451438109928188 [Eh]
	 Correlation Energy        =      -2.3041760994756162 [Eh]
	 Total Energy              =    -516.8990049737200252 [Eh]

	 ================> DF-SCS-MP2 Energies <==================
	-----------------------------------------------------------
	 SCS Same-Spin Scale       =       0.3333333333333333 [-]
	 SCS Opposite-Spin Scale   =       1.2000000000000000 [-]
	 SCS Same-Spin Energy      =      -0.1863440961609324 [Eh]
	 SCS Opposite-Spin Energy  =      -2.0941725731913823 [Eh]
	 SCS Correlation Energy    =      -2.2805166693523149 [Eh]
	 SCS Total Energy          =    -516.8753455435967226 [Eh]
	-----------------------------------------------------------

  Dipole Moment: [D]
     X:     0.5113      Y:    -3.6701      Z:     1.7715     Total:     4.1072

*** Psi4 exiting successfully. Buy a developer a beer!
