                               Psi4 1.4a3.dev225

  ==> Input File <==

--------------------------------------------------------------------------
#psi4
#
memory 32 gb

molecule  {
0 1
  O        0.9417500     2.5148810    -0.6596880
  N        2.0463840     0.6978680     0.1749460
  C        0.7564320    -1.5550710    -0.8733250
  C        1.8157710    -1.7711630     0.2163790
  C       -0.4497480    -0.7926040    -0.3845090
  C        2.0266990    -0.4897580     1.0228720
  C       -0.3650830     0.5850230    -0.0943830
  C        0.8954009     1.3689960    -0.2319283
  C       -1.6913630    -1.4231620    -0.2398970
  C       -1.5035900     1.3035830     0.2885800
  C       -2.8212120    -0.7143780     0.1714760
  C       -2.7281430     0.6547360     0.4326570
  H        0.4383490    -2.5216720    -1.2799980
  H        1.2165960    -1.0011160    -1.6986390
  H        1.5065410    -2.5704870     0.9013410
  H        2.7543720    -2.0878480    -0.2534440
  H        1.2290340    -0.3883270     1.7666860
  H        2.9729880    -0.5259550     1.5704730
  H        2.8793190     1.2773810     0.1528780
  H       -1.7755450    -2.4842720    -0.4701710
  H       -1.4080790     2.3720960     0.4641940
  H       -3.7741480    -1.2278540     0.2772780
  H       -3.6082280     1.2145190     0.7397060
units angstrom
no_reorient  #important for SAPT in psi4, default
symmetry c1  #important for SAPT in psi4, default
}

set PROPERTIES_ORIGIN ["COM"]
properties('MP2/aug-cc-pvtz', properties = ['dipole'])
--------------------------------------------------------------------------

    Molecular point group: c1
  Charge       = 0
  Multiplicity = 1
  Basis Set: AUG-CC-PVTZ
    Blend: AUG-CC-PVTZ
  Basis Set: (AUG-CC-PVTZ AUX)
    Blend: AUG-CC-PVTZ-JKFIT

    Orbital Energies [Eh]
    ---------------------

    Doubly Occupied:

       1A    -20.518448     2A    -15.578948     3A    -11.351954
       4A    -11.273567     5A    -11.259182     6A    -11.249554
       7A    -11.247287     8A    -11.246068     9A    -11.242219
      10A    -11.240269    11A    -11.238845    12A    -11.236678
      13A     -1.375670    14A     -1.229571    15A     -1.164497
      16A     -1.081130    17A     -1.038169    18A     -1.019929
      19A     -0.936366    20A     -0.881930    21A     -0.840557
      22A     -0.798201    23A     -0.774241    24A     -0.696228
      25A     -0.684109    26A     -0.672375    27A     -0.652092
      28A     -0.624650    29A     -0.614897    30A     -0.600219
      31A     -0.588945    32A     -0.576322    33A     -0.557376
      34A     -0.535386    35A     -0.519027    36A     -0.511219
      37A     -0.492471    38A     -0.489757    39A     -0.478440
      40A     -0.425112    41A     -0.387738    42A     -0.344937
      43A     -0.336550

  @DF-RHF Final Energy:  -514.59652918337804

   => Energetics <=

    Nuclear Repulsion Energy =            685.1031272501799094
    One-Electron Energy =               -2058.1770592564735125
    Two-Electron Energy =                 858.4774028229154510
    Total Energy =                       -514.5965291833780384
  Basis Set: (AUG-CC-PVTZ AUX)
    Blend: AUG-CC-PVTZ-RI
    Molecular point group: c1

    Geometry (in Angstrom), charge = 0, multiplicity = 1:

       Center              X                  Y                   Z               Mass
    ------------   -----------------  -----------------  -----------------  -----------------
         O            0.957946093447     2.465302323450    -0.645909328807    15.994914619570
         N            2.062580093447     0.648289323450     0.188724671193    14.003074004430
         C            0.772628093447    -1.604649676550    -0.859546328807    12.000000000000
         C            1.831967093447    -1.820741676550     0.230157671193    12.000000000000
         C           -0.433551906553    -0.842182676550    -0.370730328807    12.000000000000
         C            2.042895093447    -0.539336676550     1.036650671193    12.000000000000
         C           -0.348886906553     0.535444323450    -0.080604328807    12.000000000000
         C            0.911596993447     1.319417323450    -0.218149628807    12.000000000000
         C           -1.675166906553    -1.472740676550    -0.226118328807    12.000000000000
         C           -1.487393906553     1.254004323450     0.302358671193    12.000000000000
         C           -2.805015906553    -0.763956676550     0.185254671193    12.000000000000
         C           -2.711946906553     0.605157323450     0.446435671193    12.000000000000
         H            0.454545093447    -2.571250676550    -1.266219328807     1.007825032230
         H            1.232792093447    -1.050694676550    -1.684860328807     1.007825032230
         H            1.522737093447    -2.620065676550     0.915119671193     1.007825032230
         H            2.770568093447    -2.137426676550    -0.239665328807     1.007825032230
         H            1.245230093447    -0.437905676550     1.780464671193     1.007825032230
         H            2.989184093447    -0.575533676550     1.584251671193     1.007825032230
         H            2.895515093447     1.227802323450     0.166656671193     1.007825032230
         H           -1.759348906553    -2.533850676550    -0.456392328807     1.007825032230
         H           -1.391882906553     2.322517323450     0.477972671193     1.007825032230
         H           -3.757951906553    -1.277432676550     0.291056671193     1.007825032230
         H           -3.592031906553     1.164940323450     0.753484671193     1.007825032230

  Basis Set: AUG-CC-PVTZ
    Blend: AUG-CC-PVTZ
  Basis Set: (AUG-CC-PVTZ AUX)
    Blend: AUG-CC-PVTZ-JKFIT
	 Reference Energy          =    -514.5965291833780384 [Eh]
	 Singles Energy            =      -0.0000000000000000 [Eh]
	 Same-Spin Energy          =      -0.5585368804077018 [Eh]
	 Opposite-Spin Energy      =      -1.7442075792628637 [Eh]
	 Correlation Energy        =      -2.3027444596705653 [Eh]
	 Total Energy              =    -516.8992736430485593 [Eh]

	 ================> DF-SCS-MP2 Energies <==================
	-----------------------------------------------------------
	 SCS Same-Spin Scale       =       0.3333333333333333 [-]
	 SCS Opposite-Spin Scale   =       1.2000000000000000 [-]
	 SCS Same-Spin Energy      =      -0.1861789601359006 [Eh]
	 SCS Opposite-Spin Energy  =      -2.0930490951154366 [Eh]
	 SCS Correlation Energy    =      -2.2792280552513371 [Eh]
	 SCS Total Energy          =    -516.8757572386293759 [Eh]
	-----------------------------------------------------------

  Dipole Moment: [D]
     X:     0.4962      Y:    -3.5171      Z:     1.7093     Total:     3.9418

*** Psi4 exiting successfully. Buy a developer a beer!
