                               Psi4 1.4a3.dev225

  ==> Input File <==

--------------------------------------------------------------------------
#psi4
#
memory 32 gb

molecule  {
0 1
  O        0.9417500     2.5148810    -0.6596880
  N        2.0463840     0.6978680     0.1749460
  C        0.7564320    -1.5550710    -0.8733250
  C        1.8157710    -1.7711630     0.2163790
  C       -0.4497480    -0.7926040    -0.3845090
  C        2.0273734    -0.4490689     0.9938213
  C       -0.3650830     0.5850230    -0.0943830
  C        0.9119250     1.3593610    -0.2260870
  C       -1.6913630    -1.4231620    -0.2398970
  C       -1.5035900     1.3035830     0.2885800
  C       -2.8212120    -0.7143780     0.1714760
  C       -2.7281430     0.6547360     0.4326570
  H        0.4383490    -2.5216720    -1.2799980
  H        1.2165960    -1.0011160    -1.6986390
  H        1.5065410    -2.5704870     0.9013410
  H        2.7543720    -2.0878480    -0.2534440
  H        1.2290340    -0.3883270     1.7666860
  H        2.9729880    -0.5259550     1.5704730
  H        2.8793190     1.2773810     0.1528780
  H       -1.7755450    -2.4842720    -0.4701710
  H       -1.4080790     2.3720960     0.4641940
  H       -3.7741480    -1.2278540     0.2772780
  H       -3.6082280     1.2145190     0.7397060
units angstrom
no_reorient  #important for SAPT in psi4, default
symmetry c1  #important for SAPT in psi4, default
}

set PROPERTIES_ORIGIN ["COM"]
properties('MP2/aug-cc-pvtz', properties = ['dipole'])
--------------------------------------------------------------------------

    Molecular point group: c1
  Charge       = 0
  Multiplicity = 1
  Basis Set: AUG-CC-PVTZ
    Blend: AUG-CC-PVTZ
  Basis Set: (AUG-CC-PVTZ AUX)
    Blend: AUG-CC-PVTZ-JKFIT

    Orbital Energies [Eh]
    ---------------------

    Doubly Occupied:

       1A    -20.517444     2A    -15.584544     3A    -11.353541
       4A    -11.275033     5A    -11.258480     6A    -11.249072
       7A    -11.247641     8A    -11.245987     9A    -11.241744
      10A    -11.239940    11A    -11.238457    12A    -11.237025
      13A     -1.372037    14A     -1.246823    15A     -1.164992
      16A     -1.080844    17A     -1.036996    18A     -1.018615
      19A     -0.936421    20A     -0.884053    21A     -0.841502
      22A     -0.798888    23A     -0.778440    24A     -0.699037
      25A     -0.690108    26A     -0.672318    27A     -0.655297
      28A     -0.624011    29A     -0.614493    30A     -0.600341
      31A     -0.588905    32A     -0.577957    33A     -0.557269
      34A     -0.533596    35A     -0.517490    36A     -0.508963
      37A     -0.491245    38A     -0.488603    39A     -0.476953
      40A     -0.425529    41A     -0.387820    42A     -0.344185
      43A     -0.335999

  @DF-RHF Final Energy:  -514.59399820628153

   => Energetics <=

    Nuclear Repulsion Energy =            685.7851521797206260
    One-Electron Energy =               -2059.4810258415918724
    Two-Electron Energy =                 859.1018754555897203
    Total Energy =                       -514.5939982062815261
  Basis Set: (AUG-CC-PVTZ AUX)
    Blend: AUG-CC-PVTZ-RI
    Molecular point group: c1

    Geometry (in Angstrom), charge = 0, multiplicity = 1:

       Center              X                  Y                   Z               Mass
    ------------   -----------------  -----------------  -----------------  -----------------
         O            0.956664886635     2.462988940048    -0.644180338408    15.994914619570
         N            2.061298886635     0.645975940048     0.190453661592    14.003074004430
         C            0.771346886635    -1.606963059952    -0.857817338408    12.000000000000
         C            1.830685886635    -1.823055059952     0.231886661592    12.000000000000
         C           -0.434833113365    -0.844496059952    -0.369001338408    12.000000000000
         C            2.042288286635    -0.500960959952     1.009328961592    12.000000000000
         C           -0.350168113365     0.533130940048    -0.078875338408    12.000000000000
         C            0.926839886635     1.307468940048    -0.210579338408    12.000000000000
         C           -1.676448113365    -1.475054059952    -0.224389338408    12.000000000000
         C           -1.488675113365     1.251690940048     0.304087661592    12.000000000000
         C           -2.806297113365    -0.766270059952     0.186983661592    12.000000000000
         C           -2.713228113365     0.602843940048     0.448164661592    12.000000000000
         H            0.453263886635    -2.573564059952    -1.264490338408     1.007825032230
         H            1.231510886635    -1.053008059952    -1.683131338408     1.007825032230
         H            1.521455886635    -2.622379059952     0.916848661592     1.007825032230
         H            2.769286886635    -2.139740059952    -0.237936338408     1.007825032230
         H            1.243948886635    -0.440219059952     1.782193661592     1.007825032230
         H            2.987902886635    -0.577847059952     1.585980661592     1.007825032230
         H            2.894233886635     1.225488940048     0.168385661592     1.007825032230
         H           -1.760630113365    -2.536164059952    -0.454663338408     1.007825032230
         H           -1.393164113365     2.320203940048     0.479701661592     1.007825032230
         H           -3.759233113365    -1.279746059952     0.292785661592     1.007825032230
         H           -3.593313113365     1.162626940048     0.755213661592     1.007825032230

  Basis Set: AUG-CC-PVTZ
    Blend: AUG-CC-PVTZ
  Basis Set: (AUG-CC-PVTZ AUX)
    Blend: AUG-CC-PVTZ-JKFIT
	 Reference Energy          =    -514.5939982062815261 [Eh]
	 Singles Energy            =      -0.0000000000000000 [Eh]
	 Same-Spin Energy          =      -0.5589812341263468 [Eh]
	 Opposite-Spin Energy      =      -1.7445635812878462 [Eh]
	 Correlation Energy        =      -2.3035448154141931 [Eh]
	 Total Energy              =    -516.8975430216956966 [Eh]

	 ================> DF-SCS-MP2 Energies <==================
	-----------------------------------------------------------
	 SCS Same-Spin Scale       =       0.3333333333333333 [-]
	 SCS Opposite-Spin Scale   =       1.2000000000000000 [-]
	 SCS Same-Spin Energy      =      -0.1863270780421156 [Eh]
	 SCS Opposite-Spin Energy  =      -2.0934762975454153 [Eh]
	 SCS Correlation Energy    =      -2.2798033755875311 [Eh]
	 SCS Total Energy          =    -516.8738015818690883 [Eh]
	-----------------------------------------------------------

  Dipole Moment: [D]
     X:     0.6078      Y:    -3.4975      Z:     1.7005     Total:     3.9362

*** Psi4 exiting successfully. Buy a developer a beer!
