                               Psi4 1.3.2 release

  ==> Input File <==

--------------------------------------------------------------------------
#psi4
#
memory 32 gb

molecule  {
0 1
  O        0.9417500     2.5148810    -0.6596880
  N        2.0463840     0.6978680     0.1749460
  C        0.7564320    -1.5550710    -0.8733250
  C        1.8157710    -1.7711630     0.2163790
  C       -0.4497480    -0.7926040    -0.3845090
  C        2.0266990    -0.4897580     1.0228720
  C       -0.3710860     0.4873459    -0.1149536
  C        0.9119250     1.3593610    -0.2260870
  C       -1.6913630    -1.4231620    -0.2398970
  C       -1.5035900     1.3035830     0.2885800
  C       -2.8212120    -0.7143780     0.1714760
  C       -2.7281430     0.6547360     0.4326570
  H        0.4383490    -2.5216720    -1.2799980
  H        1.2165960    -1.0011160    -1.6986390
  H        1.5065410    -2.5704870     0.9013410
  H        2.7543720    -2.0878480    -0.2534440
  H        1.2290340    -0.3883270     1.7666860
  H        2.9729880    -0.5259550     1.5704730
  H        2.8793190     1.2773810     0.1528780
  H       -1.7755450    -2.4842720    -0.4701710
  H       -1.4080790     2.3720960     0.4641940
  H       -3.7741480    -1.2278540     0.2772780
  H       -3.6082280     1.2145190     0.7397060
units angstrom
no_reorient  #important for SAPT in psi4, default
symmetry c1  #important for SAPT in psi4, default
}

set PROPERTIES_ORIGIN ["COM"]
properties('MP2/aug-cc-pvtz', properties = ['dipole'])
--------------------------------------------------------------------------

    Molecular point group: c1
  Charge       = 0
  Multiplicity = 1
  Basis Set: AUG-CC-PVTZ
    Blend: AUG-CC-PVTZ
  Basis Set: (AUG-CC-PVTZ AUX)
    Blend: AUG-CC-PVTZ-JKFIT

    Orbital Energies [Eh]
    ---------------------

    Doubly Occupied:

       1A    -20.518618     2A    -15.582132     3A    -11.355175
       4A    -11.275711     5A    -11.249094     6A    -11.246967
       7A    -11.246077     8A    -11.244232     9A    -11.241807
      10A    -11.239307    11A    -11.238541    12A    -11.237681
      13A     -1.369126    14A     -1.235337    15A     -1.171074
      16A     -1.082948    17A     -1.037152    18A     -1.016065
      19A     -0.939570    20A     -0.874467    21A     -0.844323
      22A     -0.804503    23A     -0.773478    24A     -0.691996
      25A     -0.686316    26A     -0.672164    27A     -0.653816
      28A     -0.624169    29A     -0.614841    30A     -0.596708
      31A     -0.588131    32A     -0.574866    33A     -0.556908
      34A     -0.537119    35A     -0.517764    36A     -0.512663
      37A     -0.494104    38A     -0.490528    39A     -0.476379
      40A     -0.418779    41A     -0.389990    42A     -0.350729
      43A     -0.334095

  @DF-RHF Final Energy:  -514.58369726828028

   => Energetics <=

    Nuclear Repulsion Energy =            685.6940657631472504
    One-Electron Energy =               -2059.3446253498577789
    Two-Electron Energy =                 859.0668623184303669
    Total Energy =                       -514.5836972682802752
  Basis Set: (AUG-CC-PVTZ AUX)
    Blend: AUG-CC-PVTZ-RI
    Molecular point group: c1

    Geometry (in Angstrom), charge = 0, multiplicity = 1:

       Center              X                  Y                   Z               Mass
    ------------   -----------------  -----------------  -----------------  -----------------
         O            0.957162321317     2.473296566755    -0.644812065703    15.994914619570
         N            2.061796321317     0.656283566755     0.189821934297    14.003074004430
         C            0.771844321317    -1.596655433245    -0.858449065703    12.000000000000
         C            1.831183321317    -1.812747433245     0.231254934297    12.000000000000
         C           -0.434335678683    -0.834188433245    -0.369633065703    12.000000000000
         C            2.042111321317    -0.531342433245     1.037747934297    12.000000000000
         C           -0.355673678683     0.445761466755    -0.100077665703    12.000000000000
         C            0.927337321317     1.317776566755    -0.211211065703    12.000000000000
         C           -1.675950678683    -1.464746433245    -0.225021065703    12.000000000000
         C           -1.488177678683     1.261998566755     0.303455934297    12.000000000000
         C           -2.805799678683    -0.755962433245     0.186351934297    12.000000000000
         C           -2.712730678683     0.613151566755     0.447532934297    12.000000000000
         H            0.453761321317    -2.563256433245    -1.265122065703     1.007825032230
         H            1.232008321317    -1.042700433245    -1.683763065703     1.007825032230
         H            1.521953321317    -2.612071433245     0.916216934297     1.007825032230
         H            2.769784321317    -2.129432433245    -0.238568065703     1.007825032230
         H            1.244446321317    -0.429911433245     1.781561934297     1.007825032230
         H            2.988400321317    -0.567539433245     1.585348934297     1.007825032230
         H            2.894731321317     1.235796566755     0.167753934297     1.007825032230
         H           -1.760132678683    -2.525856433245    -0.455295065703     1.007825032230
         H           -1.392666678683     2.330511566755     0.479069934297     1.007825032230
         H           -3.758735678683    -1.269438433245     0.292153934297     1.007825032230
         H           -3.592815678683     1.172934566755     0.754581934297     1.007825032230

  Basis Set: AUG-CC-PVTZ
    Blend: AUG-CC-PVTZ
  Basis Set: (AUG-CC-PVTZ AUX)
    Blend: AUG-CC-PVTZ-JKFIT
	 Reference Energy          =    -514.5836972682802752 [Eh]
	 Singles Energy            =      -0.0000000000000000 [Eh]
	 Same-Spin Energy          =      -0.5584057643750588 [Eh]
	 Opposite-Spin Energy      =      -1.7447150038552581 [Eh]
	 Correlation Energy        =      -2.3031207682303170 [Eh]
	 Total Energy              =    -516.8868180365105900 [Eh]

	 ================> DF-SCS-MP2 Energies <==================
	-----------------------------------------------------------
	 SCS Same-Spin Scale       =       0.3333333333333333 [-]
	 SCS Opposite-Spin Scale   =       1.2000000000000000 [-]
	 SCS Same-Spin Energy      =      -0.1861352547916863 [Eh]
	 SCS Opposite-Spin Energy  =      -2.0936580046263096 [Eh]
	 SCS Correlation Energy    =      -2.2797932594179957 [Eh]
	 SCS Total Energy          =    -516.8634905276982181 [Eh]
	-----------------------------------------------------------

  Dipole Moment: [D]
     X:     0.6886      Y:    -3.5480      Z:     1.7514     Total:     4.0162

*** Psi4 exiting successfully. Buy a developer a beer!
