                               Psi4 1.4a3.dev225

  ==> Input File <==

--------------------------------------------------------------------------
#psi4
#
memory 32 gb

molecule  {
0 1
  O        0.9417500     2.5148810    -0.6596880
  N        2.0463840     0.6978680     0.1749460
  C        0.7564320    -1.5550710    -0.8733250
  C        1.8157710    -1.7711630     0.2163790
  C       -0.4497480    -0.7926040    -0.3845090
  C        2.0266990    -0.4897580     1.0228720
  C       -0.3650830     0.5850230    -0.0943830
  C        0.9119250     1.3593610    -0.2260870
  C       -1.6913630    -1.4231620    -0.2398970
  C       -1.5035900     1.3035830     0.2885800
  C       -2.8212120    -0.7143780     0.1714760
  C       -2.7281430     0.6547360     0.4326570
  H        0.4383490    -2.5216720    -1.2799980
  H        1.1955904    -1.0264030    -1.6609650
  H        1.5065410    -2.5704870     0.9013410
  H        2.7543720    -2.0878480    -0.2534440
  H        1.2290340    -0.3883270     1.7666860
  H        2.9729880    -0.5259550     1.5704730
  H        2.8793190     1.2773810     0.1528780
  H       -1.7755450    -2.4842720    -0.4701710
  H       -1.4080790     2.3720960     0.4641940
  H       -3.7741480    -1.2278540     0.2772780
  H       -3.6082280     1.2145190     0.7397060
units angstrom
no_reorient  #important for SAPT in psi4, default
symmetry c1  #important for SAPT in psi4, default
}

set PROPERTIES_ORIGIN ["COM"]
properties('MP2/aug-cc-pvtz', properties = ['dipole'])
--------------------------------------------------------------------------

    Molecular point group: c1
  Charge       = 0
  Multiplicity = 1
  Basis Set: AUG-CC-PVTZ
    Blend: AUG-CC-PVTZ
  Basis Set: (AUG-CC-PVTZ AUX)
    Blend: AUG-CC-PVTZ-JKFIT

    Orbital Energies [Eh]
    ---------------------

    Doubly Occupied:

       1A    -20.515190     2A    -15.582873     3A    -11.351527
       4A    -11.275730     5A    -11.257978     6A    -11.248692
       7A    -11.247117     8A    -11.245466     9A    -11.241515
      10A    -11.239708    11A    -11.237655    12A    -11.233330
      13A     -1.369123    14A     -1.234978    15A     -1.164241
      16A     -1.083650    17A     -1.036687    18A     -1.020489
      19A     -0.940702    20A     -0.881528    21A     -0.841484
      22A     -0.800309    23A     -0.776716    24A     -0.697420
      25A     -0.685613    26A     -0.672884    27A     -0.654272
      28A     -0.623398    29A     -0.616381    30A     -0.599794
      31A     -0.587341    32A     -0.578252    33A     -0.556863
      34A     -0.537363    35A     -0.518889    36A     -0.509930
      37A     -0.492553    38A     -0.492165    39A     -0.478608
      40A     -0.423435    41A     -0.389596    42A     -0.343792
      43A     -0.336258

  @DF-RHF Final Energy:  -514.59586678391543

   => Energetics <=

    Nuclear Repulsion Energy =            685.3676799747224777
    One-Electron Energy =               -2058.6841078185079823
    Two-Electron Energy =                 858.7205610598700787
    Total Energy =                       -514.5958667839154259
  Basis Set: (AUG-CC-PVTZ AUX)
    Blend: AUG-CC-PVTZ-RI
    Molecular point group: c1

    Geometry (in Angstrom), charge = 0, multiplicity = 1:

       Center              X                  Y                   Z               Mass
    ------------   -----------------  -----------------  -----------------  -----------------
         O            0.956846548116     2.466178293848    -0.646580185983    15.994914619570
         N            2.061480548116     0.649165293848     0.188053814017    14.003074004430
         C            0.771528548116    -1.603773706152    -0.860217185983    12.000000000000
         C            1.830867548116    -1.819865706152     0.229486814017    12.000000000000
         C           -0.434651451884    -0.841306706152    -0.371401185983    12.000000000000
         C            2.041795548116    -0.538460706152     1.035979814017    12.000000000000
         C           -0.349986451884     0.536320293848    -0.081275185983    12.000000000000
         C            0.927021548116     1.310658293848    -0.212979185983    12.000000000000
         C           -1.676266451884    -1.471864706152    -0.226789185983    12.000000000000
         C           -1.488493451884     1.254880293848     0.301687814017    12.000000000000
         C           -2.806115451884    -0.763080706152     0.184583814017    12.000000000000
         C           -2.713046451884     0.606033293848     0.445764814017    12.000000000000
         H            0.453445548116    -2.570374706152    -1.266890185983     1.007825032230
         H            1.210686948116    -1.075105706152    -1.647857185983     1.007825032230
         H            1.521637548116    -2.619189706152     0.914448814017     1.007825032230
         H            2.769468548116    -2.136550706152    -0.240336185983     1.007825032230
         H            1.244130548116    -0.437029706152     1.779793814017     1.007825032230
         H            2.988084548116    -0.574657706152     1.583580814017     1.007825032230
         H            2.894415548116     1.228678293848     0.165985814017     1.007825032230
         H           -1.760448451884    -2.532974706152    -0.457063185983     1.007825032230
         H           -1.392982451884     2.323393293848     0.477301814017     1.007825032230
         H           -3.759051451884    -1.276556706152     0.290385814017     1.007825032230
         H           -3.593131451884     1.165816293848     0.752813814017     1.007825032230

  Basis Set: AUG-CC-PVTZ
    Blend: AUG-CC-PVTZ
  Basis Set: (AUG-CC-PVTZ AUX)
    Blend: AUG-CC-PVTZ-JKFIT
	 Reference Energy          =    -514.5958667839154259 [Eh]
	 Singles Energy            =      -0.0000000000000000 [Eh]
	 Same-Spin Energy          =      -0.5585674556779849 [Eh]
	 Opposite-Spin Energy      =      -1.7440101622892781 [Eh]
	 Correlation Energy        =      -2.3025776179672630 [Eh]
	 Total Energy              =    -516.8984444018826707 [Eh]

	 ================> DF-SCS-MP2 Energies <==================
	-----------------------------------------------------------
	 SCS Same-Spin Scale       =       0.3333333333333333 [-]
	 SCS Opposite-Spin Scale   =       1.2000000000000000 [-]
	 SCS Same-Spin Energy      =      -0.1861891518926616 [Eh]
	 SCS Opposite-Spin Energy  =      -2.0928121947471334 [Eh]
	 SCS Correlation Energy    =      -2.2790013466397951 [Eh]
	 SCS Total Energy          =    -516.8748681305552282 [Eh]
	-----------------------------------------------------------

  Dipole Moment: [D]
     X:     0.6368      Y:    -3.6134      Z:     1.7521     Total:     4.0660

*** Psi4 exiting successfully. Buy a developer a beer!
