                               Psi4 1.3.2 release

  ==> Input File <==

--------------------------------------------------------------------------
#psi4
#
memory 32 gb

molecule  {
0 1
  O        0.9417500     2.5148810    -0.6596880
  N        2.0463840     0.6978680     0.1749460
  C        0.7564320    -1.5550710    -0.8733250
  C        1.8310062    -1.7842454     0.1986447
  C       -0.4497480    -0.7926040    -0.3845090
  C        2.0266990    -0.4897580     1.0228720
  C       -0.3650830     0.5850230    -0.0943830
  C        0.9119250     1.3593610    -0.2260870
  C       -1.6913630    -1.4231620    -0.2398970
  C       -1.5035900     1.3035830     0.2885800
  C       -2.8212120    -0.7143780     0.1714760
  C       -2.7281430     0.6547360     0.4326570
  H        0.4383490    -2.5216720    -1.2799980
  H        1.2165960    -1.0011160    -1.6986390
  H        1.5065410    -2.5704870     0.9013410
  H        2.7543720    -2.0878480    -0.2534440
  H        1.2290340    -0.3883270     1.7666860
  H        2.9729880    -0.5259550     1.5704730
  H        2.8793190     1.2773810     0.1528780
  H       -1.7755450    -2.4842720    -0.4701710
  H       -1.4080790     2.3720960     0.4641940
  H       -3.7741480    -1.2278540     0.2772780
  H       -3.6082280     1.2145190     0.7397060
units angstrom
no_reorient  #important for SAPT in psi4, default
symmetry c1  #important for SAPT in psi4, default
}

set PROPERTIES_ORIGIN ["COM"]
properties('MP2/aug-cc-pvtz', properties = ['dipole'])
--------------------------------------------------------------------------

    Molecular point group: c1
  Charge       = 0
  Multiplicity = 1
  Basis Set: AUG-CC-PVTZ
    Blend: AUG-CC-PVTZ
  Basis Set: (AUG-CC-PVTZ AUX)
    Blend: AUG-CC-PVTZ-JKFIT

    Orbital Energies [Eh]
    ---------------------

    Doubly Occupied:

       1A    -20.515040     2A    -15.582560     3A    -11.351351
       4A    -11.276344     5A    -11.258572     6A    -11.248822
       7A    -11.247249     8A    -11.245528     9A    -11.241899
      10A    -11.239931    11A    -11.239124    12A    -11.237285
      13A     -1.368944    14A     -1.234194    15A     -1.164193
      16A     -1.081395    17A     -1.036511    18A     -1.019865
      19A     -0.937350    20A     -0.881817    21A     -0.842392
      22A     -0.798679    23A     -0.776197    24A     -0.696820
      25A     -0.685101    26A     -0.671981    27A     -0.651959
      28A     -0.622754    29A     -0.617309    30A     -0.599150
      31A     -0.587197    32A     -0.575763    33A     -0.557624
      34A     -0.536432    35A     -0.519113    36A     -0.508793
      37A     -0.491181    38A     -0.488453    39A     -0.482082
      40A     -0.423312    41A     -0.388565    42A     -0.343864
      43A     -0.336227

  @DF-RHF Final Energy:  -514.59600835301990

   => Energetics <=

    Nuclear Repulsion Energy =            684.7720225434442227
    One-Electron Energy =               -2057.5182174309875336
    Two-Electron Energy =                 858.1501865345235274
    Total Energy =                       -514.5960083530198972
  Basis Set: (AUG-CC-PVTZ AUX)
    Blend: AUG-CC-PVTZ-RI
    Molecular point group: c1

    Geometry (in Angstrom), charge = 0, multiplicity = 1:

       Center              X                  Y                   Z               Mass
    ------------   -----------------  -----------------  -----------------  -----------------
         O            0.955580175984     2.466994662179    -0.645023356623    15.994914619570
         N            2.060214175984     0.649981662179     0.189610643377    14.003074004430
         C            0.770262175984    -1.602957337821    -0.858660356623    12.000000000000
         C            1.844836375984    -1.832131737821     0.213309343377    12.000000000000
         C           -0.435917824016    -0.840490337821    -0.369844356623    12.000000000000
         C            2.040529175984    -0.537644337821     1.037536643377    12.000000000000
         C           -0.351252824016     0.537136662179    -0.079718356623    12.000000000000
         C            0.925755175984     1.311474662179    -0.211422356623    12.000000000000
         C           -1.677532824016    -1.471048337821    -0.225232356623    12.000000000000
         C           -1.489759824016     1.255696662179     0.303244643377    12.000000000000
         C           -2.807381824016    -0.762264337821     0.186140643377    12.000000000000
         C           -2.714312824016     0.606849662179     0.447321643377    12.000000000000
         H            0.452179175984    -2.569558337821    -1.265333356623     1.007825032230
         H            1.230426175984    -1.049002337821    -1.683974356623     1.007825032230
         H            1.520371175984    -2.618373337821     0.916005643377     1.007825032230
         H            2.768202175984    -2.135734337821    -0.238779356623     1.007825032230
         H            1.242864175984    -0.436213337821     1.781350643377     1.007825032230
         H            2.986818175984    -0.573841337821     1.585137643377     1.007825032230
         H            2.893149175984     1.229494662179     0.167542643377     1.007825032230
         H           -1.761714824016    -2.532158337821    -0.455506356623     1.007825032230
         H           -1.394248824016     2.324209662179     0.478858643377     1.007825032230
         H           -3.760317824016    -1.275740337821     0.291942643377     1.007825032230
         H           -3.594397824016     1.166632662179     0.754370643377     1.007825032230

  Basis Set: AUG-CC-PVTZ
    Blend: AUG-CC-PVTZ
  Basis Set: (AUG-CC-PVTZ AUX)
    Blend: AUG-CC-PVTZ-JKFIT
	 Reference Energy          =    -514.5960083530198972 [Eh]
	 Singles Energy            =      -0.0000000000000000 [Eh]
	 Same-Spin Energy          =      -0.5585727109044183 [Eh]
	 Opposite-Spin Energy      =      -1.7443539365444622 [Eh]
	 Correlation Energy        =      -2.3029266474488805 [Eh]
	 Total Energy              =    -516.8989350004687822 [Eh]

	 ================> DF-SCS-MP2 Energies <==================
	-----------------------------------------------------------
	 SCS Same-Spin Scale       =       0.3333333333333333 [-]
	 SCS Opposite-Spin Scale   =       1.2000000000000000 [-]
	 SCS Same-Spin Energy      =      -0.1861909036348061 [Eh]
	 SCS Opposite-Spin Energy  =      -2.0932247238533548 [Eh]
	 SCS Correlation Energy    =      -2.2794156274881607 [Eh]
	 SCS Total Energy          =    -516.8754239805080033 [Eh]
	-----------------------------------------------------------

  Dipole Moment: [D]
     X:     0.6400      Y:    -3.6112      Z:     1.7664     Total:     4.0707

*** Psi4 exiting successfully. Buy a developer a beer!
