                               Psi4 1.3.2 release

  ==> Input File <==

--------------------------------------------------------------------------
#psi4
#
memory 32 gb

molecule  {
0 1
  O        0.9417500     2.5148810    -0.6596880
  N        2.0463840     0.6978680     0.1749460
  C        0.6951855    -1.6404495    -0.8799407
  C        1.8157710    -1.7711630     0.2163790
  C       -0.4497480    -0.7926040    -0.3845090
  C        2.0266990    -0.4897580     1.0228720
  C       -0.3650830     0.5850230    -0.0943830
  C        0.9119250     1.3593610    -0.2260870
  C       -1.6913630    -1.4231620    -0.2398970
  C       -1.5035900     1.3035830     0.2885800
  C       -2.8212120    -0.7143780     0.1714760
  C       -2.7281430     0.6547360     0.4326570
  H        0.4383490    -2.5216720    -1.2799980
  H        1.2165960    -1.0011160    -1.6986390
  H        1.5065410    -2.5704870     0.9013410
  H        2.7543720    -2.0878480    -0.2534440
  H        1.2290340    -0.3883270     1.7666860
  H        2.9729880    -0.5259550     1.5704730
  H        2.8793190     1.2773810     0.1528780
  H       -1.7755450    -2.4842720    -0.4701710
  H       -1.4080790     2.3720960     0.4641940
  H       -3.7741480    -1.2278540     0.2772780
  H       -3.6082280     1.2145190     0.7397060
units angstrom
no_reorient  #important for SAPT in psi4, default
symmetry c1  #important for SAPT in psi4, default
}

set PROPERTIES_ORIGIN ["COM"]
properties('MP2/aug-cc-pvtz', properties = ['dipole'])
--------------------------------------------------------------------------

    Molecular point group: c1
  Charge       = 0
  Multiplicity = 1
  Basis Set: AUG-CC-PVTZ
    Blend: AUG-CC-PVTZ
  Basis Set: (AUG-CC-PVTZ AUX)
    Blend: AUG-CC-PVTZ-JKFIT

    Orbital Energies [Eh]
    ---------------------

    Doubly Occupied:

       1A    -20.514873     2A    -15.582761     3A    -11.351330
       4A    -11.277390     5A    -11.259483     6A    -11.248518
       7A    -11.248297     8A    -11.246399     9A    -11.240210
      10A    -11.240036    11A    -11.239679    12A    -11.239312
      13A     -1.368799    14A     -1.234070    15A     -1.164368
      16A     -1.079610    17A     -1.036248    18A     -1.020145
      19A     -0.940520    20A     -0.882364    21A     -0.838859
      22A     -0.802739    23A     -0.776149    24A     -0.695920
      25A     -0.689542    26A     -0.671924    27A     -0.649682
      28A     -0.627647    29A     -0.615267    30A     -0.600039
      31A     -0.585695    32A     -0.574686    33A     -0.564484
      34A     -0.533179    35A     -0.514508    36A     -0.511390
      37A     -0.505427    38A     -0.479012    39A     -0.474576
      40A     -0.422833    41A     -0.389322    42A     -0.344039
      43A     -0.333738

  @DF-RHF Final Energy:  -514.58403132341584

   => Energetics <=

    Nuclear Repulsion Energy =            684.1090011366995896
    One-Electron Energy =               -2056.1559295540769199
    Two-Electron Energy =                 857.4628970939614874
    Total Energy =                       -514.5840313234158430
  Basis Set: (AUG-CC-PVTZ AUX)
    Blend: AUG-CC-PVTZ-RI
    Molecular point group: c1

    Geometry (in Angstrom), charge = 0, multiplicity = 1:

       Center              X                  Y                   Z               Mass
    ------------   -----------------  -----------------  -----------------  -----------------
         O            0.961277700477     2.472380379292    -0.645851639674    15.994914619570
         N            2.065911700477     0.655367379292     0.188782360326    14.003074004430
         C            0.714713200477    -1.682950120708    -0.866104339674    12.000000000000
         C            1.835298700477    -1.813663620708     0.230215360326    12.000000000000
         C           -0.430220299523    -0.835104620708    -0.370672639674    12.000000000000
         C            2.046226700477    -0.532258620708     1.036708360326    12.000000000000
         C           -0.345555299523     0.542522379292    -0.080546639674    12.000000000000
         C            0.931452700477     1.316860379292    -0.212250639674    12.000000000000
         C           -1.671835299523    -1.465662620708    -0.226060639674    12.000000000000
         C           -1.484062299523     1.261082379292     0.302416360326    12.000000000000
         C           -2.801684299523    -0.756878620708     0.185312360326    12.000000000000
         C           -2.708615299523     0.612235379292     0.446493360326    12.000000000000
         H            0.457876700477    -2.564172620708    -1.266161639674     1.007825032230
         H            1.236123700477    -1.043616620708    -1.684802639674     1.007825032230
         H            1.526068700477    -2.612987620708     0.915177360326     1.007825032230
         H            2.773899700477    -2.130348620708    -0.239607639674     1.007825032230
         H            1.248561700477    -0.430827620708     1.780522360326     1.007825032230
         H            2.992515700477    -0.568455620708     1.584309360326     1.007825032230
         H            2.898846700477     1.234880379292     0.166714360326     1.007825032230
         H           -1.756017299523    -2.526772620708    -0.456334639674     1.007825032230
         H           -1.388551299523     2.329595379292     0.478030360326     1.007825032230
         H           -3.754620299523    -1.270354620708     0.291114360326     1.007825032230
         H           -3.588700299523     1.172018379292     0.753542360326     1.007825032230

  Basis Set: AUG-CC-PVTZ
    Blend: AUG-CC-PVTZ
  Basis Set: (AUG-CC-PVTZ AUX)
    Blend: AUG-CC-PVTZ-JKFIT
	 Reference Energy          =    -514.5840313234158430 [Eh]
	 Singles Energy            =      -0.0000000000000000 [Eh]
	 Same-Spin Energy          =      -0.5585450683722324 [Eh]
	 Opposite-Spin Energy      =      -1.7446220347277812 [Eh]
	 Correlation Energy        =      -2.3031671031000136 [Eh]
	 Total Energy              =    -516.8871984265158517 [Eh]

	 ================> DF-SCS-MP2 Energies <==================
	-----------------------------------------------------------
	 SCS Same-Spin Scale       =       0.3333333333333333 [-]
	 SCS Opposite-Spin Scale   =       1.2000000000000000 [-]
	 SCS Same-Spin Energy      =      -0.1861816894574108 [Eh]
	 SCS Opposite-Spin Energy  =      -2.0935464416733374 [Eh]
	 SCS Correlation Energy    =      -2.2797281311307480 [Eh]
	 SCS Total Energy          =    -516.8637594545465390 [Eh]
	-----------------------------------------------------------

  Dipole Moment: [D]
     X:     0.6283      Y:    -3.6569      Z:     1.7789     Total:     4.1149

*** Psi4 exiting successfully. Buy a developer a beer!
