                               Psi4 1.3.2 release

  ==> Input File <==

--------------------------------------------------------------------------
#psi4
#
memory 32 gb

molecule  {
0 1
  O        0.9417500     2.5148810    -0.6596880
  N        2.0463840     0.6978680     0.1749460
  C        0.7564320    -1.5550710    -0.8733250
  C        1.8157710    -1.7711630     0.2163790
  C       -0.4497480    -0.7926040    -0.3845090
  C        2.0266990    -0.4897580     1.0228720
  C       -0.3650830     0.5850230    -0.0943830
  C        0.9119250     1.3593610    -0.2260870
  C       -1.6913630    -1.4231620    -0.2398970
  C       -1.5035900     1.3035830     0.2885800
  C       -2.8212120    -0.7143780     0.1714760
  C       -2.7281430     0.6547360     0.4326570
  H        0.4383490    -2.5216720    -1.2799980
  H        1.1745848    -1.0516900    -1.6232910
  H        1.5065410    -2.5704870     0.9013410
  H        2.7543720    -2.0878480    -0.2534440
  H        1.2290340    -0.3883270     1.7666860
  H        2.9729880    -0.5259550     1.5704730
  H        2.8793190     1.2773810     0.1528780
  H       -1.7755450    -2.4842720    -0.4701710
  H       -1.4080790     2.3720960     0.4641940
  H       -3.7741480    -1.2278540     0.2772780
  H       -3.6082280     1.2145190     0.7397060
units angstrom
no_reorient  #important for SAPT in psi4, default
symmetry c1  #important for SAPT in psi4, default
}

set PROPERTIES_ORIGIN ["COM"]
properties('MP2/aug-cc-pvtz', properties = ['dipole'])
--------------------------------------------------------------------------

    Molecular point group: c1
  Charge       = 0
  Multiplicity = 1
  Basis Set: AUG-CC-PVTZ
    Blend: AUG-CC-PVTZ
  Basis Set: (AUG-CC-PVTZ AUX)
    Blend: AUG-CC-PVTZ-JKFIT

    Orbital Energies [Eh]
    ---------------------

    Doubly Occupied:

       1A    -20.515224     2A    -15.583002     3A    -11.351586
       4A    -11.275684     5A    -11.257710     6A    -11.248597
       7A    -11.247081     8A    -11.245419     9A    -11.241327
      10A    -11.239631    11A    -11.237325    12A    -11.227271
      13A     -1.369176    14A     -1.235116    15A     -1.164343
      16A     -1.085400    17A     -1.036636    18A     -1.020363
      19A     -0.943511    20A     -0.881501    21A     -0.841762
      22A     -0.802716    23A     -0.777046    24A     -0.698178
      25A     -0.685569    26A     -0.673932    27A     -0.655975
      28A     -0.623460    29A     -0.616688    30A     -0.599713
      31A     -0.587618    32A     -0.580144    33A     -0.556745
      34A     -0.538807    35A     -0.519140    36A     -0.510010
      37A     -0.494037    38A     -0.492333    39A     -0.478692
      40A     -0.423483    41A     -0.389722    42A     -0.343736
      43A     -0.336405

  @DF-RHF Final Energy:  -514.59104307139455

   => Energetics <=

    Nuclear Repulsion Energy =            685.6275383166434949
    One-Electron Energy =               -2059.1735301837297811
    Two-Electron Energy =                 858.9549487956917346
    Total Energy =                       -514.5910430713945516
  Basis Set: (AUG-CC-PVTZ AUX)
    Blend: AUG-CC-PVTZ-RI
    Molecular point group: c1

    Geometry (in Angstrom), charge = 0, multiplicity = 1:

       Center              X                  Y                   Z               Mass
    ------------   -----------------  -----------------  -----------------  -----------------
         O            0.956977969989     2.466336502369    -0.646815893969    15.994914619570
         N            2.061611969989     0.649323502369     0.187818106031    14.003074004430
         C            0.771659969989    -1.603615497631    -0.860452893969    12.000000000000
         C            1.830998969989    -1.819707497631     0.229251106031    12.000000000000
         C           -0.434520030011    -0.841148497631    -0.371636893969    12.000000000000
         C            2.041926969989    -0.538302497631     1.035744106031    12.000000000000
         C           -0.349855030011     0.536478502369    -0.081510893969    12.000000000000
         C            0.927152969989     1.310816502369    -0.213214893969    12.000000000000
         C           -1.676135030011    -1.471706497631    -0.227024893969    12.000000000000
         C           -1.488362030011     1.255038502369     0.301452106031    12.000000000000
         C           -2.805984030011    -0.762922497631     0.184348106031    12.000000000000
         C           -2.712915030011     0.606191502369     0.445529106031    12.000000000000
         H            0.453576969989    -2.570216497631    -1.267125893969     1.007825032230
         H            1.189812769989    -1.100234497631    -1.610418893969     1.007825032230
         H            1.521768969989    -2.619031497631     0.914213106031     1.007825032230
         H            2.769599969989    -2.136392497631    -0.240571893969     1.007825032230
         H            1.244261969989    -0.436871497631     1.779558106031     1.007825032230
         H            2.988215969989    -0.574499497631     1.583345106031     1.007825032230
         H            2.894546969989     1.228836502369     0.165750106031     1.007825032230
         H           -1.760317030011    -2.532816497631    -0.457298893969     1.007825032230
         H           -1.392851030011     2.323551502369     0.477066106031     1.007825032230
         H           -3.758920030011    -1.276398497631     0.290150106031     1.007825032230
         H           -3.593000030011     1.165974502369     0.752578106031     1.007825032230

  Basis Set: AUG-CC-PVTZ
    Blend: AUG-CC-PVTZ
  Basis Set: (AUG-CC-PVTZ AUX)
    Blend: AUG-CC-PVTZ-JKFIT
	 Reference Energy          =    -514.5910430713945516 [Eh]
	 Singles Energy            =      -0.0000000000000000 [Eh]
	 Same-Spin Energy          =      -0.5585012326376688 [Eh]
	 Opposite-Spin Energy      =      -1.7437202775844016 [Eh]
	 Correlation Energy        =      -2.3022215102220702 [Eh]
	 Total Energy              =    -516.8932645816166769 [Eh]

	 ================> DF-SCS-MP2 Energies <==================
	-----------------------------------------------------------
	 SCS Same-Spin Scale       =       0.3333333333333333 [-]
	 SCS Opposite-Spin Scale   =       1.2000000000000000 [-]
	 SCS Same-Spin Energy      =      -0.1861670775458896 [Eh]
	 SCS Opposite-Spin Energy  =      -2.0924643331012818 [Eh]
	 SCS Correlation Energy    =      -2.2786314106471712 [Eh]
	 SCS Total Energy          =    -516.8696744820417734 [Eh]
	-----------------------------------------------------------

  Dipole Moment: [D]
     X:     0.6417      Y:    -3.6118      Z:     1.7390     Total:     4.0597

*** Psi4 exiting successfully. Buy a developer a beer!
