                               Psi4 1.4a3.dev225

  ==> Input File <==

--------------------------------------------------------------------------
#psi4
#
memory 32 gb

molecule  {
0 1
  O        0.9417500     2.5148810    -0.6596880
  N        2.0463840     0.6978680     0.1749460
  C        0.7564320    -1.5550710    -0.8733250
  C        1.8157710    -1.7711630     0.2163790
  C       -0.4497480    -0.7926040    -0.3845090
  C        2.0266990    -0.4897580     1.0228720
  C       -0.3650830     0.5850230    -0.0943830
  C        0.9119250     1.3593610    -0.2260870
  C       -1.6913630    -1.4231620    -0.2398970
  C       -1.5035900     1.3035830     0.2885800
  C       -2.8212120    -0.7143780     0.1714760
  C       -2.7281430     0.6547360     0.4326570
  H        0.4383490    -2.5216720    -1.2799980
  H        1.2165960    -1.0011160    -1.6986390
  H        1.5121780    -2.5559159     0.8888547
  H        2.7543720    -2.0878480    -0.2534440
  H        1.2290340    -0.3883270     1.7666860
  H        2.9729880    -0.5259550     1.5704730
  H        2.8793190     1.2773810     0.1528780
  H       -1.7755450    -2.4842720    -0.4701710
  H       -1.4080790     2.3720960     0.4641940
  H       -3.7741480    -1.2278540     0.2772780
  H       -3.6082280     1.2145190     0.7397060
units angstrom
no_reorient  #important for SAPT in psi4, default
symmetry c1  #important for SAPT in psi4, default
}

set PROPERTIES_ORIGIN ["COM"]
properties('MP2/aug-cc-pvtz', properties = ['dipole'])
--------------------------------------------------------------------------

    Molecular point group: c1
  Charge       = 0
  Multiplicity = 1
  Basis Set: AUG-CC-PVTZ
    Blend: AUG-CC-PVTZ
  Basis Set: (AUG-CC-PVTZ AUX)
    Blend: AUG-CC-PVTZ-JKFIT

    Orbital Energies [Eh]
    ---------------------

    Doubly Occupied:

       1A    -20.515060     2A    -15.582592     3A    -11.351378
       4A    -11.275629     5A    -11.258238     6A    -11.248781
       7A    -11.247128     8A    -11.245493     9A    -11.241710
      10A    -11.239779    11A    -11.239130    12A    -11.235502
      13A     -1.368973    14A     -1.234735    15A     -1.164164
      16A     -1.082657    17A     -1.036802    18A     -1.020933
      19A     -0.938247    20A     -0.881833    21A     -0.841978
      22A     -0.798964    23A     -0.776302    24A     -0.696891
      25A     -0.685790    26A     -0.672257    27A     -0.652776
      28A     -0.623475    29A     -0.616139    30A     -0.600051
      31A     -0.587307    32A     -0.576460    33A     -0.557128
      34A     -0.536170    35A     -0.519330    36A     -0.509857
      37A     -0.492719    38A     -0.490822    39A     -0.478357
      40A     -0.423314    41A     -0.389315    42A     -0.343836
      43A     -0.336059

  @DF-RHF Final Energy:  -514.59672748065066

   => Energetics <=

    Nuclear Repulsion Energy =            685.2237329159746650
    One-Electron Energy =               -2058.4128024695055501
    Two-Electron Energy =                 858.5923420728801148
    Total Energy =                       -514.5967274806506566
  Basis Set: (AUG-CC-PVTZ AUX)
    Blend: AUG-CC-PVTZ-RI
    Molecular point group: c1

    Geometry (in Angstrom), charge = 0, multiplicity = 1:

       Center              X                  Y                   Z               Mass
    ------------   -----------------  -----------------  -----------------  -----------------
         O            0.956679858261     2.465928921005    -0.646266357261    15.994914619570
         N            2.061313858261     0.648915921005     0.188367642739    14.003074004430
         C            0.771361858261    -1.604023078995    -0.859903357261    12.000000000000
         C            1.830700858261    -1.820115078995     0.229800642739    12.000000000000
         C           -0.434818141739    -0.841556078995    -0.371087357261    12.000000000000
         C            2.041628858261    -0.538710078995     1.036293642739    12.000000000000
         C           -0.350153141739     0.536070921005    -0.080961357261    12.000000000000
         C            0.926854858261     1.310408921005    -0.212665357261    12.000000000000
         C           -1.676433141739    -1.472114078995    -0.226475357261    12.000000000000
         C           -1.488660141739     1.254630921005     0.302001642739    12.000000000000
         C           -2.806282141739    -0.763330078995     0.184897642739    12.000000000000
         C           -2.713213141739     0.605783921005     0.446078642739    12.000000000000
         H            0.453278858261    -2.570624078995    -1.266576357261     1.007825032230
         H            1.231525858261    -1.050068078995    -1.685217357261     1.007825032230
         H            1.527107858261    -2.604867978995     0.902276342739     1.007825032230
         H            2.769301858261    -2.136800078995    -0.240022357261     1.007825032230
         H            1.243963858261    -0.437279078995     1.780107642739     1.007825032230
         H            2.987917858261    -0.574907078995     1.583894642739     1.007825032230
         H            2.894248858261     1.228428921005     0.166299642739     1.007825032230
         H           -1.760615141739    -2.533224078995    -0.456749357261     1.007825032230
         H           -1.393149141739     2.323143921005     0.477615642739     1.007825032230
         H           -3.759218141739    -1.276806078995     0.290699642739     1.007825032230
         H           -3.593298141739     1.165566921005     0.753127642739     1.007825032230

  Basis Set: AUG-CC-PVTZ
    Blend: AUG-CC-PVTZ
  Basis Set: (AUG-CC-PVTZ AUX)
    Blend: AUG-CC-PVTZ-JKFIT
	 Reference Energy          =    -514.5967274806506566 [Eh]
	 Singles Energy            =      -0.0000000000000000 [Eh]
	 Same-Spin Energy          =      -0.5586398940448756 [Eh]
	 Opposite-Spin Energy      =      -1.7442452001944182 [Eh]
	 Correlation Energy        =      -2.3028850942392936 [Eh]
	 Total Energy              =    -516.8996125748899431 [Eh]

	 ================> DF-SCS-MP2 Energies <==================
	-----------------------------------------------------------
	 SCS Same-Spin Scale       =       0.3333333333333333 [-]
	 SCS Opposite-Spin Scale   =       1.2000000000000000 [-]
	 SCS Same-Spin Energy      =      -0.1862132980149585 [Eh]
	 SCS Opposite-Spin Energy  =      -2.0930942402333019 [Eh]
	 SCS Correlation Energy    =      -2.2793075382482604 [Eh]
	 SCS Total Energy          =    -516.8760350188989605 [Eh]
	-----------------------------------------------------------

  Dipole Moment: [D]
     X:     0.6319      Y:    -3.6268      Z:     1.7769     Total:     4.0879

*** Psi4 exiting successfully. Buy a developer a beer!
