                               Psi4 1.3.2 release

  ==> Input File <==

--------------------------------------------------------------------------
#psi4
#
memory 32 gb

molecule  {
0 1
  O        0.9203699     2.5142561    -0.6622886
  N        2.0463840     0.6978680     0.1749460
  C        0.7564320    -1.5550710    -0.8733250
  C        1.8157710    -1.7711630     0.2163790
  C       -0.4497480    -0.7926040    -0.3845090
  C        2.0266990    -0.4897580     1.0228720
  C       -0.3650830     0.5850230    -0.0943830
  C        0.9119250     1.3593610    -0.2260870
  C       -1.6913630    -1.4231620    -0.2398970
  C       -1.5035900     1.3035830     0.2885800
  C       -2.8212120    -0.7143780     0.1714760
  C       -2.7281430     0.6547360     0.4326570
  H        0.4383490    -2.5216720    -1.2799980
  H        1.2165960    -1.0011160    -1.6986390
  H        1.5065410    -2.5704870     0.9013410
  H        2.7543720    -2.0878480    -0.2534440
  H        1.2290340    -0.3883270     1.7666860
  H        2.9729880    -0.5259550     1.5704730
  H        2.8793190     1.2773810     0.1528780
  H       -1.7755450    -2.4842720    -0.4701710
  H       -1.4080790     2.3720960     0.4641940
  H       -3.7741480    -1.2278540     0.2772780
  H       -3.6082280     1.2145190     0.7397060
units angstrom
no_reorient  #important for SAPT in psi4, default
symmetry c1  #important for SAPT in psi4, default
}

set PROPERTIES_ORIGIN ["COM"]
properties('MP2/aug-cc-pvtz', properties = ['dipole'])
--------------------------------------------------------------------------

    Molecular point group: c1
  Charge       = 0
  Multiplicity = 1
  Basis Set: AUG-CC-PVTZ
    Blend: AUG-CC-PVTZ
  Basis Set: (AUG-CC-PVTZ AUX)
    Blend: AUG-CC-PVTZ-JKFIT

    Orbital Energies [Eh]
    ---------------------

    Doubly Occupied:

       1A    -20.515522     2A    -15.583911     3A    -11.351648
       4A    -11.276387     5A    -11.257651     6A    -11.248254
       7A    -11.246386     8A    -11.244826     9A    -11.241296
      10A    -11.239347    11A    -11.239287    12A    -11.238100
      13A     -1.369053    14A     -1.236021    15A     -1.163719
      16A     -1.082242    17A     -1.036184    18A     -1.020453
      19A     -0.938487    20A     -0.881317    21A     -0.841134
      22A     -0.798064    23A     -0.776395    24A     -0.696915
      25A     -0.685911    26A     -0.671903    27A     -0.652572
      28A     -0.623084    29A     -0.616360    30A     -0.599616
      31A     -0.587209    32A     -0.576303    33A     -0.556973
      34A     -0.535874    35A     -0.518612    36A     -0.509501
      37A     -0.492751    38A     -0.489771    39A     -0.478221
      40A     -0.423371    41A     -0.390434    42A     -0.343097
      43A     -0.335670

  @DF-RHF Final Energy:  -514.59652191438727

   => Energetics <=

    Nuclear Repulsion Energy =            685.2209116599492518
    One-Electron Energy =               -2058.4152072371903159
    Two-Electron Energy =                 858.5977736628537968
    Total Energy =                       -514.5965219143872673
  Basis Set: (AUG-CC-PVTZ AUX)
    Blend: AUG-CC-PVTZ-RI
    Molecular point group: c1

    Geometry (in Angstrom), charge = 0, multiplicity = 1:

       Center              X                  Y                   Z               Mass
    ------------   -----------------  -----------------  -----------------  -----------------
         O            0.937457972892     2.465457235053    -0.648686850250    15.994914619570
         N            2.063472072892     0.649069135053     0.188547749750    14.003074004430
         C            0.773520072892    -1.603869864947    -0.859723250250    12.000000000000
         C            1.832859072892    -1.819961864947     0.229980749750    12.000000000000
         C           -0.432659927108    -0.841402864947    -0.370907250250    12.000000000000
         C            2.043787072892    -0.538556864947     1.036473749750    12.000000000000
         C           -0.347994927108     0.536224135053    -0.080781250250    12.000000000000
         C            0.929013072892     1.310562135053    -0.212485250250    12.000000000000
         C           -1.674274927108    -1.471960864947    -0.226295250250    12.000000000000
         C           -1.486501927108     1.254784135053     0.302181749750    12.000000000000
         C           -2.804123927108    -0.763176864947     0.185077749750    12.000000000000
         C           -2.711054927108     0.605937135053     0.446258749750    12.000000000000
         H            0.455437072892    -2.570470864947    -1.266396250250     1.007825032230
         H            1.233684072892    -1.049914864947    -1.685037250250     1.007825032230
         H            1.523629072892    -2.619285864947     0.914942749750     1.007825032230
         H            2.771460072892    -2.136646864947    -0.239842250250     1.007825032230
         H            1.246122072892    -0.437125864947     1.780287749750     1.007825032230
         H            2.990076072892    -0.574753864947     1.584074749750     1.007825032230
         H            2.896407072892     1.228582135053     0.166479749750     1.007825032230
         H           -1.758456927108    -2.533070864947    -0.456569250250     1.007825032230
         H           -1.390990927108     2.323297135053     0.477795749750     1.007825032230
         H           -3.757059927108    -1.276652864947     0.290879749750     1.007825032230
         H           -3.591139927108     1.165720135053     0.753307749750     1.007825032230

  Basis Set: AUG-CC-PVTZ
    Blend: AUG-CC-PVTZ
  Basis Set: (AUG-CC-PVTZ AUX)
    Blend: AUG-CC-PVTZ-JKFIT
	 Reference Energy          =    -514.5965219143872673 [Eh]
	 Singles Energy            =      -0.0000000000000000 [Eh]
	 Same-Spin Energy          =      -0.5586767065587097 [Eh]
	 Opposite-Spin Energy      =      -1.7444273595136210 [Eh]
	 Correlation Energy        =      -2.3031040660723310 [Eh]
	 Total Energy              =    -516.8996259804596320 [Eh]

	 ================> DF-SCS-MP2 Energies <==================
	-----------------------------------------------------------
	 SCS Same-Spin Scale       =       0.3333333333333333 [-]
	 SCS Opposite-Spin Scale   =       1.2000000000000000 [-]
	 SCS Same-Spin Energy      =      -0.1862255688529032 [Eh]
	 SCS Opposite-Spin Energy  =      -2.0933128314163452 [Eh]
	 SCS Correlation Energy    =      -2.2795384002692485 [Eh]
	 SCS Total Energy          =    -516.8760603146565700 [Eh]
	-----------------------------------------------------------

  Dipole Moment: [D]
     X:     0.6998      Y:    -3.6016      Z:     1.7751     Total:     4.0758

*** Psi4 exiting successfully. Buy a developer a beer!
