                               Psi4 1.4a3.dev225

  ==> Input File <==

--------------------------------------------------------------------------
#psi4
#
memory 32 gb

molecule  {
0 1
  O        0.9417500     2.5148810    -0.6596880
  N        2.0463840     0.6978680     0.1749460
  C        0.7564320    -1.5550710    -0.8733250
  C        1.8157710    -1.7711630     0.2163790
  C       -0.4497480    -0.7926040    -0.3845090
  C        2.0266990    -0.4897580     1.0228720
  C       -0.3650830     0.5850230    -0.0943830
  C        0.8693362     1.3335365    -0.2216946
  C       -1.6913630    -1.4231620    -0.2398970
  C       -1.5035900     1.3035830     0.2885800
  C       -2.8212120    -0.7143780     0.1714760
  C       -2.7281430     0.6547360     0.4326570
  H        0.4383490    -2.5216720    -1.2799980
  H        1.2165960    -1.0011160    -1.6986390
  H        1.5065410    -2.5704870     0.9013410
  H        2.7543720    -2.0878480    -0.2534440
  H        1.2290340    -0.3883270     1.7666860
  H        2.9729880    -0.5259550     1.5704730
  H        2.8793190     1.2773810     0.1528780
  H       -1.7755450    -2.4842720    -0.4701710
  H       -1.4080790     2.3720960     0.4641940
  H       -3.7741480    -1.2278540     0.2772780
  H       -3.6082280     1.2145190     0.7397060
units angstrom
no_reorient  #important for SAPT in psi4, default
symmetry c1  #important for SAPT in psi4, default
}

set PROPERTIES_ORIGIN ["COM"]
properties('MP2/aug-cc-pvtz', properties = ['dipole'])
--------------------------------------------------------------------------

    Molecular point group: c1
  Charge       = 0
  Multiplicity = 1
  Basis Set: AUG-CC-PVTZ
    Blend: AUG-CC-PVTZ
  Basis Set: (AUG-CC-PVTZ AUX)
    Blend: AUG-CC-PVTZ-JKFIT

    Orbital Energies [Eh]
    ---------------------

    Doubly Occupied:

       1A    -20.512132     2A    -15.580659     3A    -11.352796
       4A    -11.273100     5A    -11.262463     6A    -11.252800
       7A    -11.250025     8A    -11.246919     9A    -11.244118
      10A    -11.242193    11A    -11.240401    12A    -11.237572
      13A     -1.352240    14A     -1.225906    15A     -1.167792
      16A     -1.082285    17A     -1.044818    18A     -1.021436
      19A     -0.937094    20A     -0.889211    21A     -0.842305
      22A     -0.800012    23A     -0.776670    24A     -0.700435
      25A     -0.683021    26A     -0.673816    27A     -0.651158
      28A     -0.624664    29A     -0.614559    30A     -0.601173
      31A     -0.583679    32A     -0.575470    33A     -0.554277
      34A     -0.535978    35A     -0.517556    36A     -0.510838
      37A     -0.493130    38A     -0.490028    39A     -0.477895
      40A     -0.423024    41A     -0.383836    42A     -0.347050
      43A     -0.338709

  @DF-RHF Final Energy:  -514.58999921933184

   => Energetics <=

    Nuclear Repulsion Energy =            685.4078703942871016
    One-Electron Energy =               -2058.7652540306339688
    Two-Electron Energy =                 858.7673844170150232
    Total Energy =                       -514.5899992193318440
  Basis Set: (AUG-CC-PVTZ AUX)
    Blend: AUG-CC-PVTZ-RI
    Molecular point group: c1

    Geometry (in Angstrom), charge = 0, multiplicity = 1:

       Center              X                  Y                   Z               Mass
    ------------   -----------------  -----------------  -----------------  -----------------
         O            0.959887790175     2.467943888292    -0.646671690998    15.994914619570
         N            2.064521790175     0.650930888292     0.187962309002    14.003074004430
         C            0.774569790175    -1.602008111708    -0.860308690998    12.000000000000
         C            1.833908790175    -1.818100111708     0.229395309002    12.000000000000
         C           -0.431610209825    -0.839541111708    -0.371492690998    12.000000000000
         C            2.044836790175    -0.536695111708     1.035888309002    12.000000000000
         C           -0.346945209825     0.538085888292    -0.081366690998    12.000000000000
         C            0.887473990175     1.286599388292    -0.208678290998    12.000000000000
         C           -1.673225209825    -1.470099111708    -0.226880690998    12.000000000000
         C           -1.485452209825     1.256645888292     0.301596309002    12.000000000000
         C           -2.803074209825    -0.761315111708     0.184492309002    12.000000000000
         C           -2.710005209825     0.607798888292     0.445673309002    12.000000000000
         H            0.456486790175    -2.568609111708    -1.266981690998     1.007825032230
         H            1.234733790175    -1.048053111708    -1.685622690998     1.007825032230
         H            1.524678790175    -2.617424111708     0.914357309002     1.007825032230
         H            2.772509790175    -2.134785111708    -0.240427690998     1.007825032230
         H            1.247171790175    -0.435264111708     1.779702309002     1.007825032230
         H            2.991125790175    -0.572892111708     1.583489309002     1.007825032230
         H            2.897456790175     1.230443888292     0.165894309002     1.007825032230
         H           -1.757407209825    -2.531209111708    -0.457154690998     1.007825032230
         H           -1.389941209825     2.325158888292     0.477210309002     1.007825032230
         H           -3.756010209825    -1.274791111708     0.290294309002     1.007825032230
         H           -3.590090209825     1.167581888292     0.752722309002     1.007825032230

  Basis Set: AUG-CC-PVTZ
    Blend: AUG-CC-PVTZ
  Basis Set: (AUG-CC-PVTZ AUX)
    Blend: AUG-CC-PVTZ-JKFIT
	 Reference Energy          =    -514.5899992193318440 [Eh]
	 Singles Energy            =      -0.0000000000000000 [Eh]
	 Same-Spin Energy          =      -0.5596984739213098 [Eh]
	 Opposite-Spin Energy      =      -1.7464475578083749 [Eh]
	 Correlation Energy        =      -2.3061460317296847 [Eh]
	 Total Energy              =    -516.8961452510615118 [Eh]

	 ================> DF-SCS-MP2 Energies <==================
	-----------------------------------------------------------
	 SCS Same-Spin Scale       =       0.3333333333333333 [-]
	 SCS Opposite-Spin Scale   =       1.2000000000000000 [-]
	 SCS Same-Spin Energy      =      -0.1865661579737699 [Eh]
	 SCS Opposite-Spin Energy  =      -2.0957370693700499 [Eh]
	 SCS Correlation Energy    =      -2.2823032273438200 [Eh]
	 SCS Total Energy          =    -516.8723024466756897 [Eh]
	-----------------------------------------------------------

  Dipole Moment: [D]
     X:     0.3336      Y:    -3.7494      Z:     1.7744     Total:     4.1615

*** Psi4 exiting successfully. Buy a developer a beer!
