                               Psi4 1.4a3.dev225

  ==> Input File <==

--------------------------------------------------------------------------
#psi4
#
memory 32 gb

molecule  {
0 1
  O        0.9417500     2.5148810    -0.6596880
  N        2.0463840     0.6978680     0.1749460
  C        0.7564320    -1.5550710    -0.8733250
  C        1.8157710    -1.7711630     0.2163790
  C       -0.4497480    -0.7926040    -0.3845090
  C        2.0266990    -0.4897580     1.0228720
  C       -0.3650830     0.5850230    -0.0943830
  C        0.9284491     1.3497260    -0.2202457
  C       -1.6913630    -1.4231620    -0.2398970
  C       -1.5035900     1.3035830     0.2885800
  C       -2.8212120    -0.7143780     0.1714760
  C       -2.7281430     0.6547360     0.4326570
  H        0.4383490    -2.5216720    -1.2799980
  H        1.2165960    -1.0011160    -1.6986390
  H        1.5065410    -2.5704870     0.9013410
  H        2.7543720    -2.0878480    -0.2534440
  H        1.2290340    -0.3883270     1.7666860
  H        2.9729880    -0.5259550     1.5704730
  H        2.8793190     1.2773810     0.1528780
  H       -1.7755450    -2.4842720    -0.4701710
  H       -1.4080790     2.3720960     0.4641940
  H       -3.7741480    -1.2278540     0.2772780
  H       -3.6082280     1.2145190     0.7397060
units angstrom
no_reorient  #important for SAPT in psi4, default
symmetry c1  #important for SAPT in psi4, default
}

set PROPERTIES_ORIGIN ["COM"]
properties('MP2/aug-cc-pvtz', properties = ['dipole'])
--------------------------------------------------------------------------

    Molecular point group: c1
  Charge       = 0
  Multiplicity = 1
  Basis Set: AUG-CC-PVTZ
    Blend: AUG-CC-PVTZ
  Basis Set: (AUG-CC-PVTZ AUX)
    Blend: AUG-CC-PVTZ-JKFIT

    Orbital Energies [Eh]
    ---------------------

    Doubly Occupied:

       1A    -20.511810     2A    -15.586465     3A    -11.350940
       4A    -11.278023     5A    -11.257414     6A    -11.248074
       7A    -11.247276     8A    -11.244884     9A    -11.241289
      10A    -11.239951    11A    -11.239381    12A    -11.239173
      13A     -1.363084    14A     -1.239895    15A     -1.163877
      16A     -1.083466    17A     -1.035487    18A     -1.021286
      19A     -0.940392    20A     -0.881356    21A     -0.842112
      22A     -0.798301    23A     -0.778672    24A     -0.697317
      25A     -0.687596    26A     -0.671643    27A     -0.653166
      28A     -0.622388    29A     -0.617183    30A     -0.599905
      31A     -0.585401    32A     -0.575883    33A     -0.556884
      34A     -0.536336    35A     -0.518312    36A     -0.508507
      37A     -0.493186    38A     -0.490218    39A     -0.478259
      40A     -0.421275    41A     -0.390836    42A     -0.342795
      43A     -0.335687

  @DF-RHF Final Energy:  -514.59578901766145

   => Energetics <=

    Nuclear Repulsion Energy =            685.1461003719143719
    One-Electron Energy =               -2058.2530087253585407
    Two-Electron Energy =                 858.5111193357827233
    Total Energy =                       -514.5957890176614455
  Basis Set: (AUG-CC-PVTZ AUX)
    Blend: AUG-CC-PVTZ-RI
    Molecular point group: c1

    Geometry (in Angstrom), charge = 0, multiplicity = 1:

       Center              X                  Y                   Z               Mass
    ------------   -----------------  -----------------  -----------------  -----------------
         O            0.955484159037     2.466737847203    -0.646779627187    15.994914619570
         N            2.060118159037     0.649724847203     0.187854372813    14.003074004430
         C            0.770166159037    -1.603214152797    -0.860416627187    12.000000000000
         C            1.829505159037    -1.819306152797     0.229287372813    12.000000000000
         C           -0.436013840963    -0.840747152797    -0.371600627187    12.000000000000
         C            2.040433159037    -0.537901152797     1.035780372813    12.000000000000
         C           -0.351348840963     0.536879847203    -0.081474627187    12.000000000000
         C            0.942183259037     1.301582847203    -0.207337327187    12.000000000000
         C           -1.677628840963    -1.471305152797    -0.226988627187    12.000000000000
         C           -1.489855840963     1.255439847203     0.301488372813    12.000000000000
         C           -2.807477840963    -0.762521152797     0.184384372813    12.000000000000
         C           -2.714408840963     0.606592847203     0.445565372813    12.000000000000
         H            0.452083159037    -2.569815152797    -1.267089627187     1.007825032230
         H            1.230330159037    -1.049259152797    -1.685730627187     1.007825032230
         H            1.520275159037    -2.618630152797     0.914249372813     1.007825032230
         H            2.768106159037    -2.135991152797    -0.240535627187     1.007825032230
         H            1.242768159037    -0.436470152797     1.779594372813     1.007825032230
         H            2.986722159037    -0.574098152797     1.583381372813     1.007825032230
         H            2.893053159037     1.229237847203     0.165786372813     1.007825032230
         H           -1.761810840963    -2.532415152797    -0.457262627187     1.007825032230
         H           -1.394344840963     2.323952847203     0.477102372813     1.007825032230
         H           -3.760413840963    -1.275997152797     0.290186372813     1.007825032230
         H           -3.594493840963     1.166375847203     0.752614372813     1.007825032230

  Basis Set: AUG-CC-PVTZ
    Blend: AUG-CC-PVTZ
  Basis Set: (AUG-CC-PVTZ AUX)
    Blend: AUG-CC-PVTZ-JKFIT
	 Reference Energy          =    -514.5957890176614455 [Eh]
	 Singles Energy            =      -0.0000000000000000 [Eh]
	 Same-Spin Energy          =      -0.5587724837125675 [Eh]
	 Opposite-Spin Energy      =      -1.7445807457011115 [Eh]
	 Correlation Energy        =      -2.3033532294136791 [Eh]
	 Total Energy              =    -516.8991422470751331 [Eh]

	 ================> DF-SCS-MP2 Energies <==================
	-----------------------------------------------------------
	 SCS Same-Spin Scale       =       0.3333333333333333 [-]
	 SCS Opposite-Spin Scale   =       1.2000000000000000 [-]
	 SCS Same-Spin Energy      =      -0.1862574945708558 [Eh]
	 SCS Opposite-Spin Energy  =      -2.0934968948413339 [Eh]
	 SCS Correlation Energy    =      -2.2797543894121897 [Eh]
	 SCS Total Energy          =    -516.8755434070736783 [Eh]
	-----------------------------------------------------------

  Dipole Moment: [D]
     X:     0.7603      Y:    -3.7151      Z:     1.8283     Total:     4.2098

*** Psi4 exiting successfully. Buy a developer a beer!
