                               Psi4 1.4a3.dev225

  ==> Input File <==

--------------------------------------------------------------------------
#psi4
#
memory 32 gb

molecule  {
0 1
  O        0.9417500     2.5148810    -0.6596880
  N        2.0463840     0.6978680     0.1749460
  C        0.7564320    -1.5550710    -0.8733250
  C        1.8157710    -1.7711630     0.2163790
  C       -0.4497480    -0.7926040    -0.3845090
  C        2.0266990    -0.4897580     1.0228720
  C       -0.3650830     0.5850230    -0.0943830
  C        0.9119250     1.3593610    -0.2260870
  C       -1.7090998    -1.4321697    -0.2378312
  C       -1.5035900     1.3035830     0.2885800
  C       -2.8212120    -0.7143780     0.1714760
  C       -2.7281430     0.6547360     0.4326570
  H        0.4383490    -2.5216720    -1.2799980
  H        1.2165960    -1.0011160    -1.6986390
  H        1.5065410    -2.5704870     0.9013410
  H        2.7543720    -2.0878480    -0.2534440
  H        1.2290340    -0.3883270     1.7666860
  H        2.9729880    -0.5259550     1.5704730
  H        2.8793190     1.2773810     0.1528780
  H       -1.7755450    -2.4842720    -0.4701710
  H       -1.4080790     2.3720960     0.4641940
  H       -3.7741480    -1.2278540     0.2772780
  H       -3.6082280     1.2145190     0.7397060
units angstrom
no_reorient  #important for SAPT in psi4, default
symmetry c1  #important for SAPT in psi4, default
}

set PROPERTIES_ORIGIN ["COM"]
properties('MP2/aug-cc-pvtz', properties = ['dipole'])
--------------------------------------------------------------------------

    Molecular point group: c1
  Charge       = 0
  Multiplicity = 1
  Basis Set: AUG-CC-PVTZ
    Blend: AUG-CC-PVTZ
  Basis Set: (AUG-CC-PVTZ AUX)
    Blend: AUG-CC-PVTZ-JKFIT

    Orbital Energies [Eh]
    ---------------------

    Doubly Occupied:

       1A    -20.515262     2A    -15.582832     3A    -11.351553
       4A    -11.275838     5A    -11.260687     6A    -11.247649
       7A    -11.247098     8A    -11.245445     9A    -11.242010
      10A    -11.239713    11A    -11.239610    12A    -11.238159
      13A     -1.369164    14A     -1.234884    15A     -1.163053
      16A     -1.082172    17A     -1.037972    18A     -1.019571
      19A     -0.938265    20A     -0.880880    21A     -0.841973
      22A     -0.798300    23A     -0.776143    24A     -0.697085
      25A     -0.685955    26A     -0.671958    27A     -0.652507
      28A     -0.623380    29A     -0.615406    30A     -0.602057
      31A     -0.587009    32A     -0.576219    33A     -0.556905
      34A     -0.536146    35A     -0.518602    36A     -0.509090
      37A     -0.492881    38A     -0.489837    39A     -0.479216
      40A     -0.423254    41A     -0.389552    42A     -0.345399
      43A     -0.333842

  @DF-RHF Final Energy:  -514.59610353329379

   => Energetics <=

    Nuclear Repulsion Energy =            684.8020352825178634
    One-Electron Energy =               -2057.5672103996562328
    Two-Electron Energy =                 858.1690715838445840
    Total Energy =                       -514.5961035332937854
  Basis Set: (AUG-CC-PVTZ AUX)
    Blend: AUG-CC-PVTZ-RI
    Molecular point group: c1

    Geometry (in Angstrom), charge = 0, multiplicity = 1:

       Center              X                  Y                   Z               Mass
    ------------   -----------------  -----------------  -----------------  -----------------
         O            0.958036433855     2.466691116323    -0.646498370315    15.994914619570
         N            2.062670433855     0.649678116323     0.188135629685    14.003074004430
         C            0.772718433855    -1.603260883677    -0.860135370315    12.000000000000
         C            1.832057433855    -1.819352883677     0.229568629685    12.000000000000
         C           -0.433461566145    -0.840793883677    -0.371319370315    12.000000000000
         C            2.042985433855    -0.537947883677     1.036061629685    12.000000000000
         C           -0.348796566145     0.536833116323    -0.081193370315    12.000000000000
         C            0.928211433855     1.311171116323    -0.212897370315    12.000000000000
         C           -1.692813366145    -1.480359583677    -0.224641570315    12.000000000000
         C           -1.487303566145     1.255393116323     0.301769629685    12.000000000000
         C           -2.804925566145    -0.762567883677     0.184665629685    12.000000000000
         C           -2.711856566145     0.606546116323     0.445846629685    12.000000000000
         H            0.454635433855    -2.569861883677    -1.266808370315     1.007825032230
         H            1.232882433855    -1.049305883677    -1.685449370315     1.007825032230
         H            1.522827433855    -2.618676883677     0.914530629685     1.007825032230
         H            2.770658433855    -2.136037883677    -0.240254370315     1.007825032230
         H            1.245320433855    -0.436516883677     1.779875629685     1.007825032230
         H            2.989274433855    -0.574144883677     1.583662629685     1.007825032230
         H            2.895605433855     1.229191116323     0.166067629685     1.007825032230
         H           -1.759258566145    -2.532461883677    -0.456981370315     1.007825032230
         H           -1.391792566145     2.323906116323     0.477383629685     1.007825032230
         H           -3.757861566145    -1.276043883677     0.290467629685     1.007825032230
         H           -3.591941566145     1.166329116323     0.752895629685     1.007825032230

  Basis Set: AUG-CC-PVTZ
    Blend: AUG-CC-PVTZ
  Basis Set: (AUG-CC-PVTZ AUX)
    Blend: AUG-CC-PVTZ-JKFIT
	 Reference Energy          =    -514.5961035332937854 [Eh]
	 Singles Energy            =      -0.0000000000000000 [Eh]
	 Same-Spin Energy          =      -0.5586332280924379 [Eh]
	 Opposite-Spin Energy      =      -1.7444024503439253 [Eh]
	 Correlation Energy        =      -2.3030356784363630 [Eh]
	 Total Energy              =    -516.8991392117301302 [Eh]

	 ================> DF-SCS-MP2 Energies <==================
	-----------------------------------------------------------
	 SCS Same-Spin Scale       =       0.3333333333333333 [-]
	 SCS Opposite-Spin Scale   =       1.2000000000000000 [-]
	 SCS Same-Spin Energy      =      -0.1862110760308126 [Eh]
	 SCS Opposite-Spin Energy  =      -2.0932829404127102 [Eh]
	 SCS Correlation Energy    =      -2.2794940164435227 [Eh]
	 SCS Total Energy          =    -516.8755975497373356 [Eh]
	-----------------------------------------------------------

  Dipole Moment: [D]
     X:     0.6385      Y:    -3.6228      Z:     1.7652     Total:     4.0802

*** Psi4 exiting successfully. Buy a developer a beer!
