                               Psi4 1.3.2 release

  ==> Input File <==

--------------------------------------------------------------------------
#psi4
#
memory 32 gb

molecule  {
0 1
  O        0.9417500     2.5148810    -0.6596880
  N        2.0463840     0.6978680     0.1749460
  C        0.7564320    -1.5550710    -0.8733250
  C        1.8157710    -1.7711630     0.2163790
  C       -0.4497480    -0.7926040    -0.3845090
  C        2.0266990    -0.4897580     1.0228720
  C       -0.3650830     0.5850230    -0.0943830
  C        0.8293046     1.4075362    -0.2552934
  C       -1.6913630    -1.4231620    -0.2398970
  C       -1.5035900     1.3035830     0.2885800
  C       -2.8212120    -0.7143780     0.1714760
  C       -2.7281430     0.6547360     0.4326570
  H        0.4383490    -2.5216720    -1.2799980
  H        1.2165960    -1.0011160    -1.6986390
  H        1.5065410    -2.5704870     0.9013410
  H        2.7543720    -2.0878480    -0.2534440
  H        1.2290340    -0.3883270     1.7666860
  H        2.9729880    -0.5259550     1.5704730
  H        2.8793190     1.2773810     0.1528780
  H       -1.7755450    -2.4842720    -0.4701710
  H       -1.4080790     2.3720960     0.4641940
  H       -3.7741480    -1.2278540     0.2772780
  H       -3.6082280     1.2145190     0.7397060
units angstrom
no_reorient  #important for SAPT in psi4, default
symmetry c1  #important for SAPT in psi4, default
}

set PROPERTIES_ORIGIN ["COM"]
properties('MP2/aug-cc-pvtz', properties = ['dipole'])
--------------------------------------------------------------------------

    Molecular point group: c1
  Charge       = 0
  Multiplicity = 1
  Basis Set: AUG-CC-PVTZ
    Blend: AUG-CC-PVTZ
  Basis Set: (AUG-CC-PVTZ AUX)
    Blend: AUG-CC-PVTZ-JKFIT

    Orbital Energies [Eh]
    ---------------------

    Doubly Occupied:

       1A    -20.531187     2A    -15.563095     3A    -11.353803
       4A    -11.264651     5A    -11.262941     6A    -11.252658
       7A    -11.249909     8A    -11.246948     9A    -11.244253
      10A    -11.242208    11A    -11.236906    12A    -11.231692
      13A     -1.405267    14A     -1.209199    15A     -1.164808
      16A     -1.077150    17A     -1.044730    18A     -1.016779
      19A     -0.928917    20A     -0.884252    21A     -0.838390
      22A     -0.797235    23A     -0.767613    24A     -0.692826
      25A     -0.682833    26A     -0.671092    27A     -0.652765
      28A     -0.630088    29A     -0.610522    30A     -0.604653
      31A     -0.591761    32A     -0.575171    33A     -0.561367
      34A     -0.533597    35A     -0.520608    36A     -0.516198
      37A     -0.491858    38A     -0.489054    39A     -0.477505
      40A     -0.427431    41A     -0.378201    42A     -0.349084
      43A     -0.338324

  @DF-RHF Final Energy:  -514.58693557248171

   => Energetics <=

    Nuclear Repulsion Energy =            685.0737388085561861
    One-Electron Energy =               -2058.1022946137927647
    Two-Electron Energy =                 858.4416202327547580
    Total Energy =                       -514.5869355724817069
  Basis Set: (AUG-CC-PVTZ AUX)
    Blend: AUG-CC-PVTZ-RI
    Molecular point group: c1

    Geometry (in Angstrom), charge = 0, multiplicity = 1:

       Center              X                  Y                   Z               Mass
    ------------   -----------------  -----------------  -----------------  -----------------
         O            0.962869954817     2.462431261046    -0.644168739495    15.994914619570
         N            2.067503954817     0.645418261046     0.190465260505    14.003074004430
         C            0.777551954817    -1.607520738954    -0.857805739495    12.000000000000
         C            1.836890954817    -1.823612738954     0.231898260505    12.000000000000
         C           -0.428628045183    -0.845053738954    -0.368989739495    12.000000000000
         C            2.047818954817    -0.542207738954     1.038391260505    12.000000000000
         C           -0.343963045183     0.532573261046    -0.078863739495    12.000000000000
         C            0.850424554817     1.355086461046    -0.239774139495    12.000000000000
         C           -1.670243045183    -1.475611738954    -0.224377739495    12.000000000000
         C           -1.482470045183     1.251133261046     0.304099260505    12.000000000000
         C           -2.800092045183    -0.766827738954     0.186995260505    12.000000000000
         C           -2.707023045183     0.602286261046     0.448176260505    12.000000000000
         H            0.459468954817    -2.574121738954    -1.264478739495     1.007825032230
         H            1.237715954817    -1.053565738954    -1.683119739495     1.007825032230
         H            1.527660954817    -2.622936738954     0.916860260505     1.007825032230
         H            2.775491954817    -2.140297738954    -0.237924739495     1.007825032230
         H            1.250153954817    -0.440776738954     1.782205260505     1.007825032230
         H            2.994107954817    -0.578404738954     1.585992260505     1.007825032230
         H            2.900438954817     1.224931261046     0.168397260505     1.007825032230
         H           -1.754425045183    -2.536721738954    -0.454651739495     1.007825032230
         H           -1.386959045183     2.319646261046     0.479713260505     1.007825032230
         H           -3.753028045183    -1.280303738954     0.292797260505     1.007825032230
         H           -3.587108045183     1.162069261046     0.755225260505     1.007825032230

  Basis Set: AUG-CC-PVTZ
    Blend: AUG-CC-PVTZ
  Basis Set: (AUG-CC-PVTZ AUX)
    Blend: AUG-CC-PVTZ-JKFIT
	 Reference Energy          =    -514.5869355724817069 [Eh]
	 Singles Energy            =      -0.0000000000000000 [Eh]
	 Same-Spin Energy          =      -0.5583266335495618 [Eh]
	 Opposite-Spin Energy      =      -1.7439518115500232 [Eh]
	 Correlation Energy        =      -2.3022784450995850 [Eh]
	 Total Energy              =    -516.8892140175812528 [Eh]

	 ================> DF-SCS-MP2 Energies <==================
	-----------------------------------------------------------
	 SCS Same-Spin Scale       =       0.3333333333333333 [-]
	 SCS Opposite-Spin Scale   =       1.2000000000000000 [-]
	 SCS Same-Spin Energy      =      -0.1861088778498539 [Eh]
	 SCS Opposite-Spin Energy  =      -2.0927421738600276 [Eh]
	 SCS Correlation Energy    =      -2.2788510517098817 [Eh]
	 SCS Total Energy          =    -516.8657866241916281 [Eh]
	-----------------------------------------------------------

  Dipole Moment: [D]
     X:    -0.0674      Y:    -3.1281      Z:     1.4672     Total:     3.4557

*** Psi4 exiting successfully. Buy a developer a beer!
