                               Psi4 1.3.2 release

  ==> Input File <==

--------------------------------------------------------------------------
#psi4
#
memory 32 gb

molecule  {
0 1
  O        0.9417500     2.5148810    -0.6596880
  N        2.0463840     0.6978680     0.1749460
  C        0.7564320    -1.5550710    -0.8733250
  C        1.8157710    -1.7711630     0.2163790
  C       -0.4497480    -0.7926040    -0.3845090
  C        2.0266990    -0.4897580     1.0228720
  C       -0.4610914     0.5828461    -0.0727307
  C        0.9119250     1.3593610    -0.2260870
  C       -1.6913630    -1.4231620    -0.2398970
  C       -1.5035900     1.3035830     0.2885800
  C       -2.8212120    -0.7143780     0.1714760
  C       -2.7281430     0.6547360     0.4326570
  H        0.4383490    -2.5216720    -1.2799980
  H        1.2165960    -1.0011160    -1.6986390
  H        1.5065410    -2.5704870     0.9013410
  H        2.7543720    -2.0878480    -0.2534440
  H        1.2290340    -0.3883270     1.7666860
  H        2.9729880    -0.5259550     1.5704730
  H        2.8793190     1.2773810     0.1528780
  H       -1.7755450    -2.4842720    -0.4701710
  H       -1.4080790     2.3720960     0.4641940
  H       -3.7741480    -1.2278540     0.2772780
  H       -3.6082280     1.2145190     0.7397060
units angstrom
no_reorient  #important for SAPT in psi4, default
symmetry c1  #important for SAPT in psi4, default
}

set PROPERTIES_ORIGIN ["COM"]
properties('MP2/aug-cc-pvtz', properties = ['dipole'])
--------------------------------------------------------------------------

    Molecular point group: c1
  Charge       = 0
  Multiplicity = 1
  Basis Set: AUG-CC-PVTZ
    Blend: AUG-CC-PVTZ
  Basis Set: (AUG-CC-PVTZ AUX)
    Blend: AUG-CC-PVTZ-JKFIT

    Orbital Energies [Eh]
    ---------------------

    Doubly Occupied:

       1A    -20.515764     2A    -15.583957     3A    -11.353654
       4A    -11.276380     5A    -11.255302     6A    -11.245119
       7A    -11.244600     8A    -11.241680     9A    -11.240795
      10A    -11.239548    11A    -11.238391    12A    -11.233656
      13A     -1.367247    14A     -1.233797    15A     -1.171406
      16A     -1.083923    17A     -1.035705    18A     -1.022747
      19A     -0.939431    20A     -0.869501    21A     -0.842609
      22A     -0.801084    23A     -0.776724    24A     -0.694888
      25A     -0.686737    26A     -0.666510    27A     -0.652572
      28A     -0.622358    29A     -0.615357    30A     -0.608918
      31A     -0.582687    32A     -0.576241    33A     -0.556059
      34A     -0.537050    35A     -0.519440    36A     -0.503834
      37A     -0.496822    38A     -0.494560    39A     -0.482306
      40A     -0.413948    41A     -0.389640    42A     -0.351940
      43A     -0.332514

  @DF-RHF Final Energy:  -514.58675557750894

   => Energetics <=

    Nuclear Repulsion Energy =            684.9639563718089903
    One-Electron Energy =               -2057.9066200720940287
    Two-Electron Energy =                 858.3559081227760998
    Total Energy =                       -514.5867555775089386
  Basis Set: (AUG-CC-PVTZ AUX)
    Blend: AUG-CC-PVTZ-RI
    Molecular point group: c1

    Geometry (in Angstrom), charge = 0, multiplicity = 1:

       Center              X                  Y                   Z               Mass
    ------------   -----------------  -----------------  -----------------  -----------------
         O            0.963867297422     2.466182254068    -0.647957471819    15.994914619570
         N            2.068501297422     0.649169254068     0.186676528181    14.003074004430
         C            0.778549297422    -1.603769745932    -0.861594471819    12.000000000000
         C            1.837888297422    -1.819861745932     0.228109528181    12.000000000000
         C           -0.427630702578    -0.841302745932    -0.372778471819    12.000000000000
         C            2.048816297422    -0.538456745932     1.034602528181    12.000000000000
         C           -0.438974102578     0.534147354068    -0.061000171819    12.000000000000
         C            0.934042297422     1.310662254068    -0.214356471819    12.000000000000
         C           -1.669245702578    -1.471860745932    -0.228166471819    12.000000000000
         C           -1.481472702578     1.254884254068     0.300310528181    12.000000000000
         C           -2.799094702578    -0.763076745932     0.183206528181    12.000000000000
         C           -2.706025702578     0.606037254068     0.444387528181    12.000000000000
         H            0.460466297422    -2.570370745932    -1.268267471819     1.007825032230
         H            1.238713297422    -1.049814745932    -1.686908471819     1.007825032230
         H            1.528658297422    -2.619185745932     0.913071528181     1.007825032230
         H            2.776489297422    -2.136546745932    -0.241713471819     1.007825032230
         H            1.251151297422    -0.437025745932     1.778416528181     1.007825032230
         H            2.995105297422    -0.574653745932     1.582203528181     1.007825032230
         H            2.901436297422     1.228682254068     0.164608528181     1.007825032230
         H           -1.753427702578    -2.532970745932    -0.458440471819     1.007825032230
         H           -1.385961702578     2.323397254068     0.475924528181     1.007825032230
         H           -3.752030702578    -1.276552745932     0.289008528181     1.007825032230
         H           -3.586110702578     1.165820254068     0.751436528181     1.007825032230

  Basis Set: AUG-CC-PVTZ
    Blend: AUG-CC-PVTZ
  Basis Set: (AUG-CC-PVTZ AUX)
    Blend: AUG-CC-PVTZ-JKFIT
	 Reference Energy          =    -514.5867555775089386 [Eh]
	 Singles Energy            =      -0.0000000000000000 [Eh]
	 Same-Spin Energy          =      -0.5581327849236091 [Eh]
	 Opposite-Spin Energy      =      -1.7437392093605117 [Eh]
	 Correlation Energy        =      -2.3018719942841210 [Eh]
	 Total Energy              =    -516.8886275717931085 [Eh]

	 ================> DF-SCS-MP2 Energies <==================
	-----------------------------------------------------------
	 SCS Same-Spin Scale       =       0.3333333333333333 [-]
	 SCS Opposite-Spin Scale   =       1.2000000000000000 [-]
	 SCS Same-Spin Energy      =      -0.1860442616412030 [Eh]
	 SCS Opposite-Spin Energy  =      -2.0924870512326139 [Eh]
	 SCS Correlation Energy    =      -2.2785313128738167 [Eh]
	 SCS Total Energy          =    -516.8652868903827766 [Eh]
	-----------------------------------------------------------

  Dipole Moment: [D]
     X:     0.7539      Y:    -3.5604      Z:     1.7594     Total:     4.0423

*** Psi4 exiting successfully. Buy a developer a beer!
