                               Psi4 1.4a3.dev225

  ==> Input File <==

--------------------------------------------------------------------------
#psi4
#
memory 32 gb

molecule  {
0 1
  O        0.9417500     2.5148810    -0.6596880
  N        2.0463840     0.6978680     0.1749460
  C        0.7564320    -1.5550710    -0.8733250
  C        1.8157710    -1.7711630     0.2163790
  C       -0.4497480    -0.7926040    -0.3845090
  C        2.0266990    -0.4897580     1.0228720
  C       -0.3662836     0.5654876    -0.0984971
  C        0.9119250     1.3593610    -0.2260870
  C       -1.6913630    -1.4231620    -0.2398970
  C       -1.5035900     1.3035830     0.2885800
  C       -2.8212120    -0.7143780     0.1714760
  C       -2.7281430     0.6547360     0.4326570
  H        0.4383490    -2.5216720    -1.2799980
  H        1.2165960    -1.0011160    -1.6986390
  H        1.5065410    -2.5704870     0.9013410
  H        2.7543720    -2.0878480    -0.2534440
  H        1.2290340    -0.3883270     1.7666860
  H        2.9729880    -0.5259550     1.5704730
  H        2.8793190     1.2773810     0.1528780
  H       -1.7755450    -2.4842720    -0.4701710
  H       -1.4080790     2.3720960     0.4641940
  H       -3.7741480    -1.2278540     0.2772780
  H       -3.6082280     1.2145190     0.7397060
units angstrom
no_reorient  #important for SAPT in psi4, default
symmetry c1  #important for SAPT in psi4, default
}

set PROPERTIES_ORIGIN ["COM"]
properties('MP2/aug-cc-pvtz', properties = ['dipole'])
--------------------------------------------------------------------------

    Molecular point group: c1
  Charge       = 0
  Multiplicity = 1
  Basis Set: AUG-CC-PVTZ
    Blend: AUG-CC-PVTZ
  Basis Set: (AUG-CC-PVTZ AUX)
    Blend: AUG-CC-PVTZ-JKFIT

    Orbital Energies [Eh]
    ---------------------

    Doubly Occupied:

       1A    -20.515815     2A    -15.582598     3A    -11.352218
       4A    -11.275765     5A    -11.255936     6A    -11.248433
       7A    -11.247176     8A    -11.246017     9A    -11.241775
      10A    -11.239726    11A    -11.239200    12A    -11.237891
      13A     -1.369021    14A     -1.234925    15A     -1.165315
      16A     -1.082340    17A     -1.036270    18A     -1.020222
      19A     -0.938516    20A     -0.880170    21A     -0.841739
      22A     -0.799417    23A     -0.776121    24A     -0.695776
      25A     -0.685707    26A     -0.672092    27A     -0.652841
      28A     -0.623602    29A     -0.615684    30A     -0.598915
      31A     -0.587890    32A     -0.576044    33A     -0.556924
      34A     -0.536028    35A     -0.518352    36A     -0.510253
      37A     -0.493408    38A     -0.490150    39A     -0.478199
      40A     -0.422838    41A     -0.389542    42A     -0.343109
      43A     -0.337559

  @DF-RHF Final Energy:  -514.59625067110051

   => Energetics <=

    Nuclear Repulsion Energy =            685.2244898649846618
    One-Electron Energy =               -2058.4184411786700366
    Two-Electron Energy =                 858.5977006425848685
    Total Energy =                       -514.5962506711005062
  Basis Set: (AUG-CC-PVTZ AUX)
    Blend: AUG-CC-PVTZ-RI
    Molecular point group: c1

    Geometry (in Angstrom), charge = 0, multiplicity = 1:

       Center              X                  Y                   Z               Mass
    ------------   -----------------  -----------------  -----------------  -----------------
         O            0.956804565257     2.467475380122    -0.646037997028    15.994914619570
         N            2.061438565257     0.650462380122     0.188596002972    14.003074004430
         C            0.771486565257    -1.602476619878    -0.859674997028    12.000000000000
         C            1.830825565257    -1.818568619878     0.230029002972    12.000000000000
         C           -0.434693434743    -0.840009619878    -0.370858997028    12.000000000000
         C            2.041753565257    -0.537163619878     1.036522002972    12.000000000000
         C           -0.351229034743     0.518081980122    -0.084847097028    12.000000000000
         C            0.926979565257     1.311955380122    -0.212436997028    12.000000000000
         C           -1.676308434743    -1.470567619878    -0.226246997028    12.000000000000
         C           -1.488535434743     1.256177380122     0.302230002972    12.000000000000
         C           -2.806157434743    -0.761783619878     0.185126002972    12.000000000000
         C           -2.713088434743     0.607330380122     0.446307002972    12.000000000000
         H            0.453403565257    -2.569077619878    -1.266347997028     1.007825032230
         H            1.231650565257    -1.048521619878    -1.684988997028     1.007825032230
         H            1.521595565257    -2.617892619878     0.914991002972     1.007825032230
         H            2.769426565257    -2.135253619878    -0.239793997028     1.007825032230
         H            1.244088565257    -0.435732619878     1.780336002972     1.007825032230
         H            2.988042565257    -0.573360619878     1.584123002972     1.007825032230
         H            2.894373565257     1.229975380122     0.166528002972     1.007825032230
         H           -1.760490434743    -2.531677619878    -0.456520997028     1.007825032230
         H           -1.393024434743     2.324690380122     0.477844002972     1.007825032230
         H           -3.759093434743    -1.275259619878     0.290928002972     1.007825032230
         H           -3.593173434743     1.167113380122     0.753356002972     1.007825032230

  Basis Set: AUG-CC-PVTZ
    Blend: AUG-CC-PVTZ
  Basis Set: (AUG-CC-PVTZ AUX)
    Blend: AUG-CC-PVTZ-JKFIT
	 Reference Energy          =    -514.5962506711005062 [Eh]
	 Singles Energy            =      -0.0000000000000000 [Eh]
	 Same-Spin Energy          =      -0.5586152864967099 [Eh]
	 Opposite-Spin Energy      =      -1.7443568213627398 [Eh]
	 Correlation Energy        =      -2.3029721078594498 [Eh]
	 Total Energy              =    -516.8992227789599383 [Eh]

	 ================> DF-SCS-MP2 Energies <==================
	-----------------------------------------------------------
	 SCS Same-Spin Scale       =       0.3333333333333333 [-]
	 SCS Opposite-Spin Scale   =       1.2000000000000000 [-]
	 SCS Same-Spin Energy      =      -0.1862050954989033 [Eh]
	 SCS Opposite-Spin Energy  =      -2.0932281856352879 [Eh]
	 SCS Correlation Energy    =      -2.2794332811341911 [Eh]
	 SCS Total Energy          =    -516.8756839522346809 [Eh]
	-----------------------------------------------------------

  Dipole Moment: [D]
     X:     0.6405      Y:    -3.6034      Z:     1.7656     Total:     4.0635

*** Psi4 exiting successfully. Buy a developer a beer!
