                               Psi4 1.3.2 release

  ==> Input File <==

--------------------------------------------------------------------------
#psi4
#
memory 32 gb

molecule  {
0 1
  O        0.9417500     2.5148810    -0.6596880
  N        2.0463840     0.6978680     0.1749460
  C        0.7564320    -1.5550710    -0.8733250
  C        1.8157710    -1.7711630     0.2163790
  C       -0.4497480    -0.7926040    -0.3845090
  C        2.0266990    -0.4897580     1.0228720
  C       -0.3650830     0.5850230    -0.0943830
  C        0.9119250     1.3593610    -0.2260870
  C       -1.6913630    -1.4231620    -0.2398970
  C       -1.5035900     1.3035830     0.2885800
  C       -2.8212120    -0.7143780     0.1714760
  C       -2.7281430     0.6547360     0.4326570
  H        0.4383490    -2.5216720    -1.2799980
  H        1.2165960    -1.0011160    -1.6986390
  H        1.4783559    -2.6433423     0.9637726
  H        2.7543720    -2.0878480    -0.2534440
  H        1.2290340    -0.3883270     1.7666860
  H        2.9729880    -0.5259550     1.5704730
  H        2.8793190     1.2773810     0.1528780
  H       -1.7755450    -2.4842720    -0.4701710
  H       -1.4080790     2.3720960     0.4641940
  H       -3.7741480    -1.2278540     0.2772780
  H       -3.6082280     1.2145190     0.7397060
units angstrom
no_reorient  #important for SAPT in psi4, default
symmetry c1  #important for SAPT in psi4, default
}

set PROPERTIES_ORIGIN ["COM"]
properties('MP2/aug-cc-pvtz', properties = ['dipole'])
--------------------------------------------------------------------------

    Molecular point group: c1
  Charge       = 0
  Multiplicity = 1
  Basis Set: AUG-CC-PVTZ
    Blend: AUG-CC-PVTZ
  Basis Set: (AUG-CC-PVTZ AUX)
    Blend: AUG-CC-PVTZ-JKFIT

    Orbital Energies [Eh]
    ---------------------

    Doubly Occupied:

       1A    -20.515726     2A    -15.583585     3A    -11.352022
       4A    -11.276754     5A    -11.258600     6A    -11.249995
       7A    -11.248977     8A    -11.247523     9A    -11.245770
      10A    -11.241972    11A    -11.240441    12A    -11.240059
      13A     -1.369633    14A     -1.235553    15A     -1.164471
      16A     -1.080988    17A     -1.036718    18A     -1.019557
      19A     -0.939017    20A     -0.880812    21A     -0.838775
      22A     -0.795292    23A     -0.776794    24A     -0.696836
      25A     -0.685305    26A     -0.671443    27A     -0.651531
      28A     -0.623217    29A     -0.616033    30A     -0.599404
      31A     -0.586811    32A     -0.575777    33A     -0.556618
      34A     -0.534858    35A     -0.515611    36A     -0.509769
      37A     -0.493516    38A     -0.484717    39A     -0.477650
      40A     -0.423798    41A     -0.390260    42A     -0.344066
      43A     -0.336468

  @DF-RHF Final Energy:  -514.59014715615729

   => Energetics <=

    Nuclear Repulsion Energy =            684.6422230730429419
    One-Electron Energy =               -2057.2392922269691553
    Two-Electron Energy =                 858.0069219977689272
    Total Energy =                       -514.5901471561572862
  Basis Set: (AUG-CC-PVTZ AUX)
    Blend: AUG-CC-PVTZ-RI
    Molecular point group: c1

    Geometry (in Angstrom), charge = 0, multiplicity = 1:

       Center              X                  Y                   Z               Mass
    ------------   -----------------  -----------------  -----------------  -----------------
         O            0.956891466773     2.466475905681    -0.646735082305    15.994914619570
         N            2.061525466773     0.649462905681     0.187898917695    14.003074004430
         C            0.771573466773    -1.603476094319    -0.860372082305    12.000000000000
         C            1.830912466773    -1.819568094319     0.229331917695    12.000000000000
         C           -0.434606533227    -0.841009094319    -0.371556082305    12.000000000000
         C            2.041840466773    -0.538163094319     1.035824917695    12.000000000000
         C           -0.349941533227     0.536617905681    -0.081430082305    12.000000000000
         C            0.927066466773     1.310955905681    -0.213134082305    12.000000000000
         C           -1.676221533227    -1.471567094319    -0.226944082305    12.000000000000
         C           -1.488448533227     1.255177905681     0.301532917695    12.000000000000
         C           -2.806070533227    -0.762783094319     0.184428917695    12.000000000000
         C           -2.713001533227     0.606330905681     0.445609917695    12.000000000000
         H            0.453490466773    -2.570077094319    -1.267045082305     1.007825032230
         H            1.231737466773    -1.049521094319    -1.685686082305     1.007825032230
         H            1.493497366773    -2.691747394319     0.976725517695     1.007825032230
         H            2.769513466773    -2.136253094319    -0.240491082305     1.007825032230
         H            1.244175466773    -0.436732094319     1.779638917695     1.007825032230
         H            2.988129466773    -0.574360094319     1.583425917695     1.007825032230
         H            2.894460466773     1.228975905681     0.165830917695     1.007825032230
         H           -1.760403533227    -2.532677094319    -0.457218082305     1.007825032230
         H           -1.392937533227     2.323690905681     0.477146917695     1.007825032230
         H           -3.759006533227    -1.276259094319     0.290230917695     1.007825032230
         H           -3.593086533227     1.166113905681     0.752658917695     1.007825032230

  Basis Set: AUG-CC-PVTZ
    Blend: AUG-CC-PVTZ
  Basis Set: (AUG-CC-PVTZ AUX)
    Blend: AUG-CC-PVTZ-JKFIT
	 Reference Energy          =    -514.5901471561572862 [Eh]
	 Singles Energy            =      -0.0000000000000000 [Eh]
	 Same-Spin Energy          =      -0.5586840843377429 [Eh]
	 Opposite-Spin Energy      =      -1.7451455132304450 [Eh]
	 Correlation Energy        =      -2.3038295975681877 [Eh]
	 Total Energy              =    -516.8939767537254966 [Eh]

	 ================> DF-SCS-MP2 Energies <==================
	-----------------------------------------------------------
	 SCS Same-Spin Scale       =       0.3333333333333333 [-]
	 SCS Opposite-Spin Scale   =       1.2000000000000000 [-]
	 SCS Same-Spin Energy      =      -0.1862280281125809 [Eh]
	 SCS Opposite-Spin Energy  =      -2.0941746158765340 [Eh]
	 SCS Correlation Energy    =      -2.2804026439891150 [Eh]
	 SCS Total Energy          =    -516.8705498001463639 [Eh]
	-----------------------------------------------------------

  Dipole Moment: [D]
     X:     0.6183      Y:    -3.5502      Z:     1.7224     Total:     3.9942

*** Psi4 exiting successfully. Buy a developer a beer!
