                               Psi4 1.3.2 release

  ==> Input File <==

--------------------------------------------------------------------------
#psi4
#
memory 32 gb

molecule  {
0 1
  O        0.9417500     2.5148810    -0.6596880
  N        2.0463840     0.6978680     0.1749460
  C        0.7564320    -1.5550710    -0.8733250
  C        1.8157710    -1.7711630     0.2163790
  C       -0.4497480    -0.7926040    -0.3845090
  C        2.1691184    -0.4529109     1.0640274
  C       -0.3650830     0.5850230    -0.0943830
  C        0.9119250     1.3593610    -0.2260870
  C       -1.6913630    -1.4231620    -0.2398970
  C       -1.5035900     1.3035830     0.2885800
  C       -2.8212120    -0.7143780     0.1714760
  C       -2.7281430     0.6547360     0.4326570
  H        0.4383490    -2.5216720    -1.2799980
  H        1.2165960    -1.0011160    -1.6986390
  H        1.5065410    -2.5704870     0.9013410
  H        2.7543720    -2.0878480    -0.2534440
  H        1.2290340    -0.3883270     1.7666860
  H        2.9729880    -0.5259550     1.5704730
  H        2.8793190     1.2773810     0.1528780
  H       -1.7755450    -2.4842720    -0.4701710
  H       -1.4080790     2.3720960     0.4641940
  H       -3.7741480    -1.2278540     0.2772780
  H       -3.6082280     1.2145190     0.7397060
units angstrom
no_reorient  #important for SAPT in psi4, default
symmetry c1  #important for SAPT in psi4, default
}

set PROPERTIES_ORIGIN ["COM"]
properties('MP2/aug-cc-pvtz', properties = ['dipole'])
--------------------------------------------------------------------------

    Molecular point group: c1
  Charge       = 0
  Multiplicity = 1
  Basis Set: AUG-CC-PVTZ
    Blend: AUG-CC-PVTZ
  Basis Set: (AUG-CC-PVTZ AUX)
    Blend: AUG-CC-PVTZ-JKFIT

    Orbital Energies [Eh]
    ---------------------

    Doubly Occupied:

       1A    -20.516983     2A    -15.583756     3A    -11.355127
       4A    -11.276248     5A    -11.258394     6A    -11.248830
       7A    -11.247226     8A    -11.245584     9A    -11.241436
      10A    -11.240958    11A    -11.240362    12A    -11.239592
      13A     -1.370298    14A     -1.233441    15A     -1.164277
      16A     -1.077125    17A     -1.037065    18A     -1.017414
      19A     -0.944662    20A     -0.883685    21A     -0.840971
      22A     -0.798267    23A     -0.774955    24A     -0.705420
      25A     -0.692395    26A     -0.667831    27A     -0.659913
      28A     -0.622196    29A     -0.615463    30A     -0.598266
      31A     -0.587604    32A     -0.569073    33A     -0.557779
      34A     -0.543214    35A     -0.510786    36A     -0.506694
      37A     -0.498304    38A     -0.488229    39A     -0.473299
      40A     -0.426175    41A     -0.380069    42A     -0.343977
      43A     -0.335779

  @DF-RHF Final Energy:  -514.56664885192197

   => Energetics <=

    Nuclear Repulsion Energy =            682.8988478136352569
    One-Electron Energy =               -2053.6927457216679613
    Two-Electron Energy =                 856.2272490561107361
    Total Energy =                       -514.5666488519219683
  Basis Set: (AUG-CC-PVTZ AUX)
    Blend: AUG-CC-PVTZ-RI
    Molecular point group: c1

    Geometry (in Angstrom), charge = 0, multiplicity = 1:

       Center              X                  Y                   Z               Mass
    ------------   -----------------  -----------------  -----------------  -----------------
         O            0.946105555327     2.463275150855    -0.649410360418    15.994914619570
         N            2.050739555327     0.646262150855     0.185223639582    14.003074004430
         C            0.760787555327    -1.606676849145    -0.863047360418    12.000000000000
         C            1.820126555327    -1.822768849145     0.226656639582    12.000000000000
         C           -0.445392444673    -0.844209849145    -0.374231360418    12.000000000000
         C            2.173473955327    -0.504516749145     1.074305039582    12.000000000000
         C           -0.360727444673     0.533417150855    -0.084105360418    12.000000000000
         C            0.916280555327     1.307755150855    -0.215809360418    12.000000000000
         C           -1.687007444673    -1.474767849145    -0.229619360418    12.000000000000
         C           -1.499234444673     1.251977150855     0.298857639582    12.000000000000
         C           -2.816856444673    -0.765983849145     0.181753639582    12.000000000000
         C           -2.723787444673     0.603130150855     0.442934639582    12.000000000000
         H            0.442704555327    -2.573277849145    -1.269720360418     1.007825032230
         H            1.220951555327    -1.052721849145    -1.688361360418     1.007825032230
         H            1.510896555327    -2.622092849145     0.911618639582     1.007825032230
         H            2.758727555327    -2.139453849145    -0.243166360418     1.007825032230
         H            1.233389555327    -0.439932849145     1.776963639582     1.007825032230
         H            2.977343555327    -0.577560849145     1.580750639582     1.007825032230
         H            2.883674555327     1.225775150855     0.163155639582     1.007825032230
         H           -1.771189444673    -2.535877849145    -0.459893360418     1.007825032230
         H           -1.403723444673     2.320490150855     0.474471639582     1.007825032230
         H           -3.769792444673    -1.279459849145     0.287555639582     1.007825032230
         H           -3.603872444673     1.162913150855     0.749983639582     1.007825032230

  Basis Set: AUG-CC-PVTZ
    Blend: AUG-CC-PVTZ
  Basis Set: (AUG-CC-PVTZ AUX)
    Blend: AUG-CC-PVTZ-JKFIT
	 Reference Energy          =    -514.5666488519219683 [Eh]
	 Singles Energy            =      -0.0000000000000000 [Eh]
	 Same-Spin Energy          =      -0.5585699761225066 [Eh]
	 Opposite-Spin Energy      =      -1.7452441210168823 [Eh]
	 Correlation Energy        =      -2.3038140971393890 [Eh]
	 Total Energy              =    -516.8704629490613343 [Eh]

	 ================> DF-SCS-MP2 Energies <==================
	-----------------------------------------------------------
	 SCS Same-Spin Scale       =       0.3333333333333333 [-]
	 SCS Opposite-Spin Scale   =       1.2000000000000000 [-]
	 SCS Same-Spin Energy      =      -0.1861899920408355 [Eh]
	 SCS Opposite-Spin Energy  =      -2.0942929452202588 [Eh]
	 SCS Correlation Energy    =      -2.2804829372610942 [Eh]
	 SCS Total Energy          =    -516.8471317891830950 [Eh]
	-----------------------------------------------------------

  Dipole Moment: [D]
     X:     0.6824      Y:    -3.5299      Z:     1.7398     Total:     3.9941

*** Psi4 exiting successfully. Buy a developer a beer!
