                               Psi4 1.4a2.dev612

  ==> Input File <==

--------------------------------------------------------------------------
#psi4
#
memory 32 gb

molecule  {
0 1
  O        0.9417500     2.5148810    -0.6596880
  N        2.0463840     0.6978680     0.1749460
  C        0.7270809    -1.5940597    -0.8512061
  C        1.8157710    -1.7711630     0.2163790
  C       -0.4497480    -0.7926040    -0.3845090
  C        2.0266990    -0.4897580     1.0228720
  C       -0.3650830     0.5850230    -0.0943830
  C        0.9119250     1.3593610    -0.2260870
  C       -1.6913630    -1.4231620    -0.2398970
  C       -1.5035900     1.3035830     0.2885800
  C       -2.8212120    -0.7143780     0.1714760
  C       -2.7281430     0.6547360     0.4326570
  H        0.4383490    -2.5216720    -1.2799980
  H        1.2165960    -1.0011160    -1.6986390
  H        1.5065410    -2.5704870     0.9013410
  H        2.7543720    -2.0878480    -0.2534440
  H        1.2290340    -0.3883270     1.7666860
  H        2.9729880    -0.5259550     1.5704730
  H        2.8793190     1.2773810     0.1528780
  H       -1.7755450    -2.4842720    -0.4701710
  H       -1.4080790     2.3720960     0.4641940
  H       -3.7741480    -1.2278540     0.2772780
  H       -3.6082280     1.2145190     0.7397060
units angstrom
no_reorient  #important for SAPT in psi4, default
symmetry c1  #important for SAPT in psi4, default
}

set PROPERTIES_ORIGIN ["COM"]
properties('MP2/aug-cc-pvtz', properties = ['dipole'])
--------------------------------------------------------------------------

    Molecular point group: c1
  Charge       = 0
  Multiplicity = 1
  Basis Set: AUG-CC-PVTZ
    Blend: AUG-CC-PVTZ
  Basis Set: (AUG-CC-PVTZ AUX)
    Blend: AUG-CC-PVTZ-JKFIT

    Orbital Energies [Eh]
    ---------------------

    Doubly Occupied:

       1A    -20.515016     2A    -15.582712     3A    -11.351412
       4A    -11.276502     5A    -11.258379     6A    -11.248630
       7A    -11.247837     8A    -11.245974     9A    -11.241064
      10A    -11.240207    11A    -11.239724    12A    -11.238210
      13A     -1.368929    14A     -1.234648    15A     -1.164741
      16A     -1.083054    17A     -1.036720    18A     -1.021129
      19A     -0.938592    20A     -0.882459    21A     -0.840952
      22A     -0.798580    23A     -0.776222    24A     -0.696357
      25A     -0.687054    26A     -0.672304    27A     -0.650826
      28A     -0.625342    29A     -0.616824    30A     -0.600107
      31A     -0.587141    32A     -0.574087    33A     -0.560674
      34A     -0.533808    35A     -0.517010    36A     -0.510470
      37A     -0.499106    38A     -0.484950    39A     -0.477239
      40A     -0.423126    41A     -0.389344    42A     -0.344001
      43A     -0.335120

  @DF-RHF Final Energy:  -514.59358789547844

   => Energetics <=

    Nuclear Repulsion Energy =            685.0015806047285878
    One-Electron Energy =               -2057.9571681200309285
    Two-Electron Energy =                 858.3619996198239050
    Total Energy =                       -514.5935878954784357
  Basis Set: (AUG-CC-PVTZ AUX)
    Blend: AUG-CC-PVTZ-RI
    Molecular point group: c1

    Geometry (in Angstrom), charge = 0, multiplicity = 1:

       Center              X                  Y                   Z               Mass
    ------------   -----------------  -----------------  -----------------  -----------------
         O            0.958901644208     2.468924558857    -0.647992231309    15.994914619570
         N            2.063535644208     0.651911558857     0.186641768691    14.003074004430
         C            0.744232544208    -1.640016141143    -0.839510331309    12.000000000000
         C            1.832922644208    -1.817119441143     0.228074768691    12.000000000000
         C           -0.432596355792    -0.838560441143    -0.372813231309    12.000000000000
         C            2.043850644208    -0.535714441143     1.034567768691    12.000000000000
         C           -0.347931355792     0.539066558857    -0.082687231309    12.000000000000
         C            0.929076644208     1.313404558857    -0.214391231309    12.000000000000
         C           -1.674211355792    -1.469118441143    -0.228201231309    12.000000000000
         C           -1.486438355792     1.257626558857     0.300275768691    12.000000000000
         C           -2.804060355792    -0.760334441143     0.183171768691    12.000000000000
         C           -2.710991355792     0.608779558857     0.444352768691    12.000000000000
         H            0.455500644208    -2.567628441143    -1.268302231309     1.007825032230
         H            1.233747644208    -1.047072441143    -1.686943231309     1.007825032230
         H            1.523692644208    -2.616443441143     0.913036768691     1.007825032230
         H            2.771523644208    -2.133804441143    -0.241748231309     1.007825032230
         H            1.246185644208    -0.434283441143     1.778381768691     1.007825032230
         H            2.990139644208    -0.571911441143     1.582168768691     1.007825032230
         H            2.896470644208     1.231424558857     0.164573768691     1.007825032230
         H           -1.758393355792    -2.530228441143    -0.458475231309     1.007825032230
         H           -1.390927355792     2.326139558857     0.475889768691     1.007825032230
         H           -3.756996355792    -1.273810441143     0.288973768691     1.007825032230
         H           -3.591076355792     1.168562558857     0.751401768691     1.007825032230

  Basis Set: AUG-CC-PVTZ
    Blend: AUG-CC-PVTZ
  Basis Set: (AUG-CC-PVTZ AUX)
    Blend: AUG-CC-PVTZ-JKFIT
	 Reference Energy          =    -514.5935878954784357 [Eh]
	 Singles Energy            =      -0.0000000000000000 [Eh]
	 Same-Spin Energy          =      -0.5587437995736494 [Eh]
	 Opposite-Spin Energy      =      -1.7445343930702912 [Eh]
	 Correlation Energy        =      -2.3032781926439405 [Eh]
	 Total Energy              =    -516.8968660881223514 [Eh]

	 ================> DF-SCS-MP2 Energies <==================
	-----------------------------------------------------------
	 SCS Same-Spin Scale       =       0.3333333333333333 [-]
	 SCS Opposite-Spin Scale   =       1.2000000000000000 [-]
	 SCS Same-Spin Energy      =      -0.1862479331912165 [Eh]
	 SCS Opposite-Spin Energy  =      -2.0934412716843496 [Eh]
	 SCS Correlation Energy    =      -2.2796892048755661 [Eh]
	 SCS Total Energy          =    -516.8732771003540165 [Eh]
	-----------------------------------------------------------

  Dipole Moment: [D]
     X:     0.6282      Y:    -3.6371      Z:     1.7831     Total:     4.0990

*** Psi4 exiting successfully. Buy a developer a beer!
