                               Psi4 1.3.2 release

  ==> Input File <==

--------------------------------------------------------------------------
#psi4
#
memory 32 gb

molecule  {
0 1
  O        0.8561798     2.5104482    -0.6688245
  N        2.0463840     0.6978680     0.1749460
  C        0.7564320    -1.5550710    -0.8733250
  C        1.8157710    -1.7711630     0.2163790
  C       -0.4497480    -0.7926040    -0.3845090
  C        2.0266990    -0.4897580     1.0228720
  C       -0.3650830     0.5850230    -0.0943830
  C        0.9119250     1.3593610    -0.2260870
  C       -1.6913630    -1.4231620    -0.2398970
  C       -1.5035900     1.3035830     0.2885800
  C       -2.8212120    -0.7143780     0.1714760
  C       -2.7281430     0.6547360     0.4326570
  H        0.4383490    -2.5216720    -1.2799980
  H        1.2165960    -1.0011160    -1.6986390
  H        1.5065410    -2.5704870     0.9013410
  H        2.7543720    -2.0878480    -0.2534440
  H        1.2290340    -0.3883270     1.7666860
  H        2.9729880    -0.5259550     1.5704730
  H        2.8793190     1.2773810     0.1528780
  H       -1.7755450    -2.4842720    -0.4701710
  H       -1.4080790     2.3720960     0.4641940
  H       -3.7741480    -1.2278540     0.2772780
  H       -3.6082280     1.2145190     0.7397060
units angstrom
no_reorient  #important for SAPT in psi4, default
symmetry c1  #important for SAPT in psi4, default
}

set PROPERTIES_ORIGIN ["COM"]
properties('MP2/aug-cc-pvtz', properties = ['dipole'])
--------------------------------------------------------------------------

    Molecular point group: c1
  Charge       = 0
  Multiplicity = 1
  Basis Set: AUG-CC-PVTZ
    Blend: AUG-CC-PVTZ
  Basis Set: (AUG-CC-PVTZ AUX)
    Blend: AUG-CC-PVTZ-JKFIT

    Orbital Energies [Eh]
    ---------------------

    Doubly Occupied:

       1A    -20.516552     2A    -15.587374     3A    -11.352237
       4A    -11.278090     5A    -11.255676     6A    -11.246543
       7A    -11.244008     8A    -11.242648     9A    -11.239904
      10A    -11.239086    11A    -11.238448    12A    -11.237889
      13A     -1.369244    14A     -1.239441    15A     -1.162194
      16A     -1.082125    17A     -1.034441    18A     -1.019791
      19A     -0.938818    20A     -0.880522    21A     -0.840608
      22A     -0.797370    23A     -0.776456    24A     -0.697144
      25A     -0.686603    26A     -0.671381    27A     -0.652630
      28A     -0.622216    29A     -0.617041    30A     -0.598713
      31A     -0.587246    32A     -0.576260    33A     -0.556840
      34A     -0.535868    35A     -0.518518    36A     -0.508337
      37A     -0.492533    38A     -0.489040    39A     -0.477679
      40A     -0.423016    41A     -0.393275    42A     -0.340685
      43A     -0.334276

  @DF-RHF Final Energy:  -514.59504495297608

   => Energetics <=

    Nuclear Repulsion Energy =            685.5646549939860961
    One-Electron Energy =               -2059.1218670841176390
    Two-Electron Energy =                 858.9621671371554612
    Total Energy =                       -514.5950449529760817
  Basis Set: (AUG-CC-PVTZ AUX)
    Blend: AUG-CC-PVTZ-RI
    Molecular point group: c1

    Geometry (in Angstrom), charge = 0, multiplicity = 1:

       Center              X                  Y                   Z               Mass
    ------------   -----------------  -----------------  -----------------  -----------------
         O            0.879641657757     2.462027442197    -0.654573765118    15.994914619570
         N            2.069845857757     0.649447242197     0.189196734882    14.003074004430
         C            0.779893857757    -1.603491757803    -0.859074265118    12.000000000000
         C            1.839232857757    -1.819583757803     0.230629734882    12.000000000000
         C           -0.426286142243    -0.841024757803    -0.370258265118    12.000000000000
         C            2.050160857757    -0.538178757803     1.037122734882    12.000000000000
         C           -0.341621142243     0.536602242197    -0.080132265118    12.000000000000
         C            0.935386857757     1.310940242197    -0.211836265118    12.000000000000
         C           -1.667901142243    -1.471582757803    -0.225646265118    12.000000000000
         C           -1.480128142243     1.255162242197     0.302830734882    12.000000000000
         C           -2.797750142243    -0.762798757803     0.185726734882    12.000000000000
         C           -2.704681142243     0.606315242197     0.446907734882    12.000000000000
         H            0.461810857757    -2.570092757803    -1.265747265118     1.007825032230
         H            1.240057857757    -1.049536757803    -1.684388265118     1.007825032230
         H            1.530002857757    -2.618907757803     0.915591734882     1.007825032230
         H            2.777833857757    -2.136268757803    -0.239193265118     1.007825032230
         H            1.252495857757    -0.436747757803     1.780936734882     1.007825032230
         H            2.996449857757    -0.574375757803     1.584723734882     1.007825032230
         H            2.902780857757     1.228960242197     0.167128734882     1.007825032230
         H           -1.752083142243    -2.532692757803    -0.455920265118     1.007825032230
         H           -1.384617142243     2.323675242197     0.478444734882     1.007825032230
         H           -3.750686142243    -1.276274757803     0.291528734882     1.007825032230
         H           -3.584766142243     1.166098242197     0.753956734882     1.007825032230

  Basis Set: AUG-CC-PVTZ
    Blend: AUG-CC-PVTZ
  Basis Set: (AUG-CC-PVTZ AUX)
    Blend: AUG-CC-PVTZ-JKFIT
	 Reference Energy          =    -514.5950449529760817 [Eh]
	 Singles Energy            =      -0.0000000000000000 [Eh]
	 Same-Spin Energy          =      -0.5588139447355691 [Eh]
	 Opposite-Spin Energy      =      -1.7446567654669138 [Eh]
	 Correlation Energy        =      -2.3034707102024830 [Eh]
	 Total Energy              =    -516.8985156631786140 [Eh]

	 ================> DF-SCS-MP2 Energies <==================
	-----------------------------------------------------------
	 SCS Same-Spin Scale       =       0.3333333333333333 [-]
	 SCS Opposite-Spin Scale   =       1.2000000000000000 [-]
	 SCS Same-Spin Energy      =      -0.1862713149118564 [Eh]
	 SCS Opposite-Spin Energy  =      -2.0935881185602967 [Eh]
	 SCS Correlation Energy    =      -2.2798594334721529 [Eh]
	 SCS Total Energy          =    -516.8749043864481791 [Eh]
	-----------------------------------------------------------

  Dipole Moment: [D]
     X:     0.9110      Y:    -3.5524      Z:     1.7898     Total:     4.0808

*** Psi4 exiting successfully. Buy a developer a beer!
