                               Psi4 1.3.2 release

  ==> Input File <==

--------------------------------------------------------------------------
#psi4
#
memory 32 gb

molecule  {
0 1
  O        0.9417500     2.5148810    -0.6596880
  N        2.0463840     0.6978680     0.1749460
  C        0.7564320    -1.5550710    -0.8733250
  C        1.8157710    -1.7711630     0.2163790
  C       -0.5925623    -0.7835578    -0.3482280
  C        2.0266990    -0.4897580     1.0228720
  C       -0.3650830     0.5850230    -0.0943830
  C        0.9119250     1.3593610    -0.2260870
  C       -1.6913630    -1.4231620    -0.2398970
  C       -1.5035900     1.3035830     0.2885800
  C       -2.8212120    -0.7143780     0.1714760
  C       -2.7281430     0.6547360     0.4326570
  H        0.4383490    -2.5216720    -1.2799980
  H        1.2165960    -1.0011160    -1.6986390
  H        1.5065410    -2.5704870     0.9013410
  H        2.7543720    -2.0878480    -0.2534440
  H        1.2290340    -0.3883270     1.7666860
  H        2.9729880    -0.5259550     1.5704730
  H        2.8793190     1.2773810     0.1528780
  H       -1.7755450    -2.4842720    -0.4701710
  H       -1.4080790     2.3720960     0.4641940
  H       -3.7741480    -1.2278540     0.2772780
  H       -3.6082280     1.2145190     0.7397060
units angstrom
no_reorient  #important for SAPT in psi4, default
symmetry c1  #important for SAPT in psi4, default
}

set PROPERTIES_ORIGIN ["COM"]
properties('MP2/aug-cc-pvtz', properties = ['dipole'])
--------------------------------------------------------------------------

    Molecular point group: c1
  Charge       = 0
  Multiplicity = 1
  Basis Set: AUG-CC-PVTZ
    Blend: AUG-CC-PVTZ
  Basis Set: (AUG-CC-PVTZ AUX)
    Blend: AUG-CC-PVTZ-JKFIT

    Orbital Energies [Eh]
    ---------------------

    Doubly Occupied:

       1A    -20.517067     2A    -15.582553     3A    -11.355542
       4A    -11.274674     5A    -11.250282     6A    -11.248585
       7A    -11.247121     8A    -11.245927     9A    -11.240546
      10A    -11.239052    11A    -11.235434    12A    -11.227206
      13A     -1.370497    14A     -1.233996    15A     -1.177086
      16A     -1.070536    17A     -1.040890    18A     -1.027345
      19A     -0.933858    20A     -0.884115    21A     -0.834147
      22A     -0.797899    23A     -0.784719    24A     -0.699298
      25A     -0.682993    26A     -0.672665    27A     -0.651393
      28A     -0.629930    29A     -0.611624    30A     -0.601326
      31A     -0.585127    32A     -0.576407    33A     -0.552142
      34A     -0.534762    35A     -0.522616    36A     -0.513161
      37A     -0.495977    38A     -0.490041    39A     -0.446184
      40A     -0.427603    41A     -0.388994    42A     -0.355918
      43A     -0.338567

  @DF-RHF Final Energy:  -514.57190214530920

   => Energetics <=

    Nuclear Repulsion Energy =            685.2113580521125868
    One-Electron Energy =               -2058.3749113225376277
    Two-Electron Energy =                 858.5916511251157317
    Total Energy =                       -514.5719021453091955
  Basis Set: (AUG-CC-PVTZ AUX)
    Blend: AUG-CC-PVTZ-RI
    Molecular point group: c1

    Geometry (in Angstrom), charge = 0, multiplicity = 1:

       Center              X                  Y                   Z               Mass
    ------------   -----------------  -----------------  -----------------  -----------------
         O            0.967354115337     2.465346186262    -0.649047240699    15.994914619570
         N            2.071988115337     0.648333186262     0.185586759301    14.003074004430
         C            0.782036115337    -1.604605813738    -0.862684240699    12.000000000000
         C            1.841375115337    -1.820697813738     0.227019759301    12.000000000000
         C           -0.566958184663    -0.833092613738    -0.337587240699    12.000000000000
         C            2.052303115337    -0.539292813738     1.033512759301    12.000000000000
         C           -0.339478884663     0.535488186262    -0.083742240699    12.000000000000
         C            0.937529115337     1.309826186262    -0.215446240699    12.000000000000
         C           -1.665758884663    -1.472696813738    -0.229256240699    12.000000000000
         C           -1.477985884663     1.254048186262     0.299220759301    12.000000000000
         C           -2.795607884663    -0.763912813738     0.182116759301    12.000000000000
         C           -2.702538884663     0.605201186262     0.443297759301    12.000000000000
         H            0.463953115337    -2.571206813738    -1.269357240699     1.007825032230
         H            1.242200115337    -1.050650813738    -1.687998240699     1.007825032230
         H            1.532145115337    -2.620021813738     0.911981759301     1.007825032230
         H            2.779976115337    -2.137382813738    -0.242803240699     1.007825032230
         H            1.254638115337    -0.437861813738     1.777326759301     1.007825032230
         H            2.998592115337    -0.575489813738     1.581113759301     1.007825032230
         H            2.904923115337     1.227846186262     0.163518759301     1.007825032230
         H           -1.749940884663    -2.533806813738    -0.459530240699     1.007825032230
         H           -1.382474884663     2.322561186262     0.474834759301     1.007825032230
         H           -3.748543884663    -1.277388813738     0.287918759301     1.007825032230
         H           -3.582623884663     1.164984186262     0.750346759301     1.007825032230

  Basis Set: AUG-CC-PVTZ
    Blend: AUG-CC-PVTZ
  Basis Set: (AUG-CC-PVTZ AUX)
    Blend: AUG-CC-PVTZ-JKFIT
	 Reference Energy          =    -514.5719021453091955 [Eh]
	 Singles Energy            =      -0.0000000000000000 [Eh]
	 Same-Spin Energy          =      -0.5578542514671705 [Eh]
	 Opposite-Spin Energy      =      -1.7440241585854879 [Eh]
	 Correlation Energy        =      -2.3018784100526584 [Eh]
	 Total Energy              =    -516.8737805553618045 [Eh]

	 ================> DF-SCS-MP2 Energies <==================
	-----------------------------------------------------------
	 SCS Same-Spin Scale       =       0.3333333333333333 [-]
	 SCS Opposite-Spin Scale   =       1.2000000000000000 [-]
	 SCS Same-Spin Energy      =      -0.1859514171557235 [Eh]
	 SCS Opposite-Spin Energy  =      -2.0928289903025852 [Eh]
	 SCS Correlation Energy    =      -2.2787804074583087 [Eh]
	 SCS Total Energy          =    -516.8506825527674664 [Eh]
	-----------------------------------------------------------

  Dipole Moment: [D]
     X:     0.5365      Y:    -3.5207      Z:     1.8063     Total:     3.9933

*** Psi4 exiting successfully. Buy a developer a beer!
