                               Psi4 1.3.2 release

  ==> Input File <==

--------------------------------------------------------------------------
#psi4
#
memory 32 gb

molecule  {
0 1
  O        0.9417500     2.5148810    -0.6596880
  N        2.0463840     0.6978680     0.1749460
  C        0.7564320    -1.5550710    -0.8733250
  C        1.8157710    -1.7711630     0.2163790
  C       -0.3845906    -0.7148456    -0.3563571
  C        2.0266990    -0.4897580     1.0228720
  C       -0.3650830     0.5850230    -0.0943830
  C        0.9119250     1.3593610    -0.2260870
  C       -1.6913630    -1.4231620    -0.2398970
  C       -1.5035900     1.3035830     0.2885800
  C       -2.8212120    -0.7143780     0.1714760
  C       -2.7281430     0.6547360     0.4326570
  H        0.4383490    -2.5216720    -1.2799980
  H        1.2165960    -1.0011160    -1.6986390
  H        1.5065410    -2.5704870     0.9013410
  H        2.7543720    -2.0878480    -0.2534440
  H        1.2290340    -0.3883270     1.7666860
  H        2.9729880    -0.5259550     1.5704730
  H        2.8793190     1.2773810     0.1528780
  H       -1.7755450    -2.4842720    -0.4701710
  H       -1.4080790     2.3720960     0.4641940
  H       -3.7741480    -1.2278540     0.2772780
  H       -3.6082280     1.2145190     0.7397060
units angstrom
no_reorient  #important for SAPT in psi4, default
symmetry c1  #important for SAPT in psi4, default
}

set PROPERTIES_ORIGIN ["COM"]
properties('MP2/aug-cc-pvtz', properties = ['dipole'])
--------------------------------------------------------------------------

    Molecular point group: c1
  Charge       = 0
  Multiplicity = 1
  Basis Set: AUG-CC-PVTZ
    Blend: AUG-CC-PVTZ
  Basis Set: (AUG-CC-PVTZ AUX)
    Blend: AUG-CC-PVTZ-JKFIT

    Orbital Energies [Eh]
    ---------------------

    Doubly Occupied:

       1A    -20.515196     2A    -15.583261     3A    -11.350248
       4A    -11.276140     5A    -11.257974     6A    -11.249722
       7A    -11.246958     8A    -11.244904     9A    -11.240655
      10A    -11.239512    11A    -11.239158    12A    -11.237544
      13A     -1.369386    14A     -1.236293    15A     -1.165550
      16A     -1.083044    17A     -1.044773    18A     -1.011865
      19A     -0.938848    20A     -0.876782    21A     -0.845781
      22A     -0.803910    23A     -0.772527    24A     -0.694763
      25A     -0.687442    26A     -0.671209    27A     -0.652751
      28A     -0.629421    29A     -0.613233    30A     -0.599099
      31A     -0.589122    32A     -0.574281    33A     -0.557891
      34A     -0.536196    35A     -0.517841    36A     -0.508606
      37A     -0.500544    38A     -0.489604    39A     -0.471921
      40A     -0.419891    41A     -0.389992    42A     -0.353548
      43A     -0.327957

  @DF-RHF Final Energy:  -514.58414130506037

   => Energetics <=

    Nuclear Repulsion Energy =            686.1381449492508864
    One-Electron Energy =               -2060.2138854502723007
    Two-Electron Energy =                 859.4915991959609300
    Total Energy =                       -514.5841413050603705
  Basis Set: (AUG-CC-PVTZ AUX)
    Blend: AUG-CC-PVTZ-RI
    Molecular point group: c1

    Geometry (in Angstrom), charge = 0, multiplicity = 1:

       Center              X                  Y                   Z               Mass
    ------------   -----------------  -----------------  -----------------  -----------------
         O            0.951861208476     2.460227452729    -0.648441661242    15.994914619570
         N            2.056495208476     0.643214452729     0.186192338758    14.003074004430
         C            0.766543208476    -1.609724547271    -0.862078661242    12.000000000000
         C            1.825882208476    -1.825816547271     0.227625338758    12.000000000000
         C           -0.374479391524    -0.769499147271    -0.345110761242    12.000000000000
         C            2.036810208476    -0.544411547271     1.034118338758    12.000000000000
         C           -0.354971791524     0.530369452729    -0.083136661242    12.000000000000
         C            0.922036208476     1.304707452729    -0.214840661242    12.000000000000
         C           -1.681251791524    -1.477815547271    -0.228650661242    12.000000000000
         C           -1.493478791524     1.248929452729     0.299826338758    12.000000000000
         C           -2.811100791524    -0.769031547271     0.182722338758    12.000000000000
         C           -2.718031791524     0.600082452729     0.443903338758    12.000000000000
         H            0.448460208476    -2.576325547271    -1.268751661242     1.007825032230
         H            1.226707208476    -1.055769547271    -1.687392661242     1.007825032230
         H            1.516652208476    -2.625140547271     0.912587338758     1.007825032230
         H            2.764483208476    -2.142501547271    -0.242197661242     1.007825032230
         H            1.239145208476    -0.442980547271     1.777932338758     1.007825032230
         H            2.983099208476    -0.580608547271     1.581719338758     1.007825032230
         H            2.889430208476     1.222727452729     0.164124338758     1.007825032230
         H           -1.765433791524    -2.538925547271    -0.458924661242     1.007825032230
         H           -1.397967791524     2.317442452729     0.475440338758     1.007825032230
         H           -3.764036791524    -1.282507547271     0.288524338758     1.007825032230
         H           -3.598116791524     1.159865452729     0.750952338758     1.007825032230

  Basis Set: AUG-CC-PVTZ
    Blend: AUG-CC-PVTZ
  Basis Set: (AUG-CC-PVTZ AUX)
    Blend: AUG-CC-PVTZ-JKFIT
	 Reference Energy          =    -514.5841413050603705 [Eh]
	 Singles Energy            =      -0.0000000000000000 [Eh]
	 Same-Spin Energy          =      -0.5584492849580187 [Eh]
	 Opposite-Spin Energy      =      -1.7450644833154871 [Eh]
	 Correlation Energy        =      -2.3035137682735058 [Eh]
	 Total Energy              =    -516.8876550733339172 [Eh]

	 ================> DF-SCS-MP2 Energies <==================
	-----------------------------------------------------------
	 SCS Same-Spin Scale       =       0.3333333333333333 [-]
	 SCS Opposite-Spin Scale   =       1.2000000000000000 [-]
	 SCS Same-Spin Energy      =      -0.1861497616526729 [Eh]
	 SCS Opposite-Spin Energy  =      -2.0940773799785846 [Eh]
	 SCS Correlation Energy    =      -2.2802271416312574 [Eh]
	 SCS Total Energy          =    -516.8643684466916284 [Eh]
	-----------------------------------------------------------

  Dipole Moment: [D]
     X:     0.6416      Y:    -3.6492      Z:     1.7457     Total:     4.0959

*** Psi4 exiting successfully. Buy a developer a beer!
