                               Psi4 1.3.2 release

  ==> Input File <==

--------------------------------------------------------------------------
#psi4
#
memory 32 gb

molecule  {
0 1
  O        0.9417500     2.5148810    -0.6596880
  N        2.0463840     0.6978680     0.1749460
  C        0.7564320    -1.5550710    -0.8733250
  C        1.8157710    -1.7711630     0.2163790
  C       -0.4497480    -0.7926040    -0.3845090
  C        2.0266990    -0.4897580     1.0228720
  C       -0.3650830     0.5850230    -0.0943830
  C        0.9119250     1.3593610    -0.2260870
  C       -1.6913630    -1.4231620    -0.2398970
  C       -1.5849288     1.3549194     0.3159402
  C       -2.8212120    -0.7143780     0.1714760
  C       -2.7281430     0.6547360     0.4326570
  H        0.4383490    -2.5216720    -1.2799980
  H        1.2165960    -1.0011160    -1.6986390
  H        1.5065410    -2.5704870     0.9013410
  H        2.7543720    -2.0878480    -0.2534440
  H        1.2290340    -0.3883270     1.7666860
  H        2.9729880    -0.5259550     1.5704730
  H        2.8793190     1.2773810     0.1528780
  H       -1.7755450    -2.4842720    -0.4701710
  H       -1.4080790     2.3720960     0.4641940
  H       -3.7741480    -1.2278540     0.2772780
  H       -3.6082280     1.2145190     0.7397060
units angstrom
no_reorient  #important for SAPT in psi4, default
symmetry c1  #important for SAPT in psi4, default
}

set PROPERTIES_ORIGIN ["COM"]
properties('MP2/aug-cc-pvtz', properties = ['dipole'])
--------------------------------------------------------------------------

    Molecular point group: c1
  Charge       = 0
  Multiplicity = 1
  Basis Set: AUG-CC-PVTZ
    Blend: AUG-CC-PVTZ
  Basis Set: (AUG-CC-PVTZ AUX)
    Blend: AUG-CC-PVTZ-JKFIT

    Orbital Energies [Eh]
    ---------------------

    Doubly Occupied:

       1A    -20.514756     2A    -15.582368     3A    -11.351210
       4A    -11.275252     5A    -11.258854     6A    -11.254366
       7A    -11.250405     8A    -11.246820     9A    -11.243630
      10A    -11.239569    11A    -11.237959    12A    -11.235619
      13A     -1.368477    14A     -1.234267    15A     -1.160546
      16A     -1.084205    17A     -1.031229    18A     -1.022325
      19A     -0.938002    20A     -0.885441    21A     -0.840462
      22A     -0.797751    23A     -0.773461    24A     -0.695375
      25A     -0.684691    26A     -0.678542    27A     -0.651945
      28A     -0.630802    29A     -0.616927    30A     -0.594439
      31A     -0.585210    32A     -0.577889    33A     -0.555966
      34A     -0.534231    35A     -0.521169    36A     -0.515081
      37A     -0.490484    38A     -0.489340    39A     -0.471211
      40A     -0.422491    41A     -0.389288    42A     -0.345802
      43A     -0.332804

  @DF-RHF Final Energy:  -514.58482018648806

   => Energetics <=

    Nuclear Repulsion Energy =            683.4916708654843660
    One-Electron Energy =               -2054.9316526799921121
    Two-Electron Energy =                 856.8551616280196868
    Total Energy =                       -514.5848201864880593
  Basis Set: (AUG-CC-PVTZ AUX)
    Blend: AUG-CC-PVTZ-RI
    Molecular point group: c1

    Geometry (in Angstrom), charge = 0, multiplicity = 1:

       Center              X                  Y                   Z               Mass
    ------------   -----------------  -----------------  -----------------  -----------------
         O            0.962774481686     2.462195766615    -0.648382683341    15.994914619570
         N            2.067408481686     0.645182766615     0.186251316659    14.003074004430
         C            0.777456481686    -1.607756233385    -0.862019683341    12.000000000000
         C            1.836795481686    -1.823848233385     0.227684316659    12.000000000000
         C           -0.428723518314    -0.845289233385    -0.373203683341    12.000000000000
         C            2.047723481686    -0.542443233385     1.034177316659    12.000000000000
         C           -0.344058518314     0.532337766615    -0.083077683341    12.000000000000
         C            0.932949481686     1.306675766615    -0.214781683341    12.000000000000
         C           -1.670338518314    -1.475847233385    -0.228591683341    12.000000000000
         C           -1.563904318314     1.302234166615     0.327245516659    12.000000000000
         C           -2.800187518314    -0.767063233385     0.182781316659    12.000000000000
         C           -2.707118518314     0.602050766615     0.443962316659    12.000000000000
         H            0.459373481686    -2.574357233385    -1.268692683341     1.007825032230
         H            1.237620481686    -1.053801233385    -1.687333683341     1.007825032230
         H            1.527565481686    -2.623172233385     0.912646316659     1.007825032230
         H            2.775396481686    -2.140533233385    -0.242138683341     1.007825032230
         H            1.250058481686    -0.441012233385     1.777991316659     1.007825032230
         H            2.994012481686    -0.578640233385     1.581778316659     1.007825032230
         H            2.900343481686     1.224695766615     0.164183316659     1.007825032230
         H           -1.754520518314    -2.536957233385    -0.458865683341     1.007825032230
         H           -1.387054518314     2.319410766615     0.475499316659     1.007825032230
         H           -3.753123518314    -1.280539233385     0.288583316659     1.007825032230
         H           -3.587203518314     1.161833766615     0.751011316659     1.007825032230

  Basis Set: AUG-CC-PVTZ
    Blend: AUG-CC-PVTZ
  Basis Set: (AUG-CC-PVTZ AUX)
    Blend: AUG-CC-PVTZ-JKFIT
	 Reference Energy          =    -514.5848201864880593 [Eh]
	 Singles Energy            =      -0.0000000000000000 [Eh]
	 Same-Spin Energy          =      -0.5586363746116331 [Eh]
	 Opposite-Spin Energy      =      -1.7451482110543333 [Eh]
	 Correlation Energy        =      -2.3037845856659662 [Eh]
	 Total Energy              =    -516.8886047721540535 [Eh]

	 ================> DF-SCS-MP2 Energies <==================
	-----------------------------------------------------------
	 SCS Same-Spin Scale       =       0.3333333333333333 [-]
	 SCS Opposite-Spin Scale   =       1.2000000000000000 [-]
	 SCS Same-Spin Energy      =      -0.1862121248705443 [Eh]
	 SCS Opposite-Spin Energy  =      -2.0941778532652000 [Eh]
	 SCS Correlation Energy    =      -2.2803899781357444 [Eh]
	 SCS Total Energy          =    -516.8652101646238179 [Eh]
	-----------------------------------------------------------

  Dipole Moment: [D]
     X:     0.6336      Y:    -3.6349      Z:     1.7653     Total:     4.0902

*** Psi4 exiting successfully. Buy a developer a beer!
