                               Psi4 1.3.2 release

  ==> Input File <==

--------------------------------------------------------------------------
#psi4
#
memory 32 gb

molecule  {
0 1
  O        0.8989872     2.5132794    -0.6647563
  N        2.0463840     0.6978680     0.1749460
  C        0.7564320    -1.5550710    -0.8733250
  C        1.8157710    -1.7711630     0.2163790
  C       -0.4497480    -0.7926040    -0.3845090
  C        2.0266990    -0.4897580     1.0228720
  C       -0.3650830     0.5850230    -0.0943830
  C        0.9119250     1.3593610    -0.2260870
  C       -1.6913630    -1.4231620    -0.2398970
  C       -1.5035900     1.3035830     0.2885800
  C       -2.8212120    -0.7143780     0.1714760
  C       -2.7281430     0.6547360     0.4326570
  H        0.4383490    -2.5216720    -1.2799980
  H        1.2165960    -1.0011160    -1.6986390
  H        1.5065410    -2.5704870     0.9013410
  H        2.7543720    -2.0878480    -0.2534440
  H        1.2290340    -0.3883270     1.7666860
  H        2.9729880    -0.5259550     1.5704730
  H        2.8793190     1.2773810     0.1528780
  H       -1.7755450    -2.4842720    -0.4701710
  H       -1.4080790     2.3720960     0.4641940
  H       -3.7741480    -1.2278540     0.2772780
  H       -3.6082280     1.2145190     0.7397060
units angstrom
no_reorient  #important for SAPT in psi4, default
symmetry c1  #important for SAPT in psi4, default
}

set PROPERTIES_ORIGIN ["COM"]
properties('MP2/aug-cc-pvtz', properties = ['dipole'])
--------------------------------------------------------------------------

    Molecular point group: c1
  Charge       = 0
  Multiplicity = 1
  Basis Set: AUG-CC-PVTZ
    Blend: AUG-CC-PVTZ
  Basis Set: (AUG-CC-PVTZ AUX)
    Blend: AUG-CC-PVTZ-JKFIT

    Orbital Energies [Eh]
    ---------------------

    Doubly Occupied:

       1A    -20.515877     2A    -15.585076     3A    -11.351834
       4A    -11.276968     5A    -11.257002     6A    -11.247692
       7A    -11.245591     8A    -11.244109     9A    -11.240839
      10A    -11.239207    11A    -11.238868    12A    -11.238242
      13A     -1.369077    14A     -1.237178    15A     -1.163221
      16A     -1.082209    17A     -1.035606    18A     -1.020248
      19A     -0.938606    20A     -0.881053    21A     -0.840963
      22A     -0.797841    23A     -0.776416    24A     -0.696990
      25A     -0.686148    26A     -0.671723    27A     -0.652601
      28A     -0.622785    29A     -0.616611    30A     -0.599322
      31A     -0.587219    32A     -0.576284    33A     -0.556931
      34A     -0.535880    35A     -0.518582    36A     -0.509122
      37A     -0.492681    38A     -0.489540    39A     -0.478051
      40A     -0.423304    41A     -0.391397    42A     -0.342309
      43A     -0.335214

  @DF-RHF Final Energy:  -514.59620425505136

   => Energetics <=

    Nuclear Repulsion Energy =            685.3277600443351503
    One-Electron Energy =               -2058.6350985423387101
    Two-Electron Energy =                 858.7111342429520846
    Total Energy =                       -514.5962042550513615
  Basis Set: (AUG-CC-PVTZ AUX)
    Blend: AUG-CC-PVTZ-RI
    Molecular point group: c1

    Geometry (in Angstrom), charge = 0, multiplicity = 1:

       Center              X                  Y                   Z               Mass
    ------------   -----------------  -----------------  -----------------  -----------------
         O            0.918198477711     2.464577516919    -0.650909518868    15.994914619570
         N            2.065595277711     0.649166116919     0.188792781132    14.003074004430
         C            0.775643277711    -1.603772883081    -0.859478218868    12.000000000000
         C            1.834982277711    -1.819864883081     0.230225781132    12.000000000000
         C           -0.430536722289    -0.841305883081    -0.370662218868    12.000000000000
         C            2.045910277711    -0.538459883081     1.036718781132    12.000000000000
         C           -0.345871722289     0.536321116919    -0.080536218868    12.000000000000
         C            0.931136277711     1.310659116919    -0.212240218868    12.000000000000
         C           -1.672151722289    -1.471863883081    -0.226050218868    12.000000000000
         C           -1.484378722289     1.254881116919     0.302426781132    12.000000000000
         C           -2.802000722289    -0.763079883081     0.185322781132    12.000000000000
         C           -2.708931722289     0.606034116919     0.446503781132    12.000000000000
         H            0.457560277711    -2.570373883081    -1.266151218868     1.007825032230
         H            1.235807277711    -1.049817883081    -1.684792218868     1.007825032230
         H            1.525752277711    -2.619188883081     0.915187781132     1.007825032230
         H            2.773583277711    -2.136549883081    -0.239597218868     1.007825032230
         H            1.248245277711    -0.437028883081     1.780532781132     1.007825032230
         H            2.992199277711    -0.574656883081     1.584319781132     1.007825032230
         H            2.898530277711     1.228679116919     0.166724781132     1.007825032230
         H           -1.756333722289    -2.532973883081    -0.456324218868     1.007825032230
         H           -1.388867722289     2.323394116919     0.478040781132     1.007825032230
         H           -3.754936722289    -1.276555883081     0.291124781132     1.007825032230
         H           -3.589016722289     1.165817116919     0.753552781132     1.007825032230

  Basis Set: AUG-CC-PVTZ
    Blend: AUG-CC-PVTZ
  Basis Set: (AUG-CC-PVTZ AUX)
    Blend: AUG-CC-PVTZ-JKFIT
	 Reference Energy          =    -514.5962042550513615 [Eh]
	 Singles Energy            =      -0.0000000000000000 [Eh]
	 Same-Spin Energy          =      -0.5587148413534904 [Eh]
	 Opposite-Spin Energy      =      -1.7444907173325586 [Eh]
	 Correlation Energy        =      -2.3032055586860487 [Eh]
	 Total Energy              =    -516.8994098137374067 [Eh]

	 ================> DF-SCS-MP2 Energies <==================
	-----------------------------------------------------------
	 SCS Same-Spin Scale       =       0.3333333333333333 [-]
	 SCS Opposite-Spin Scale   =       1.2000000000000000 [-]
	 SCS Same-Spin Energy      =      -0.1862382804511634 [Eh]
	 SCS Opposite-Spin Energy  =      -2.0933888607990703 [Eh]
	 SCS Correlation Energy    =      -2.2796271412502338 [Eh]
	 SCS Total Energy          =    -516.8758313963015780 [Eh]
	-----------------------------------------------------------

  Dipole Moment: [D]
     X:     0.7701      Y:    -3.5864      Z:     1.7807     Total:     4.0775

*** Psi4 exiting successfully. Buy a developer a beer!
