                               Psi4 1.3.2 release

  ==> Input File <==

--------------------------------------------------------------------------
#psi4
#
memory 32 gb

molecule  {
0 1
  O        0.9417500     2.5148810    -0.6596880
  N        2.0463840     0.6978680     0.1749460
  C        0.7564320    -1.5550710    -0.8733250
  C        1.8157710    -1.7711630     0.2163790
  C       -0.4497480    -0.7926040    -0.3845090
  C        1.9791966    -0.4991647     1.0070638
  C       -0.3650830     0.5850230    -0.0943830
  C        0.9119250     1.3593610    -0.2260870
  C       -1.6913630    -1.4231620    -0.2398970
  C       -1.5035900     1.3035830     0.2885800
  C       -2.8212120    -0.7143780     0.1714760
  C       -2.7281430     0.6547360     0.4326570
  H        0.4383490    -2.5216720    -1.2799980
  H        1.2165960    -1.0011160    -1.6986390
  H        1.5065410    -2.5704870     0.9013410
  H        2.7543720    -2.0878480    -0.2534440
  H        1.2290340    -0.3883270     1.7666860
  H        2.9729880    -0.5259550     1.5704730
  H        2.8793190     1.2773810     0.1528780
  H       -1.7755450    -2.4842720    -0.4701710
  H       -1.4080790     2.3720960     0.4641940
  H       -3.7741480    -1.2278540     0.2772780
  H       -3.6082280     1.2145190     0.7397060
units angstrom
no_reorient  #important for SAPT in psi4, default
symmetry c1  #important for SAPT in psi4, default
}

set PROPERTIES_ORIGIN ["COM"]
properties('MP2/aug-cc-pvtz', properties = ['dipole'])
--------------------------------------------------------------------------

    Molecular point group: c1
  Charge       = 0
  Multiplicity = 1
  Basis Set: AUG-CC-PVTZ
    Blend: AUG-CC-PVTZ
  Basis Set: (AUG-CC-PVTZ AUX)
    Blend: AUG-CC-PVTZ-JKFIT

    Orbital Energies [Eh]
    ---------------------

    Doubly Occupied:

       1A    -20.514772     2A    -15.583054     3A    -11.350546
       4A    -11.276987     5A    -11.258423     6A    -11.248948
       7A    -11.247371     8A    -11.245683     9A    -11.242012
      10A    -11.240048    11A    -11.239057    12A    -11.237632
      13A     -1.368919    14A     -1.235842    15A     -1.164386
      16A     -1.084624    17A     -1.036920    18A     -1.021901
      19A     -0.937505    20A     -0.880824    21A     -0.842168
      22A     -0.798735    23A     -0.776993    24A     -0.696980
      25A     -0.687456    26A     -0.672623    27A     -0.649838
      28A     -0.625184    29A     -0.615381    30A     -0.601343
      31A     -0.586425    32A     -0.578062    33A     -0.556775
      34A     -0.534077    35A     -0.520248    36A     -0.509985
      37A     -0.491001    38A     -0.489446    39A     -0.477303
      40A     -0.422494    41A     -0.391643    42A     -0.343949
      43A     -0.336389

  @DF-RHF Final Energy:  -514.59314949343991

   => Energetics <=

    Nuclear Repulsion Energy =            685.8996293430766400
    One-Electron Energy =               -2059.7456545056097639
    Two-Electron Energy =                 859.2528756690932141
    Total Energy =                       -514.5931494934399097
  Basis Set: (AUG-CC-PVTZ AUX)
    Blend: AUG-CC-PVTZ-RI
    Molecular point group: c1

    Geometry (in Angstrom), charge = 0, multiplicity = 1:

       Center              X                  Y                   Z               Mass
    ------------   -----------------  -----------------  -----------------  -----------------
         O            0.960253830108     2.466720839934    -0.645166841952    15.994914619570
         N            2.064887830108     0.649707839934     0.189467158048    14.003074004430
         C            0.774935830108    -1.603231160066    -0.858803841952    12.000000000000
         C            1.834274830108    -1.819323160066     0.230900158048    12.000000000000
         C           -0.431244169892    -0.840764160066    -0.369987841952    12.000000000000
         C            1.997700430108    -0.547324860066     1.021584958048    12.000000000000
         C           -0.346579169892     0.536862839934    -0.079861841952    12.000000000000
         C            0.930428830108     1.311200839934    -0.211565841952    12.000000000000
         C           -1.672859169892    -1.471322160066    -0.225375841952    12.000000000000
         C           -1.485086169892     1.255422839934     0.303101158048    12.000000000000
         C           -2.802708169892    -0.762538160066     0.185997158048    12.000000000000
         C           -2.709639169892     0.606575839934     0.447178158048    12.000000000000
         H            0.456852830108    -2.569832160066    -1.265476841952     1.007825032230
         H            1.235099830108    -1.049276160066    -1.684117841952     1.007825032230
         H            1.525044830108    -2.618647160066     0.915862158048     1.007825032230
         H            2.772875830108    -2.136008160066    -0.238922841952     1.007825032230
         H            1.247537830108    -0.436487160066     1.781207158048     1.007825032230
         H            2.991491830108    -0.574115160066     1.584994158048     1.007825032230
         H            2.897822830108     1.229220839934     0.167399158048     1.007825032230
         H           -1.757041169892    -2.532432160066    -0.455649841952     1.007825032230
         H           -1.389575169892     2.323935839934     0.478715158048     1.007825032230
         H           -3.755644169892    -1.276014160066     0.291799158048     1.007825032230
         H           -3.589724169892     1.166358839934     0.754227158048     1.007825032230

  Basis Set: AUG-CC-PVTZ
    Blend: AUG-CC-PVTZ
  Basis Set: (AUG-CC-PVTZ AUX)
    Blend: AUG-CC-PVTZ-JKFIT
	 Reference Energy          =    -514.5931494934399097 [Eh]
	 Singles Energy            =      -0.0000000000000000 [Eh]
	 Same-Spin Energy          =      -0.5589987476021036 [Eh]
	 Opposite-Spin Energy      =      -1.7448807327246505 [Eh]
	 Correlation Energy        =      -2.3038794803267542 [Eh]
	 Total Energy              =    -516.8970289737666235 [Eh]

	 ================> DF-SCS-MP2 Energies <==================
	-----------------------------------------------------------
	 SCS Same-Spin Scale       =       0.3333333333333333 [-]
	 SCS Opposite-Spin Scale   =       1.2000000000000000 [-]
	 SCS Same-Spin Energy      =      -0.1863329158673678 [Eh]
	 SCS Opposite-Spin Energy  =      -2.0938568792695804 [Eh]
	 SCS Correlation Energy    =      -2.2801897951369483 [Eh]
	 SCS Total Energy          =    -516.8733392885768581 [Eh]
	-----------------------------------------------------------

  Dipole Moment: [D]
     X:     0.5933      Y:    -3.6380      Z:     1.7562     Total:     4.0831

*** Psi4 exiting successfully. Buy a developer a beer!
