                               Psi4 1.3.2 release

  ==> Input File <==

--------------------------------------------------------------------------
#psi4
#
memory 32 gb

molecule  {
0 1
  O        0.9417500     2.5148810    -0.6596880
  N        2.0463840     0.6978680     0.1749460
  C        0.7564320    -1.5550710    -0.8733250
  C        1.8157710    -1.7711630     0.2163790
  C       -0.4497480    -0.7926040    -0.3845090
  C        2.0266990    -0.4897580     1.0228720
  C       -0.3650830     0.5850230    -0.0943830
  C        0.8585693     1.4450006    -0.1983457
  C       -1.6913630    -1.4231620    -0.2398970
  C       -1.5035900     1.3035830     0.2885800
  C       -2.8212120    -0.7143780     0.1714760
  C       -2.7281430     0.6547360     0.4326570
  H        0.4383490    -2.5216720    -1.2799980
  H        1.2165960    -1.0011160    -1.6986390
  H        1.5065410    -2.5704870     0.9013410
  H        2.7543720    -2.0878480    -0.2534440
  H        1.2290340    -0.3883270     1.7666860
  H        2.9729880    -0.5259550     1.5704730
  H        2.8793190     1.2773810     0.1528780
  H       -1.7755450    -2.4842720    -0.4701710
  H       -1.4080790     2.3720960     0.4641940
  H       -3.7741480    -1.2278540     0.2772780
  H       -3.6082280     1.2145190     0.7397060
units angstrom
no_reorient  #important for SAPT in psi4, default
symmetry c1  #important for SAPT in psi4, default
}

set PROPERTIES_ORIGIN ["COM"]
properties('MP2/aug-cc-pvtz', properties = ['dipole'])
--------------------------------------------------------------------------

    Molecular point group: c1
  Charge       = 0
  Multiplicity = 1
  Basis Set: AUG-CC-PVTZ
    Blend: AUG-CC-PVTZ
  Basis Set: (AUG-CC-PVTZ AUX)
    Blend: AUG-CC-PVTZ-JKFIT

    Orbital Energies [Eh]
    ---------------------

    Doubly Occupied:

       1A    -20.533056     2A    -15.567001     3A    -11.352622
       4A    -11.267019     5A    -11.259802     6A    -11.249154
       7A    -11.247014     8A    -11.245489     9A    -11.242411
      10A    -11.239936    11A    -11.235661    12A    -11.232118
      13A     -1.417731    14A     -1.215087    15A     -1.162651
      16A     -1.076968    17A     -1.037888    18A     -1.016303
      19A     -0.929830    20A     -0.877514    21A     -0.837154
      22A     -0.796836    23A     -0.767396    24A     -0.691730
      25A     -0.684398    26A     -0.671021    27A     -0.654154
      28A     -0.630657    29A     -0.611067    30A     -0.602579
      31A     -0.593833    32A     -0.575226    33A     -0.564208
      34A     -0.533442    35A     -0.521579    36A     -0.515258
      37A     -0.491272    38A     -0.488220    39A     -0.476999
      40A     -0.426043    41A     -0.384289    42A     -0.345789
      43A     -0.335987

  @DF-RHF Final Energy:  -514.58844326121493

   => Energetics <=

    Nuclear Repulsion Energy =            684.7911492051269988
    One-Electron Energy =               -2057.5504026625235383
    Two-Electron Energy =                 858.1708101961814918
    Total Energy =                       -514.5884432612149340
  Basis Set: (AUG-CC-PVTZ AUX)
    Blend: AUG-CC-PVTZ-RI
    Molecular point group: c1

    Geometry (in Angstrom), charge = 0, multiplicity = 1:

       Center              X                  Y                   Z               Mass
    ------------   -----------------  -----------------  -----------------  -----------------
         O            0.960689873242     2.459640340648    -0.648411073486    15.994914619570
         N            2.065323873242     0.642627340648     0.186222926514    14.003074004430
         C            0.775371873242    -1.610311659352    -0.862048073486    12.000000000000
         C            1.834710873242    -1.826403659352     0.227655926514    12.000000000000
         C           -0.430808126758    -0.847844659352    -0.373232073486    12.000000000000
         C            2.045638873242    -0.544998659352     1.034148926514    12.000000000000
         C           -0.346143126758     0.529782340648    -0.083106073486    12.000000000000
         C            0.877509173242     1.389759940648    -0.187068773486    12.000000000000
         C           -1.672423126758    -1.478402659352    -0.228620073486    12.000000000000
         C           -1.484650126758     1.248342340648     0.299856926514    12.000000000000
         C           -2.802272126758    -0.769618659352     0.182752926514    12.000000000000
         C           -2.709203126758     0.599495340648     0.443933926514    12.000000000000
         H            0.457288873242    -2.576912659352    -1.268721073486     1.007825032230
         H            1.235535873242    -1.056356659352    -1.687362073486     1.007825032230
         H            1.525480873242    -2.625727659352     0.912617926514     1.007825032230
         H            2.773311873242    -2.143088659352    -0.242167073486     1.007825032230
         H            1.247973873242    -0.443567659352     1.777962926514     1.007825032230
         H            2.991927873242    -0.581195659352     1.581749926514     1.007825032230
         H            2.898258873242     1.222140340648     0.164154926514     1.007825032230
         H           -1.756605126758    -2.539512659352    -0.458894073486     1.007825032230
         H           -1.389139126758     2.316855340648     0.475470926514     1.007825032230
         H           -3.755208126758    -1.283094659352     0.288554926514     1.007825032230
         H           -3.589288126758     1.159278340648     0.750982926514     1.007825032230

  Basis Set: AUG-CC-PVTZ
    Blend: AUG-CC-PVTZ
  Basis Set: (AUG-CC-PVTZ AUX)
    Blend: AUG-CC-PVTZ-JKFIT
	 Reference Energy          =    -514.5884432612149340 [Eh]
	 Singles Energy            =      -0.0000000000000000 [Eh]
	 Same-Spin Energy          =      -0.5576657649535344 [Eh]
	 Opposite-Spin Energy      =      -1.7427521619295665 [Eh]
	 Correlation Energy        =      -2.3004179268831009 [Eh]
	 Total Energy              =    -516.8888611880980761 [Eh]

	 ================> DF-SCS-MP2 Energies <==================
	-----------------------------------------------------------
	 SCS Same-Spin Scale       =       0.3333333333333333 [-]
	 SCS Opposite-Spin Scale   =       1.2000000000000000 [-]
	 SCS Same-Spin Energy      =      -0.1858885883178448 [Eh]
	 SCS Opposite-Spin Energy  =      -2.0913025943154797 [Eh]
	 SCS Correlation Energy    =      -2.2771911826333247 [Eh]
	 SCS Total Energy          =    -516.8656344438483075 [Eh]
	-----------------------------------------------------------

  Dipole Moment: [D]
     X:     0.2262      Y:    -3.0085      Z:     1.5333     Total:     3.3843

*** Psi4 exiting successfully. Buy a developer a beer!
