                               Psi4 1.4a3.dev225

  ==> Input File <==

--------------------------------------------------------------------------
#psi4
#
memory 32 gb

molecule  {
0 1
  O        0.9417500     2.5148810    -0.6596880
  N        2.0463840     0.6978680     0.1749460
  C        0.7564320    -1.5550710    -0.8733250
  C        1.8157710    -1.7711630     0.2163790
  C       -0.4497480    -0.7926040    -0.3845090
  C        2.0266990    -0.4897580     1.0228720
  C       -0.3650830     0.5850230    -0.0943830
  C        0.9131329     1.4061601    -0.2436480
  C       -1.6913630    -1.4231620    -0.2398970
  C       -1.5035900     1.3035830     0.2885800
  C       -2.8212120    -0.7143780     0.1714760
  C       -2.7281430     0.6547360     0.4326570
  H        0.4383490    -2.5216720    -1.2799980
  H        1.2165960    -1.0011160    -1.6986390
  H        1.5065410    -2.5704870     0.9013410
  H        2.7543720    -2.0878480    -0.2534440
  H        1.2290340    -0.3883270     1.7666860
  H        2.9729880    -0.5259550     1.5704730
  H        2.8793190     1.2773810     0.1528780
  H       -1.7755450    -2.4842720    -0.4701710
  H       -1.4080790     2.3720960     0.4641940
  H       -3.7741480    -1.2278540     0.2772780
  H       -3.6082280     1.2145190     0.7397060
units angstrom
no_reorient  #important for SAPT in psi4, default
symmetry c1  #important for SAPT in psi4, default
}

set PROPERTIES_ORIGIN ["COM"]
properties('MP2/aug-cc-pvtz', properties = ['dipole'])
--------------------------------------------------------------------------

    Molecular point group: c1
  Charge       = 0
  Multiplicity = 1
  Basis Set: AUG-CC-PVTZ
    Blend: AUG-CC-PVTZ
  Basis Set: (AUG-CC-PVTZ AUX)
    Blend: AUG-CC-PVTZ-JKFIT

    Orbital Energies [Eh]
    ---------------------

    Doubly Occupied:

       1A    -20.525787     2A    -15.575845     3A    -11.351235
       4A    -11.273031     5A    -11.256463     6A    -11.246890
       7A    -11.245940     8A    -11.243603     9A    -11.240576
      10A    -11.238614    11A    -11.237133    12A    -11.235277
      13A     -1.403456    14A     -1.229288    15A     -1.161576
      16A     -1.079527    17A     -1.032881    18A     -1.018133
      19A     -0.934853    20A     -0.875375    21A     -0.838481
      22A     -0.796427    23A     -0.770939    24A     -0.692805
      25A     -0.685465    26A     -0.671846    27A     -0.653348
      28A     -0.627795    29A     -0.614261    30A     -0.599909
      31A     -0.593699    32A     -0.575618    33A     -0.562427
      34A     -0.534587    35A     -0.521097    36A     -0.512549
      37A     -0.491388    38A     -0.488861    39A     -0.478206
      40A     -0.424556    41A     -0.390059    42A     -0.343066
      43A     -0.334592

  @DF-RHF Final Energy:  -514.59625332302494

   => Energetics <=

    Nuclear Repulsion Energy =            684.8514238872834312
    One-Electron Energy =               -2057.6804276658540402
    Two-Electron Energy =                 858.2327504555455562
    Total Energy =                       -514.5962533230249392
  Basis Set: (AUG-CC-PVTZ AUX)
    Blend: AUG-CC-PVTZ-RI
    Molecular point group: c1

    Geometry (in Angstrom), charge = 0, multiplicity = 1:

       Center              X                  Y                   Z               Mass
    ------------   -----------------  -----------------  -----------------  -----------------
         O            0.956625143412     2.462533773980    -0.645036266652    15.994914619570
         N            2.061259143412     0.645520773980     0.189597733348    14.003074004430
         C            0.771307143412    -1.607418226020    -0.858673266652    12.000000000000
         C            1.830646143412    -1.823510226020     0.231030733348    12.000000000000
         C           -0.434872856588    -0.844951226020    -0.369857266652    12.000000000000
         C            2.041574143412    -0.542105226020     1.037523733348    12.000000000000
         C           -0.350207856588     0.532675773980    -0.079731266652    12.000000000000
         C            0.928008043412     1.353812873980    -0.228996266652    12.000000000000
         C           -1.676487856588    -1.475509226020    -0.225245266652    12.000000000000
         C           -1.488714856588     1.251235773980     0.303231733348    12.000000000000
         C           -2.806336856588    -0.766725226020     0.186127733348    12.000000000000
         C           -2.713267856588     0.602388773980     0.447308733348    12.000000000000
         H            0.453224143412    -2.574019226020    -1.265346266652     1.007825032230
         H            1.231471143412    -1.053463226020    -1.683987266652     1.007825032230
         H            1.521416143412    -2.622834226020     0.915992733348     1.007825032230
         H            2.769247143412    -2.140195226020    -0.238792266652     1.007825032230
         H            1.243909143412    -0.440674226020     1.781337733348     1.007825032230
         H            2.987863143412    -0.578302226020     1.585124733348     1.007825032230
         H            2.894194143412     1.225033773980     0.167529733348     1.007825032230
         H           -1.760669856588    -2.536619226020    -0.455519266652     1.007825032230
         H           -1.393203856588     2.319748773980     0.478845733348     1.007825032230
         H           -3.759272856588    -1.280201226020     0.291929733348     1.007825032230
         H           -3.593352856588     1.162171773980     0.754357733348     1.007825032230

  Basis Set: AUG-CC-PVTZ
    Blend: AUG-CC-PVTZ
  Basis Set: (AUG-CC-PVTZ AUX)
    Blend: AUG-CC-PVTZ-JKFIT
	 Reference Energy          =    -514.5962533230249392 [Eh]
	 Singles Energy            =      -0.0000000000000000 [Eh]
	 Same-Spin Energy          =      -0.5575746356252695 [Eh]
	 Opposite-Spin Energy      =      -1.7423294512622538 [Eh]
	 Correlation Energy        =      -2.2999040868875236 [Eh]
	 Total Energy              =    -516.8961574099124618 [Eh]

	 ================> DF-SCS-MP2 Energies <==================
	-----------------------------------------------------------
	 SCS Same-Spin Scale       =       0.3333333333333333 [-]
	 SCS Opposite-Spin Scale   =       1.2000000000000000 [-]
	 SCS Same-Spin Energy      =      -0.1858582118750898 [Eh]
	 SCS Opposite-Spin Energy  =      -2.0907953415147045 [Eh]
	 SCS Correlation Energy    =      -2.2766535533897945 [Eh]
	 SCS Total Energy          =    -516.8729068764147314 [Eh]
	-----------------------------------------------------------

  Dipole Moment: [D]
     X:     0.5993      Y:    -3.2386      Z:     1.6172     Total:     3.6692

*** Psi4 exiting successfully. Buy a developer a beer!
