                               Psi4 1.3.2 release

  ==> Input File <==

--------------------------------------------------------------------------
#psi4
#
memory 32 gb

molecule  {
0 1
  O        0.9417500     2.5148810    -0.6596880
  N        2.0463840     0.6978680     0.1749460
  C        0.7564320    -1.5550710    -0.8733250
  C        1.8157710    -1.7711630     0.2163790
  C       -0.4497480    -0.7926040    -0.3845090
  C        2.0266990    -0.4897580     1.0228720
  C       -0.3650830     0.5850230    -0.0943830
  C        0.9070933     1.1721648    -0.1558429
  C       -1.6913630    -1.4231620    -0.2398970
  C       -1.5035900     1.3035830     0.2885800
  C       -2.8212120    -0.7143780     0.1714760
  C       -2.7281430     0.6547360     0.4326570
  H        0.4383490    -2.5216720    -1.2799980
  H        1.2165960    -1.0011160    -1.6986390
  H        1.5065410    -2.5704870     0.9013410
  H        2.7543720    -2.0878480    -0.2534440
  H        1.2290340    -0.3883270     1.7666860
  H        2.9729880    -0.5259550     1.5704730
  H        2.8793190     1.2773810     0.1528780
  H       -1.7755450    -2.4842720    -0.4701710
  H       -1.4080790     2.3720960     0.4641940
  H       -3.7741480    -1.2278540     0.2772780
  H       -3.6082280     1.2145190     0.7397060
units angstrom
no_reorient  #important for SAPT in psi4, default
symmetry c1  #important for SAPT in psi4, default
}

set PROPERTIES_ORIGIN ["COM"]
properties('MP2/aug-cc-pvtz', properties = ['dipole'])
--------------------------------------------------------------------------

    Molecular point group: c1
  Charge       = 0
  Multiplicity = 1
  Basis Set: AUG-CC-PVTZ
    Blend: AUG-CC-PVTZ
  Basis Set: (AUG-CC-PVTZ AUX)
    Blend: AUG-CC-PVTZ-JKFIT

    Orbital Energies [Eh]
    ---------------------

    Doubly Occupied:

       1A    -20.473970     2A    -15.608880     3A    -11.346495
       4A    -11.285300     5A    -11.264395     6A    -11.255886
       7A    -11.253482     8A    -11.249139     9A    -11.248181
      10A    -11.247321    11A    -11.245578    12A    -11.244046
      13A     -1.328287    14A     -1.196536    15A     -1.172959
      16A     -1.091480    17A     -1.050450    18A     -1.029099
      19A     -0.951340    20A     -0.904076    21A     -0.851835
      22A     -0.805198    23A     -0.800084    24A     -0.720241
      25A     -0.696107    26A     -0.676723    27A     -0.658611
      28A     -0.636604    29A     -0.618665    30A     -0.606300
      31A     -0.587934    32A     -0.560044    33A     -0.545474
      34A     -0.532437    35A     -0.519296    36A     -0.507424
      37A     -0.495501    38A     -0.477599    39A     -0.473443
      40A     -0.391243    41A     -0.370328    42A     -0.342700
      43A     -0.337860

  @DF-RHF Final Energy:  -514.53223310378314

   => Energetics <=

    Nuclear Repulsion Energy =            686.7879726662338271
    One-Electron Energy =               -2061.3233058853397779
    Two-Electron Energy =                 860.0031001153228090
    Total Energy =                       -514.5322331037831418
  Basis Set: (AUG-CC-PVTZ AUX)
    Blend: AUG-CC-PVTZ-RI
    Molecular point group: c1

    Geometry (in Angstrom), charge = 0, multiplicity = 1:

       Center              X                  Y                   Z               Mass
    ------------   -----------------  -----------------  -----------------  -----------------
         O            0.957075065013     2.479965315814    -0.651577330827    15.994914619570
         N            2.061709065013     0.662952315814     0.183056669173    14.003074004430
         C            0.771757065013    -1.589986684186    -0.865214330827    12.000000000000
         C            1.831096065013    -1.806078684186     0.224489669173    12.000000000000
         C           -0.434422934987    -0.827519684186    -0.376398330827    12.000000000000
         C            2.042024065013    -0.524673684186     1.030982669173    12.000000000000
         C           -0.349757934987     0.550107315814    -0.086272330827    12.000000000000
         C            0.922418365013     1.137249115814    -0.147732230827    12.000000000000
         C           -1.676037934987    -1.458077684186    -0.231786330827    12.000000000000
         C           -1.488264934987     1.268667315814     0.296690669173    12.000000000000
         C           -2.805886934987    -0.749293684186     0.179586669173    12.000000000000
         C           -2.712817934987     0.619820315814     0.440767669173    12.000000000000
         H            0.453674065013    -2.556587684186    -1.271887330827     1.007825032230
         H            1.231921065013    -1.036031684186    -1.690528330827     1.007825032230
         H            1.521866065013    -2.605402684186     0.909451669173     1.007825032230
         H            2.769697065013    -2.122763684186    -0.245333330827     1.007825032230
         H            1.244359065013    -0.423242684186     1.774796669173     1.007825032230
         H            2.988313065013    -0.560870684186     1.578583669173     1.007825032230
         H            2.894644065013     1.242465315814     0.160988669173     1.007825032230
         H           -1.760219934987    -2.519187684186    -0.462060330827     1.007825032230
         H           -1.392753934987     2.337180315814     0.472304669173     1.007825032230
         H           -3.758822934987    -1.262769684186     0.285388669173     1.007825032230
         H           -3.592902934987     1.179603315814     0.747816669173     1.007825032230

  Basis Set: AUG-CC-PVTZ
    Blend: AUG-CC-PVTZ
  Basis Set: (AUG-CC-PVTZ AUX)
    Blend: AUG-CC-PVTZ-JKFIT
	 Reference Energy          =    -514.5322331037831418 [Eh]
	 Singles Energy            =      -0.0000000000000000 [Eh]
	 Same-Spin Energy          =      -0.5634370028830062 [Eh]
	 Opposite-Spin Energy      =      -1.7533962569399910 [Eh]
	 Correlation Energy        =      -2.3168332598229973 [Eh]
	 Total Energy              =    -516.8490663636060845 [Eh]

	 ================> DF-SCS-MP2 Energies <==================
	-----------------------------------------------------------
	 SCS Same-Spin Scale       =       0.3333333333333333 [-]
	 SCS Opposite-Spin Scale   =       1.2000000000000000 [-]
	 SCS Same-Spin Energy      =      -0.1878123342943354 [Eh]
	 SCS Opposite-Spin Energy  =      -2.1040755083279890 [Eh]
	 SCS Correlation Energy    =      -2.2918878426223244 [Eh]
	 SCS Total Energy          =    -516.8241209464055146 [Eh]
	-----------------------------------------------------------

  Dipole Moment: [D]
     X:     0.7466      Y:    -4.9071      Z:     2.2834     Total:     5.4636

*** Psi4 exiting successfully. Buy a developer a beer!
