                               Psi4 1.3.2 release

  ==> Input File <==

--------------------------------------------------------------------------
#psi4
#
memory 32 gb

molecule  {
0 1
  O        0.9417500     2.5148810    -0.6596880
  N        2.0463840     0.6978680     0.1749460
  C        0.7564320    -1.5550710    -0.8733250
  C        1.8157710    -1.7711630     0.2163790
  C       -0.4497480    -0.7926040    -0.3845090
  C        2.0266990    -0.4897580     1.0228720
  C       -0.3650830     0.5850230    -0.0943830
  C        0.9971025     1.4110100    -0.2348718
  C       -1.6913630    -1.4231620    -0.2398970
  C       -1.5035900     1.3035830     0.2885800
  C       -2.8212120    -0.7143780     0.1714760
  C       -2.7281430     0.6547360     0.4326570
  H        0.4383490    -2.5216720    -1.2799980
  H        1.2165960    -1.0011160    -1.6986390
  H        1.5065410    -2.5704870     0.9013410
  H        2.7543720    -2.0878480    -0.2534440
  H        1.2290340    -0.3883270     1.7666860
  H        2.9729880    -0.5259550     1.5704730
  H        2.8793190     1.2773810     0.1528780
  H       -1.7755450    -2.4842720    -0.4701710
  H       -1.4080790     2.3720960     0.4641940
  H       -3.7741480    -1.2278540     0.2772780
  H       -3.6082280     1.2145190     0.7397060
units angstrom
no_reorient  #important for SAPT in psi4, default
symmetry c1  #important for SAPT in psi4, default
}

set PROPERTIES_ORIGIN ["COM"]
properties('MP2/aug-cc-pvtz', properties = ['dipole'])
--------------------------------------------------------------------------

    Molecular point group: c1
  Charge       = 0
  Multiplicity = 1
  Basis Set: AUG-CC-PVTZ
    Blend: AUG-CC-PVTZ
  Basis Set: (AUG-CC-PVTZ AUX)
    Blend: AUG-CC-PVTZ-JKFIT

    Orbital Energies [Eh]
    ---------------------

    Doubly Occupied:

       1A    -20.521907     2A    -15.587421     3A    -11.350236
       4A    -11.281223     5A    -11.250155     6A    -11.243148
       7A    -11.241329     8A    -11.238847     9A    -11.237887
      10A    -11.237025    11A    -11.236882    12A    -11.234978
      13A     -1.403577    14A     -1.253519    15A     -1.157156
      16A     -1.082711    17A     -1.024990    18A     -1.017241
      19A     -0.941058    20A     -0.869074    21A     -0.838564
      22A     -0.794127    23A     -0.775360    24A     -0.693600
      25A     -0.689578    26A     -0.670391    27A     -0.654605
      28A     -0.628295    29A     -0.615586    30A     -0.599199
      31A     -0.592361    32A     -0.575469    33A     -0.564005
      34A     -0.535173    35A     -0.521860    36A     -0.509618
      37A     -0.491869    38A     -0.487535    39A     -0.477719
      40A     -0.414463    41A     -0.400905    42A     -0.337018
      43A     -0.330583

  @DF-RHF Final Energy:  -514.59038409456900

   => Energetics <=

    Nuclear Repulsion Energy =            684.6058564970149973
    One-Electron Energy =               -2057.1759887227258332
    Two-Electron Energy =                 857.9797481311419460
    Total Energy =                       -514.5903840945690035
  Basis Set: (AUG-CC-PVTZ AUX)
    Blend: AUG-CC-PVTZ-RI
    Molecular point group: c1

    Geometry (in Angstrom), charge = 0, multiplicity = 1:

       Center              X                  Y                   Z               Mass
    ------------   -----------------  -----------------  -----------------  -----------------
         O            0.950369805825     2.462172479395    -0.645690051995    15.994914619570
         N            2.055003805825     0.645159479395     0.188943948005    14.003074004430
         C            0.765051805825    -1.607779520605    -0.859327051995    12.000000000000
         C            1.824390805825    -1.823871520605     0.230376948005    12.000000000000
         C           -0.441128194175    -0.845312520605    -0.370511051995    12.000000000000
         C            2.035318805825    -0.542466520605     1.036869948005    12.000000000000
         C           -0.356463194175     0.532314479395    -0.080385051995    12.000000000000
         C            1.005722305825     1.358301479395    -0.220873851995    12.000000000000
         C           -1.682743194175    -1.475870520605    -0.225899051995    12.000000000000
         C           -1.494970194175     1.250874479395     0.302577948005    12.000000000000
         C           -2.812592194175    -0.767086520605     0.185473948005    12.000000000000
         C           -2.719523194175     0.602027479395     0.446654948005    12.000000000000
         H            0.446968805825    -2.574380520605    -1.266000051995     1.007825032230
         H            1.225215805825    -1.053824520605    -1.684641051995     1.007825032230
         H            1.515160805825    -2.623195520605     0.915338948005     1.007825032230
         H            2.762991805825    -2.140556520605    -0.239446051995     1.007825032230
         H            1.237653805825    -0.441035520605     1.780683948005     1.007825032230
         H            2.981607805825    -0.578663520605     1.584470948005     1.007825032230
         H            2.887938805825     1.224672479395     0.166875948005     1.007825032230
         H           -1.766925194175    -2.536980520605    -0.456173051995     1.007825032230
         H           -1.399459194175     2.319387479395     0.478191948005     1.007825032230
         H           -3.765528194175    -1.280562520605     0.291275948005     1.007825032230
         H           -3.599608194175     1.161810479395     0.753703948005     1.007825032230

  Basis Set: AUG-CC-PVTZ
    Blend: AUG-CC-PVTZ
  Basis Set: (AUG-CC-PVTZ AUX)
    Blend: AUG-CC-PVTZ-JKFIT
	 Reference Energy          =    -514.5903840945690035 [Eh]
	 Singles Energy            =      -0.0000000000000000 [Eh]
	 Same-Spin Energy          =      -0.5574412477353639 [Eh]
	 Opposite-Spin Energy      =      -1.7418364287233676 [Eh]
	 Correlation Energy        =      -2.2992776764587317 [Eh]
	 Total Energy              =    -516.8896617710277042 [Eh]

	 ================> DF-SCS-MP2 Energies <==================
	-----------------------------------------------------------
	 SCS Same-Spin Scale       =       0.3333333333333333 [-]
	 SCS Opposite-Spin Scale   =       1.2000000000000000 [-]
	 SCS Same-Spin Energy      =      -0.1858137492451213 [Eh]
	 SCS Opposite-Spin Energy  =      -2.0902037144680410 [Eh]
	 SCS Correlation Energy    =      -2.2760174637131625 [Eh]
	 SCS Total Energy          =    -516.8664015582821776 [Eh]
	-----------------------------------------------------------

  Dipole Moment: [D]
     X:     1.2345      Y:    -3.3139      Z:     1.7479     Total:     3.9448

*** Psi4 exiting successfully. Buy a developer a beer!
