                               Psi4 1.3.2 release

  ==> Input File <==

--------------------------------------------------------------------------
#psi4
#
memory 32 gb

molecule  {
0 1
  O        0.9417500     2.5148810    -0.6596880
  N        2.0463840     0.6978680     0.1749460
  C        0.7564320    -1.5550710    -0.8733250
  C        1.8157710    -1.7711630     0.2163790
  C       -0.2898160    -0.8937024    -0.4493230
  C        2.0266990    -0.4897580     1.0228720
  C       -0.3650830     0.5850230    -0.0943830
  C        0.9119250     1.3593610    -0.2260870
  C       -1.6913630    -1.4231620    -0.2398970
  C       -1.5035900     1.3035830     0.2885800
  C       -2.8212120    -0.7143780     0.1714760
  C       -2.7281430     0.6547360     0.4326570
  H        0.4383490    -2.5216720    -1.2799980
  H        1.2165960    -1.0011160    -1.6986390
  H        1.5065410    -2.5704870     0.9013410
  H        2.7543720    -2.0878480    -0.2534440
  H        1.2290340    -0.3883270     1.7666860
  H        2.9729880    -0.5259550     1.5704730
  H        2.8793190     1.2773810     0.1528780
  H       -1.7755450    -2.4842720    -0.4701710
  H       -1.4080790     2.3720960     0.4641940
  H       -3.7741480    -1.2278540     0.2772780
  H       -3.6082280     1.2145190     0.7397060
units angstrom
no_reorient  #important for SAPT in psi4, default
symmetry c1  #important for SAPT in psi4, default
}

set PROPERTIES_ORIGIN ["COM"]
properties('MP2/aug-cc-pvtz', properties = ['dipole'])
--------------------------------------------------------------------------

    Molecular point group: c1
  Charge       = 0
  Multiplicity = 1
  Basis Set: AUG-CC-PVTZ
    Blend: AUG-CC-PVTZ
  Basis Set: (AUG-CC-PVTZ AUX)
    Blend: AUG-CC-PVTZ-JKFIT

    Orbital Energies [Eh]
    ---------------------

    Doubly Occupied:

       1A    -20.511369     2A    -15.582525     3A    -11.346091
       4A    -11.277786     5A    -11.274856     6A    -11.256576
       7A    -11.253018     8A    -11.248430     9A    -11.245698
      10A    -11.245025    11A    -11.239891    12A    -11.232568
      13A     -1.365994    14A     -1.236035    15A     -1.159397
      16A     -1.110072    17A     -1.031118    18A     -1.016894
      19A     -0.945308    20A     -0.883959    21A     -0.845463
      22A     -0.790070    23A     -0.766308    24A     -0.697920
      25A     -0.689684    26A     -0.682963    27A     -0.659533
      28A     -0.627033    29A     -0.614532    30A     -0.598671
      31A     -0.590206    32A     -0.572024    33A     -0.565359
      34A     -0.543832    35A     -0.526665    36A     -0.509287
      37A     -0.499860    38A     -0.481365    39A     -0.470809
      40A     -0.412448    41A     -0.389301    42A     -0.341006
      43A     -0.314688

  @DF-RHF Final Energy:  -514.53321008337684

   => Energetics <=

    Nuclear Repulsion Energy =            684.6247233585002050
    One-Electron Energy =               -2057.0125938774067436
    Two-Electron Energy =                 857.8546604355296950
    Total Energy =                       -514.5332100833768436
  Basis Set: (AUG-CC-PVTZ AUX)
    Blend: AUG-CC-PVTZ-RI
    Molecular point group: c1

    Geometry (in Angstrom), charge = 0, multiplicity = 1:

       Center              X                  Y                   Z               Mass
    ------------   -----------------  -----------------  -----------------  -----------------
         O            0.944800949553     2.473551437405    -0.641516141905    15.994914619570
         N            2.049434949553     0.656538437405     0.193117858095    14.003074004430
         C            0.759482949553    -1.596400562595    -0.855153141905    12.000000000000
         C            1.818821949553    -1.812492562595     0.234550858095    12.000000000000
         C           -0.286765050447    -0.935031962595    -0.431151141905    12.000000000000
         C            2.029749949553    -0.531087562595     1.041043858095    12.000000000000
         C           -0.362032050447     0.543693437405    -0.076211141905    12.000000000000
         C            0.914975949553     1.318031437405    -0.207915141905    12.000000000000
         C           -1.688312050447    -1.464491562595    -0.221725141905    12.000000000000
         C           -1.500539050447     1.262253437405     0.306751858095    12.000000000000
         C           -2.818161050447    -0.755707562595     0.189647858095    12.000000000000
         C           -2.725092050447     0.613406437405     0.450828858095    12.000000000000
         H            0.441399949553    -2.563001562595    -1.261826141905     1.007825032230
         H            1.219646949553    -1.042445562595    -1.680467141905     1.007825032230
         H            1.509591949553    -2.611816562595     0.919512858095     1.007825032230
         H            2.757422949553    -2.129177562595    -0.235272141905     1.007825032230
         H            1.232084949553    -0.429656562595     1.784857858095     1.007825032230
         H            2.976038949553    -0.567284562595     1.588644858095     1.007825032230
         H            2.882369949553     1.236051437405     0.171049858095     1.007825032230
         H           -1.772494050447    -2.525601562595    -0.451999141905     1.007825032230
         H           -1.405028050447     2.330766437405     0.482365858095     1.007825032230
         H           -3.771097050447    -1.269183562595     0.295449858095     1.007825032230
         H           -3.605177050447     1.173189437405     0.757877858095     1.007825032230

  Basis Set: AUG-CC-PVTZ
    Blend: AUG-CC-PVTZ
  Basis Set: (AUG-CC-PVTZ AUX)
    Blend: AUG-CC-PVTZ-JKFIT
	 Reference Energy          =    -514.5332100833768436 [Eh]
	 Singles Energy            =      -0.0000000000000000 [Eh]
	 Same-Spin Energy          =      -0.5635346619327777 [Eh]
	 Opposite-Spin Energy      =      -1.7515511825429368 [Eh]
	 Correlation Energy        =      -2.3150858444757145 [Eh]
	 Total Energy              =    -516.8482959278525186 [Eh]

	 ================> DF-SCS-MP2 Energies <==================
	-----------------------------------------------------------
	 SCS Same-Spin Scale       =       0.3333333333333333 [-]
	 SCS Opposite-Spin Scale   =       1.2000000000000000 [-]
	 SCS Same-Spin Energy      =      -0.1878448873109259 [Eh]
	 SCS Opposite-Spin Energy  =      -2.1018614190515241 [Eh]
	 SCS Correlation Energy    =      -2.2897063063624499 [Eh]
	 SCS Total Energy          =    -516.8229163897392482 [Eh]
	-----------------------------------------------------------

  Dipole Moment: [D]
     X:     0.8360      Y:    -3.7475      Z:     1.7176     Total:     4.2063

*** Psi4 exiting successfully. Buy a developer a beer!
