                               Psi4 1.3.2 release

  ==> Input File <==

--------------------------------------------------------------------------
#psi4
#
memory 32 gb

molecule  {
0 1
  O        0.9417500     2.5148810    -0.6596880
  N        2.0317271     0.6365940     0.0949025
  C        0.7564320    -1.5550710    -0.8733250
  C        1.8157710    -1.7711630     0.2163790
  C       -0.4497480    -0.7926040    -0.3845090
  C        2.0266990    -0.4897580     1.0228720
  C       -0.3650830     0.5850230    -0.0943830
  C        0.9119250     1.3593610    -0.2260870
  C       -1.6913630    -1.4231620    -0.2398970
  C       -1.5035900     1.3035830     0.2885800
  C       -2.8212120    -0.7143780     0.1714760
  C       -2.7281430     0.6547360     0.4326570
  H        0.4383490    -2.5216720    -1.2799980
  H        1.2165960    -1.0011160    -1.6986390
  H        1.5065410    -2.5704870     0.9013410
  H        2.7543720    -2.0878480    -0.2534440
  H        1.2290340    -0.3883270     1.7666860
  H        2.9729880    -0.5259550     1.5704730
  H        2.8793190     1.2773810     0.1528780
  H       -1.7755450    -2.4842720    -0.4701710
  H       -1.4080790     2.3720960     0.4641940
  H       -3.7741480    -1.2278540     0.2772780
  H       -3.6082280     1.2145190     0.7397060
units angstrom
no_reorient  #important for SAPT in psi4, default
symmetry c1  #important for SAPT in psi4, default
}

set PROPERTIES_ORIGIN ["COM"]
properties('MP2/aug-cc-pvtz', properties = ['dipole'])
--------------------------------------------------------------------------

    Molecular point group: c1
  Charge       = 0
  Multiplicity = 1
  Basis Set: AUG-CC-PVTZ
    Blend: AUG-CC-PVTZ
  Basis Set: (AUG-CC-PVTZ AUX)
    Blend: AUG-CC-PVTZ-JKFIT

    Orbital Energies [Eh]
    ---------------------

    Doubly Occupied:

       1A    -20.519075     2A    -15.587415     3A    -11.352410
       4A    -11.276012     5A    -11.257845     6A    -11.248536
       7A    -11.246135     8A    -11.244867     9A    -11.241369
      10A    -11.239440    11A    -11.237592    12A    -11.236109
      13A     -1.370833    14A     -1.236434    15A     -1.163166
      16A     -1.080475    17A     -1.036900    18A     -1.020195
      19A     -0.937620    20A     -0.879388    21A     -0.839147
      22A     -0.796520    23A     -0.770794    24A     -0.692066
      25A     -0.691136    26A     -0.671279    27A     -0.651588
      28A     -0.624730    29A     -0.612131    30A     -0.599405
      31A     -0.587941    32A     -0.572054    33A     -0.557151
      34A     -0.534311    35A     -0.518603    36A     -0.507900
      37A     -0.492252    38A     -0.487845    39A     -0.477766
      40A     -0.425702    41A     -0.394490    42A     -0.343495
      43A     -0.335716

  @DF-RHF Final Energy:  -514.59027536754024

   => Energetics <=

    Nuclear Repulsion Energy =            685.7856347991375969
    One-Electron Energy =               -2059.5601461202682003
    Two-Electron Energy =                 859.1842359535903597
    Total Energy =                       -514.5902753675402437
  Basis Set: (AUG-CC-PVTZ AUX)
    Blend: AUG-CC-PVTZ-RI
    Molecular point group: c1

    Geometry (in Angstrom), charge = 0, multiplicity = 1:

       Center              X                  Y                   Z               Mass
    ------------   -----------------  -----------------  -----------------  -----------------
         O            0.957989253864     2.471346647963    -0.639386278493    15.994914619570
         N            2.047966353864     0.593059647963     0.115204221507    14.003074004430
         C            0.772671253864    -1.598605352037    -0.853023278493    12.000000000000
         C            1.832010253864    -1.814697352037     0.236680721507    12.000000000000
         C           -0.433508746136    -0.836138352037    -0.364207278493    12.000000000000
         C            2.042938253864    -0.533292352037     1.043173721507    12.000000000000
         C           -0.348843746136     0.541488647963    -0.074081278493    12.000000000000
         C            0.928164253864     1.315826647963    -0.205785278493    12.000000000000
         C           -1.675123746136    -1.466696352037    -0.219595278493    12.000000000000
         C           -1.487350746136     1.260048647963     0.308881721507    12.000000000000
         C           -2.804972746136    -0.757912352037     0.191777721507    12.000000000000
         C           -2.711903746136     0.611201647963     0.452958721507    12.000000000000
         H            0.454588253864    -2.565206352037    -1.259696278493     1.007825032230
         H            1.232835253864    -1.044650352037    -1.678337278493     1.007825032230
         H            1.522780253864    -2.614021352037     0.921642721507     1.007825032230
         H            2.770611253864    -2.131382352037    -0.233142278493     1.007825032230
         H            1.245273253864    -0.431861352037     1.786987721507     1.007825032230
         H            2.989227253864    -0.569489352037     1.590774721507     1.007825032230
         H            2.895558253864     1.233846647963     0.173179721507     1.007825032230
         H           -1.759305746136    -2.527806352037    -0.449869278493     1.007825032230
         H           -1.391839746136     2.328561647963     0.484495721507     1.007825032230
         H           -3.757908746136    -1.271388352037     0.297579721507     1.007825032230
         H           -3.591988746136     1.170984647963     0.760007721507     1.007825032230

  Basis Set: AUG-CC-PVTZ
    Blend: AUG-CC-PVTZ
  Basis Set: (AUG-CC-PVTZ AUX)
    Blend: AUG-CC-PVTZ-JKFIT
	 Reference Energy          =    -514.5902753675402437 [Eh]
	 Singles Energy            =      -0.0000000000000000 [Eh]
	 Same-Spin Energy          =      -0.5594104857276244 [Eh]
	 Opposite-Spin Energy      =      -1.7459481756837827 [Eh]
	 Correlation Energy        =      -2.3053586614114070 [Eh]
	 Total Energy              =    -516.8956340289516902 [Eh]

	 ================> DF-SCS-MP2 Energies <==================
	-----------------------------------------------------------
	 SCS Same-Spin Scale       =       0.3333333333333333 [-]
	 SCS Opposite-Spin Scale   =       1.2000000000000000 [-]
	 SCS Same-Spin Energy      =      -0.1864701619092081 [Eh]
	 SCS Opposite-Spin Energy  =      -2.0951378108205390 [Eh]
	 SCS Correlation Energy    =      -2.2816079727297471 [Eh]
	 SCS Total Energy          =    -516.8718833402699602 [Eh]
	-----------------------------------------------------------

  Dipole Moment: [D]
     X:     0.6160      Y:    -3.4629      Z:     1.8847     Total:     3.9904

*** Psi4 exiting successfully. Buy a developer a beer!
