                               Psi4 1.3.2 release

  ==> Input File <==

--------------------------------------------------------------------------
#psi4
#
memory 32 gb

molecule  {
0 1
  O        0.9417500     2.5148810    -0.6596880
  N        2.0463840     0.6978680     0.1749460
  C        0.7564320    -1.5550710    -0.8733250
  C        1.8157710    -1.7711630     0.2163790
  C       -0.4497480    -0.7926040    -0.3845090
  C        2.0266990    -0.4897580     1.0228720
  C       -0.4130648     0.5847736    -0.0833734
  C        0.9119250     1.3593610    -0.2260870
  C       -1.6913630    -1.4231620    -0.2398970
  C       -1.5035900     1.3035830     0.2885800
  C       -2.8212120    -0.7143780     0.1714760
  C       -2.7281430     0.6547360     0.4326570
  H        0.4383490    -2.5216720    -1.2799980
  H        1.2165960    -1.0011160    -1.6986390
  H        1.5065410    -2.5704870     0.9013410
  H        2.7543720    -2.0878480    -0.2534440
  H        1.2290340    -0.3883270     1.7666860
  H        2.9729880    -0.5259550     1.5704730
  H        2.8793190     1.2773810     0.1528780
  H       -1.7755450    -2.4842720    -0.4701710
  H       -1.4080790     2.3720960     0.4641940
  H       -3.7741480    -1.2278540     0.2772780
  H       -3.6082280     1.2145190     0.7397060
units angstrom
no_reorient  #important for SAPT in psi4, default
symmetry c1  #important for SAPT in psi4, default
}

set PROPERTIES_ORIGIN ["COM"]
properties('MP2/aug-cc-pvtz', properties = ['dipole'])
--------------------------------------------------------------------------

    Molecular point group: c1
  Charge       = 0
  Multiplicity = 1
  Basis Set: AUG-CC-PVTZ
    Blend: AUG-CC-PVTZ
  Basis Set: (AUG-CC-PVTZ AUX)
    Blend: AUG-CC-PVTZ-JKFIT

    Orbital Energies [Eh]
    ---------------------

    Doubly Occupied:

       1A    -20.515602     2A    -15.583501     3A    -11.352952
       4A    -11.276140     5A    -11.256583     6A    -11.246575
       7A    -11.246090     8A    -11.241190     9A    -11.240492
      10A    -11.240232    11A    -11.239016    12A    -11.238187
      13A     -1.368279    14A     -1.234378    15A     -1.167438
      16A     -1.082934    17A     -1.035417    18A     -1.022197
      19A     -0.938929    20A     -0.875277    21A     -0.842017
      22A     -0.799559    23A     -0.776694    24A     -0.695626
      25A     -0.686226    26A     -0.669217    27A     -0.652539
      28A     -0.622896    29A     -0.615710    30A     -0.604630
      31A     -0.585098    32A     -0.576308    33A     -0.556555
      34A     -0.536398    35A     -0.518902    36A     -0.506599
      37A     -0.495098    38A     -0.492048    39A     -0.480868
      40A     -0.419343    41A     -0.389669    42A     -0.347774
      43A     -0.334224

  @DF-RHF Final Energy:  -514.59484113318342

   => Energetics <=

    Nuclear Repulsion Energy =            685.0203246706200844
    One-Electron Energy =               -2058.0195192801616031
    Two-Electron Energy =                 858.4043534763580965
    Total Energy =                       -514.5948411331834222
  Basis Set: (AUG-CC-PVTZ AUX)
    Blend: AUG-CC-PVTZ-RI
    Molecular point group: c1

    Geometry (in Angstrom), charge = 0, multiplicity = 1:

       Center              X                  Y                   Z               Mass
    ------------   -----------------  -----------------  -----------------  -----------------
         O            0.960289543138     2.466038664446    -0.647164641064    15.994914619570
         N            2.064923543138     0.649025664446     0.187469358936    14.003074004430
         C            0.774971543138    -1.603913335554    -0.860801641064    12.000000000000
         C            1.834310543138    -1.820005335554     0.228902358936    12.000000000000
         C           -0.431208456862    -0.841446335554    -0.371985641064    12.000000000000
         C            2.045238543138    -0.538600335554     1.035395358936    12.000000000000
         C           -0.394525256862     0.535931264446    -0.070850041064    12.000000000000
         C            0.930464543138     1.310518664446    -0.213563641064    12.000000000000
         C           -1.672823456862    -1.472004335554    -0.227373641064    12.000000000000
         C           -1.485050456862     1.254740664446     0.301103358936    12.000000000000
         C           -2.802672456862    -0.763220335554     0.183999358936    12.000000000000
         C           -2.709603456862     0.605893664446     0.445180358936    12.000000000000
         H            0.456888543138    -2.570514335554    -1.267474641064     1.007825032230
         H            1.235135543138    -1.049958335554    -1.686115641064     1.007825032230
         H            1.525080543138    -2.619329335554     0.913864358936     1.007825032230
         H            2.772911543138    -2.136690335554    -0.240920641064     1.007825032230
         H            1.247573543138    -0.437169335554     1.779209358936     1.007825032230
         H            2.991527543138    -0.574797335554     1.582996358936     1.007825032230
         H            2.897858543138     1.228538664446     0.165401358936     1.007825032230
         H           -1.757005456862    -2.533114335554    -0.457647641064     1.007825032230
         H           -1.389539456862     2.323253664446     0.476717358936     1.007825032230
         H           -3.755608456862    -1.276696335554     0.289801358936     1.007825032230
         H           -3.589688456862     1.165676664446     0.752229358936     1.007825032230

  Basis Set: AUG-CC-PVTZ
    Blend: AUG-CC-PVTZ
  Basis Set: (AUG-CC-PVTZ AUX)
    Blend: AUG-CC-PVTZ-JKFIT
	 Reference Energy          =    -514.5948411331834222 [Eh]
	 Singles Energy            =      -0.0000000000000000 [Eh]
	 Same-Spin Energy          =      -0.5582994972973165 [Eh]
	 Opposite-Spin Energy      =      -1.7438523502320948 [Eh]
	 Correlation Energy        =      -2.3021518475294114 [Eh]
	 Total Energy              =    -516.8969929807128665 [Eh]

	 ================> DF-SCS-MP2 Energies <==================
	-----------------------------------------------------------
	 SCS Same-Spin Scale       =       0.3333333333333333 [-]
	 SCS Opposite-Spin Scale   =       1.2000000000000000 [-]
	 SCS Same-Spin Energy      =      -0.1860998324324388 [Eh]
	 SCS Opposite-Spin Energy  =      -2.0926228202785135 [Eh]
	 SCS Correlation Energy    =      -2.2787226527109525 [Eh]
	 SCS Total Energy          =    -516.8735637858943619 [Eh]
	-----------------------------------------------------------

  Dipole Moment: [D]
     X:     0.6969      Y:    -3.5854      Z:     1.7641     Total:     4.0562

*** Psi4 exiting successfully. Buy a developer a beer!
