                               Psi4 1.4a3.dev225

  ==> Input File <==

--------------------------------------------------------------------------
#psi4
#
memory 32 gb

molecule  {
0 1
  O        0.9417500     2.5148810    -0.6596880
  N        2.0463840     0.6978680     0.1749460
  C        0.7564320    -1.5550710    -0.8733250
  C        1.8157710    -1.7711630     0.2163790
  C       -0.4657412    -0.7824942    -0.3780276
  C        2.0266990    -0.4897580     1.0228720
  C       -0.3650830     0.5850230    -0.0943830
  C        0.9119250     1.3593610    -0.2260870
  C       -1.6913630    -1.4231620    -0.2398970
  C       -1.5035900     1.3035830     0.2885800
  C       -2.8212120    -0.7143780     0.1714760
  C       -2.7281430     0.6547360     0.4326570
  H        0.4383490    -2.5216720    -1.2799980
  H        1.2165960    -1.0011160    -1.6986390
  H        1.5065410    -2.5704870     0.9013410
  H        2.7543720    -2.0878480    -0.2534440
  H        1.2290340    -0.3883270     1.7666860
  H        2.9729880    -0.5259550     1.5704730
  H        2.8793190     1.2773810     0.1528780
  H       -1.7755450    -2.4842720    -0.4701710
  H       -1.4080790     2.3720960     0.4641940
  H       -3.7741480    -1.2278540     0.2772780
  H       -3.6082280     1.2145190     0.7397060
units angstrom
no_reorient  #important for SAPT in psi4, default
symmetry c1  #important for SAPT in psi4, default
}

set PROPERTIES_ORIGIN ["COM"]
properties('MP2/aug-cc-pvtz', properties = ['dipole'])
--------------------------------------------------------------------------

    Molecular point group: c1
  Charge       = 0
  Multiplicity = 1
  Basis Set: AUG-CC-PVTZ
    Blend: AUG-CC-PVTZ
  Basis Set: (AUG-CC-PVTZ AUX)
    Blend: AUG-CC-PVTZ-JKFIT

    Orbital Energies [Eh]
    ---------------------

    Doubly Occupied:

       1A    -20.515519     2A    -15.582781     3A    -11.352026
       4A    -11.275656     5A    -11.256800     6A    -11.248832
       7A    -11.246466     8A    -11.245269     9A    -11.240628
      10A    -11.239783    11A    -11.239632    12A    -11.237501
      13A     -1.369367    14A     -1.234825    15A     -1.165744
      16A     -1.080051    17A     -1.037539    18A     -1.021163
      19A     -0.937605    20A     -0.881449    21A     -0.840783
      22A     -0.798920    23A     -0.777331    24A     -0.696924
      25A     -0.685390    26A     -0.671716    27A     -0.652260
      28A     -0.624269    29A     -0.615536    30A     -0.600060
      31A     -0.586960    32A     -0.576355    33A     -0.556288
      34A     -0.535482    35A     -0.518122    36A     -0.510904
      37A     -0.493266    38A     -0.490588    39A     -0.474996
      40A     -0.424064    41A     -0.389472    42A     -0.344213
      43A     -0.337814

  @DF-RHF Final Energy:  -514.59679436134059

   => Energetics <=

    Nuclear Repulsion Energy =            685.2054898902396189
    One-Electron Energy =               -2058.3838743145561239
    Two-Electron Energy =                 858.5815900629758062
    Total Energy =                       -514.5967943613405851
  Basis Set: (AUG-CC-PVTZ AUX)
    Blend: AUG-CC-PVTZ-RI
    Molecular point group: c1

    Geometry (in Angstrom), charge = 0, multiplicity = 1:

       Center              X                  Y                   Z               Mass
    ------------   -----------------  -----------------  -----------------  -----------------
         O            0.957906543911     2.465266953099    -0.646827311606    15.994914619570
         N            2.062540543911     0.648253953099     0.187806688394    14.003074004430
         C            0.772588543911    -1.604685046901    -0.860464311606    12.000000000000
         C            1.831927543911    -1.820777046901     0.229239688394    12.000000000000
         C           -0.449584656089    -0.832108246901    -0.365166911606    12.000000000000
         C            2.042855543911    -0.539372046901     1.035732688394    12.000000000000
         C           -0.348926456089     0.535408953099    -0.081522311606    12.000000000000
         C            0.928081543911     1.309746953099    -0.213226311606    12.000000000000
         C           -1.675206456089    -1.472776046901    -0.227036311606    12.000000000000
         C           -1.487433456089     1.253968953099     0.301440688394    12.000000000000
         C           -2.805055456089    -0.763992046901     0.184336688394    12.000000000000
         C           -2.711986456089     0.605121953099     0.445517688394    12.000000000000
         H            0.454505543911    -2.571286046901    -1.267137311606     1.007825032230
         H            1.232752543911    -1.050730046901    -1.685778311606     1.007825032230
         H            1.522697543911    -2.620101046901     0.914201688394     1.007825032230
         H            2.770528543911    -2.137462046901    -0.240583311606     1.007825032230
         H            1.245190543911    -0.437941046901     1.779546688394     1.007825032230
         H            2.989144543911    -0.575569046901     1.583333688394     1.007825032230
         H            2.895475543911     1.227766953099     0.165738688394     1.007825032230
         H           -1.759388456089    -2.533886046901    -0.457310311606     1.007825032230
         H           -1.391922456089     2.322481953099     0.477054688394     1.007825032230
         H           -3.757991456089    -1.277468046901     0.290138688394     1.007825032230
         H           -3.592071456089     1.164904953099     0.752566688394     1.007825032230

  Basis Set: AUG-CC-PVTZ
    Blend: AUG-CC-PVTZ
  Basis Set: (AUG-CC-PVTZ AUX)
    Blend: AUG-CC-PVTZ-JKFIT
	 Reference Energy          =    -514.5967943613405851 [Eh]
	 Singles Energy            =      -0.0000000000000000 [Eh]
	 Same-Spin Energy          =      -0.5584258547433367 [Eh]
	 Opposite-Spin Energy      =      -1.7440913070333317 [Eh]
	 Correlation Energy        =      -2.3025171617766684 [Eh]
	 Total Energy              =    -516.8993115231172624 [Eh]

	 ================> DF-SCS-MP2 Energies <==================
	-----------------------------------------------------------
	 SCS Same-Spin Scale       =       0.3333333333333333 [-]
	 SCS Opposite-Spin Scale   =       1.2000000000000000 [-]
	 SCS Same-Spin Energy      =      -0.1861419515811122 [Eh]
	 SCS Opposite-Spin Energy  =      -2.0929095684399979 [Eh]
	 SCS Correlation Energy    =      -2.2790515200211101 [Eh]
	 SCS Total Energy          =    -516.8758458813616699 [Eh]
	-----------------------------------------------------------

  Dipole Moment: [D]
     X:     0.6160      Y:    -3.6049      Z:     1.7729     Total:     4.0642

*** Psi4 exiting successfully. Buy a developer a beer!
