                               Psi4 1.3.2 release

  ==> Input File <==

--------------------------------------------------------------------------
#psi4
#
memory 32 gb

molecule  {
0 1
  O        0.9417500     2.5148810    -0.6596880
  N        2.0463840     0.6978680     0.1749460
  C        0.8371981    -1.4201733    -0.8589495
  C        1.8157710    -1.7711630     0.2163790
  C       -0.4497480    -0.7926040    -0.3845090
  C        2.0266990    -0.4897580     1.0228720
  C       -0.3650830     0.5850230    -0.0943830
  C        0.9119250     1.3593610    -0.2260870
  C       -1.6913630    -1.4231620    -0.2398970
  C       -1.5035900     1.3035830     0.2885800
  C       -2.8212120    -0.7143780     0.1714760
  C       -2.7281430     0.6547360     0.4326570
  H        0.4383490    -2.5216720    -1.2799980
  H        1.2165960    -1.0011160    -1.6986390
  H        1.5065410    -2.5704870     0.9013410
  H        2.7543720    -2.0878480    -0.2534440
  H        1.2290340    -0.3883270     1.7666860
  H        2.9729880    -0.5259550     1.5704730
  H        2.8793190     1.2773810     0.1528780
  H       -1.7755450    -2.4842720    -0.4701710
  H       -1.4080790     2.3720960     0.4641940
  H       -3.7741480    -1.2278540     0.2772780
  H       -3.6082280     1.2145190     0.7397060
units angstrom
no_reorient  #important for SAPT in psi4, default
symmetry c1  #important for SAPT in psi4, default
}

set PROPERTIES_ORIGIN ["COM"]
properties('MP2/aug-cc-pvtz', properties = ['dipole'])
--------------------------------------------------------------------------

    Molecular point group: c1
  Charge       = 0
  Multiplicity = 1
  Basis Set: AUG-CC-PVTZ
    Blend: AUG-CC-PVTZ
  Basis Set: (AUG-CC-PVTZ AUX)
    Blend: AUG-CC-PVTZ-JKFIT

    Orbital Energies [Eh]
    ---------------------

    Doubly Occupied:

       1A    -20.516294     2A    -15.583529     3A    -11.352401
       4A    -11.274267     5A    -11.259271     6A    -11.249993
       7A    -11.246068     8A    -11.244793     9A    -11.244778
      10A    -11.243932    11A    -11.240943    12A    -11.238078
      13A     -1.370224    14A     -1.237436    15A     -1.164967
      16A     -1.087589    17A     -1.038590    18A     -1.021854
      19A     -0.938174    20A     -0.880957    21A     -0.845802
      22A     -0.798603    23A     -0.777157    24A     -0.699584
      25A     -0.684109    26A     -0.678070    27A     -0.654606
      28A     -0.622905    29A     -0.619507    30A     -0.601527
      31A     -0.589441    32A     -0.579528    33A     -0.555564
      34A     -0.538572    35A     -0.523406    36A     -0.511086
      37A     -0.499429    38A     -0.480504    39A     -0.453245
      40A     -0.424632    41A     -0.390462    42A     -0.344207
      43A     -0.338897

  @DF-RHF Final Energy:  -514.56943036320308

   => Energetics <=

    Nuclear Repulsion Energy =            686.7589961702051369
    One-Electron Energy =               -2061.3668913182391407
    Two-Electron Energy =                 860.0384647848309214
    Total Energy =                       -514.5694303632030824
  Basis Set: (AUG-CC-PVTZ AUX)
    Blend: AUG-CC-PVTZ-RI
    Molecular point group: c1

    Geometry (in Angstrom), charge = 0, multiplicity = 1:

       Center              X                  Y                   Z               Mass
    ------------   -----------------  -----------------  -----------------  -----------------
         O            0.950698434236     2.455970845445    -0.647415384676    15.994914619570
         N            2.055332434236     0.638957845445     0.187218615324    14.003074004430
         C            0.846146534236    -1.479083454555    -0.846676884676    12.000000000000
         C            1.824719434236    -1.830073154555     0.228651615324    12.000000000000
         C           -0.440799565764    -0.851514154555    -0.372236384676    12.000000000000
         C            2.035647434236    -0.548668154555     1.035144615324    12.000000000000
         C           -0.356134565764     0.526112845445    -0.082110384676    12.000000000000
         C            0.920873434236     1.300450845445    -0.213814384676    12.000000000000
         C           -1.682414565764    -1.482072154555    -0.227624384676    12.000000000000
         C           -1.494641565764     1.244672845445     0.300852615324    12.000000000000
         C           -2.812263565764    -0.773288154555     0.183748615324    12.000000000000
         C           -2.719194565764     0.595825845445     0.444929615324    12.000000000000
         H            0.447297434236    -2.580582154555    -1.267725384676     1.007825032230
         H            1.225544434236    -1.060026154555    -1.686366384676     1.007825032230
         H            1.515489434236    -2.629397154555     0.913613615324     1.007825032230
         H            2.763320434236    -2.146758154555    -0.241171384676     1.007825032230
         H            1.237982434236    -0.447237154555     1.778958615324     1.007825032230
         H            2.981936434236    -0.584865154555     1.582745615324     1.007825032230
         H            2.888267434236     1.218470845445     0.165150615324     1.007825032230
         H           -1.766596565764    -2.543182154555    -0.457898384676     1.007825032230
         H           -1.399130565764     2.313185845445     0.476466615324     1.007825032230
         H           -3.765199565764    -1.286764154555     0.289550615324     1.007825032230
         H           -3.599279565764     1.155608845445     0.751978615324     1.007825032230

  Basis Set: AUG-CC-PVTZ
    Blend: AUG-CC-PVTZ
  Basis Set: (AUG-CC-PVTZ AUX)
    Blend: AUG-CC-PVTZ-JKFIT
	 Reference Energy          =    -514.5694303632030824 [Eh]
	 Singles Energy            =      -0.0000000000000000 [Eh]
	 Same-Spin Energy          =      -0.5599175074731657 [Eh]
	 Opposite-Spin Energy      =      -1.7467909211578485 [Eh]
	 Correlation Energy        =      -2.3067084286310142 [Eh]
	 Total Energy              =    -516.8761387918341370 [Eh]

	 ================> DF-SCS-MP2 Energies <==================
	-----------------------------------------------------------
	 SCS Same-Spin Scale       =       0.3333333333333333 [-]
	 SCS Opposite-Spin Scale   =       1.2000000000000000 [-]
	 SCS Same-Spin Energy      =      -0.1866391691577219 [Eh]
	 SCS Opposite-Spin Energy  =      -2.0961491053894181 [Eh]
	 SCS Correlation Energy    =      -2.2827882745471402 [Eh]
	 SCS Total Energy          =    -516.8522186377501839 [Eh]
	-----------------------------------------------------------

  Dipole Moment: [D]
     X:     0.6299      Y:    -3.4909      Z:     1.8208     Total:     3.9873

*** Psi4 exiting successfully. Buy a developer a beer!
