                               Psi4 1.4a3.dev225

  ==> Input File <==

--------------------------------------------------------------------------
#psi4
#
memory 32 gb

molecule  {
0 1
  O        0.9417500     2.5148810    -0.6596880
  N        2.0463840     0.6978680     0.1749460
  C        0.7564320    -1.5550710    -0.8733250
  C        1.8157710    -1.7711630     0.2163790
  C       -0.4497480    -0.7926040    -0.3845090
  C        2.0266990    -0.4897580     1.0228720
  C       -0.3650830     0.5850230    -0.0943830
  C        0.9119250     1.3593610    -0.2260870
  C       -1.6913630    -1.4231620    -0.2398970
  C       -1.5442594     1.3292512     0.3022601
  C       -2.8212120    -0.7143780     0.1714760
  C       -2.7281430     0.6547360     0.4326570
  H        0.4383490    -2.5216720    -1.2799980
  H        1.2165960    -1.0011160    -1.6986390
  H        1.5065410    -2.5704870     0.9013410
  H        2.7543720    -2.0878480    -0.2534440
  H        1.2290340    -0.3883270     1.7666860
  H        2.9729880    -0.5259550     1.5704730
  H        2.8793190     1.2773810     0.1528780
  H       -1.7755450    -2.4842720    -0.4701710
  H       -1.4080790     2.3720960     0.4641940
  H       -3.7741480    -1.2278540     0.2772780
  H       -3.6082280     1.2145190     0.7397060
units angstrom
no_reorient  #important for SAPT in psi4, default
symmetry c1  #important for SAPT in psi4, default
}

set PROPERTIES_ORIGIN ["COM"]
properties('MP2/aug-cc-pvtz', properties = ['dipole'])
--------------------------------------------------------------------------

    Molecular point group: c1
  Charge       = 0
  Multiplicity = 1
  Basis Set: AUG-CC-PVTZ
    Blend: AUG-CC-PVTZ
  Basis Set: (AUG-CC-PVTZ AUX)
    Blend: AUG-CC-PVTZ-JKFIT

    Orbital Energies [Eh]
    ---------------------

    Doubly Occupied:

       1A    -20.514952     2A    -15.582552     3A    -11.351349
       4A    -11.275512     5A    -11.258594     6A    -11.251070
       7A    -11.249638     8A    -11.246356     9A    -11.242644
      10A    -11.239478    11A    -11.237955    12A    -11.237644
      13A     -1.368767    14A     -1.234551    15A     -1.162119
      16A     -1.083160    17A     -1.032983    18A     -1.022120
      19A     -0.938257    20A     -0.883551    21A     -0.840761
      22A     -0.797870    23A     -0.774986    24A     -0.696081
      25A     -0.685164    26A     -0.675153    27A     -0.652123
      28A     -0.626493    29A     -0.616644    30A     -0.596834
      31A     -0.586428    32A     -0.577540    33A     -0.556550
      34A     -0.535008    35A     -0.517599    36A     -0.515340
      37A     -0.491659    38A     -0.489635    39A     -0.475617
      40A     -0.423032    41A     -0.389371    42A     -0.341438
      43A     -0.337413

  @DF-RHF Final Energy:  -514.59336790943621

   => Energetics <=

    Nuclear Repulsion Energy =            684.2904669893360960
    One-Electron Energy =               -2056.5436870148628259
    Two-Electron Energy =                 857.6598521160906330
    Total Energy =                       -514.5933679094362105
  Basis Set: (AUG-CC-PVTZ AUX)
    Blend: AUG-CC-PVTZ-RI
    Molecular point group: c1

    Geometry (in Angstrom), charge = 0, multiplicity = 1:

       Center              X                  Y                   Z               Mass
    ------------   -----------------  -----------------  -----------------  -----------------
         O            0.959744803964     2.464107925971    -0.647363580669    15.994914619570
         N            2.064378803964     0.647094925971     0.187270419331    14.003074004430
         C            0.774426803964    -1.605844074029    -0.861000580669    12.000000000000
         C            1.833765803964    -1.821936074029     0.228703419331    12.000000000000
         C           -0.431753196036    -0.843377074029    -0.372184580669    12.000000000000
         C            2.044693803964    -0.540531074029     1.035196419331    12.000000000000
         C           -0.347088196036     0.534249925971    -0.082058580669    12.000000000000
         C            0.929919803964     1.308587925971    -0.213762580669    12.000000000000
         C           -1.673368196036    -1.473935074029    -0.227572580669    12.000000000000
         C           -1.526264596036     1.278478125971     0.314584519331    12.000000000000
         C           -2.803217196036    -0.765151074029     0.183800419331    12.000000000000
         C           -2.710148196036     0.603962925971     0.444981419331    12.000000000000
         H            0.456343803964    -2.572445074029    -1.267673580669     1.007825032230
         H            1.234590803964    -1.051889074029    -1.686314580669     1.007825032230
         H            1.524535803964    -2.621260074029     0.913665419331     1.007825032230
         H            2.772366803964    -2.138621074029    -0.241119580669     1.007825032230
         H            1.247028803964    -0.439100074029     1.779010419331     1.007825032230
         H            2.990982803964    -0.576728074029     1.582797419331     1.007825032230
         H            2.897313803964     1.226607925971     0.165202419331     1.007825032230
         H           -1.757550196036    -2.535045074029    -0.457846580669     1.007825032230
         H           -1.390084196036     2.321322925971     0.476518419331     1.007825032230
         H           -3.756153196036    -1.278627074029     0.289602419331     1.007825032230
         H           -3.590233196036     1.163745925971     0.752030419331     1.007825032230

  Basis Set: AUG-CC-PVTZ
    Blend: AUG-CC-PVTZ
  Basis Set: (AUG-CC-PVTZ AUX)
    Blend: AUG-CC-PVTZ-JKFIT
	 Reference Energy          =    -514.5933679094362105 [Eh]
	 Singles Energy            =      -0.0000000000000000 [Eh]
	 Same-Spin Energy          =      -0.5586632707521292 [Eh]
	 Opposite-Spin Energy      =      -1.7446229523088723 [Eh]
	 Correlation Energy        =      -2.3032862230610016 [Eh]
	 Total Energy              =    -516.8966541324972468 [Eh]

	 ================> DF-SCS-MP2 Energies <==================
	-----------------------------------------------------------
	 SCS Same-Spin Scale       =       0.3333333333333333 [-]
	 SCS Opposite-Spin Scale   =       1.2000000000000000 [-]
	 SCS Same-Spin Energy      =      -0.1862210902507097 [Eh]
	 SCS Opposite-Spin Energy  =      -2.0935475427706467 [Eh]
	 SCS Correlation Energy    =      -2.2797686330213565 [Eh]
	 SCS Total Energy          =    -516.8731365424575870 [Eh]
	-----------------------------------------------------------

  Dipole Moment: [D]
     X:     0.6322      Y:    -3.6252      Z:     1.7670     Total:     4.0822

*** Psi4 exiting successfully. Buy a developer a beer!
