                               Psi4 1.3.2 release

  ==> Input File <==

--------------------------------------------------------------------------
#psi4
#
memory 32 gb

molecule  {
0 1
  O        0.9417500     2.5148810    -0.6596880
  N        2.0463840     0.6978680     0.1749460
  C        0.7564320    -1.5550710    -0.8733250
  C        1.8157710    -1.7711630     0.2163790
  C       -0.4497480    -0.7926040    -0.3845090
  C        2.0542948    -0.3221115     1.1283856
  C       -0.3650830     0.5850230    -0.0943830
  C        0.9119250     1.3593610    -0.2260870
  C       -1.6913630    -1.4231620    -0.2398970
  C       -1.5035900     1.3035830     0.2885800
  C       -2.8212120    -0.7143780     0.1714760
  C       -2.7281430     0.6547360     0.4326570
  H        0.4383490    -2.5216720    -1.2799980
  H        1.2165960    -1.0011160    -1.6986390
  H        1.5065410    -2.5704870     0.9013410
  H        2.7543720    -2.0878480    -0.2534440
  H        1.2290340    -0.3883270     1.7666860
  H        2.9729880    -0.5259550     1.5704730
  H        2.8793190     1.2773810     0.1528780
  H       -1.7755450    -2.4842720    -0.4701710
  H       -1.4080790     2.3720960     0.4641940
  H       -3.7741480    -1.2278540     0.2772780
  H       -3.6082280     1.2145190     0.7397060
units angstrom
no_reorient  #important for SAPT in psi4, default
symmetry c1  #important for SAPT in psi4, default
}

set PROPERTIES_ORIGIN ["COM"]
properties('MP2/aug-cc-pvtz', properties = ['dipole'])
--------------------------------------------------------------------------

    Molecular point group: c1
  Charge       = 0
  Multiplicity = 1
  Basis Set: AUG-CC-PVTZ
    Blend: AUG-CC-PVTZ
  Basis Set: (AUG-CC-PVTZ AUX)
    Blend: AUG-CC-PVTZ-JKFIT

    Orbital Energies [Eh]
    ---------------------

    Doubly Occupied:

       1A    -20.520852     2A    -15.586077     3A    -11.356035
       4A    -11.272336     5A    -11.258362     6A    -11.249366
       7A    -11.247915     8A    -11.246506     9A    -11.241340
      10A    -11.239921    11A    -11.237484    12A    -11.236453
      13A     -1.374908    14A     -1.250059    15A     -1.165196
      16A     -1.072447    17A     -1.036195    18A     -1.008008
      19A     -0.940429    20A     -0.883715    21A     -0.841893
      22A     -0.796556    23A     -0.781756    24A     -0.701872
      25A     -0.697407    26A     -0.671388    27A     -0.658661
      28A     -0.621434    29A     -0.613431    30A     -0.594753
      31A     -0.592340    32A     -0.579262    33A     -0.558983
      34A     -0.545474    35A     -0.521519    36A     -0.504496
      37A     -0.490977    38A     -0.482536    39A     -0.469722
      40A     -0.428831    41A     -0.369540    42A     -0.344845
      43A     -0.335835

  @DF-RHF Final Energy:  -514.56853809178676

   => Energetics <=

    Nuclear Repulsion Energy =            683.8697179320930672
    One-Electron Energy =               -2055.6222824981878148
    Two-Electron Energy =                 857.1840264743080979
    Total Energy =                       -514.5685380917867633
  Basis Set: (AUG-CC-PVTZ AUX)
    Blend: AUG-CC-PVTZ-RI
    Molecular point group: c1

    Geometry (in Angstrom), charge = 0, multiplicity = 1:

       Center              X                  Y                   Z               Mass
    ------------   -----------------  -----------------  -----------------  -----------------
         O            0.954659369814     2.453531214917    -0.654204741568    15.994914619570
         N            2.059293369814     0.636518214917     0.180429258432    14.003074004430
         C            0.769341369814    -1.616420785083    -0.867841741568    12.000000000000
         C            1.828680369814    -1.832512785083     0.221862258432    12.000000000000
         C           -0.436838630186    -0.853953785083    -0.379025741568    12.000000000000
         C            2.067204169814    -0.383461285083     1.133868858432    12.000000000000
         C           -0.352173630186     0.523673214917    -0.088899741568    12.000000000000
         C            0.924834369814     1.298011214917    -0.220603741568    12.000000000000
         C           -1.678453630186    -1.484511785083    -0.234413741568    12.000000000000
         C           -1.490680630186     1.242233214917     0.294063258432    12.000000000000
         C           -2.808302630186    -0.775727785083     0.176959258432    12.000000000000
         C           -2.715233630186     0.593386214917     0.438140258432    12.000000000000
         H            0.451258369814    -2.583021785083    -1.274514741568     1.007825032230
         H            1.229505369814    -1.062465785083    -1.693155741568     1.007825032230
         H            1.519450369814    -2.631836785083     0.906824258432     1.007825032230
         H            2.767281369814    -2.149197785083    -0.247960741568     1.007825032230
         H            1.241943369814    -0.449676785083     1.772169258432     1.007825032230
         H            2.985897369814    -0.587304785083     1.575956258432     1.007825032230
         H            2.892228369814     1.216031214917     0.158361258432     1.007825032230
         H           -1.762635630186    -2.545621785083    -0.464687741568     1.007825032230
         H           -1.395169630186     2.310746214917     0.469677258432     1.007825032230
         H           -3.761238630186    -1.289203785083     0.282761258432     1.007825032230
         H           -3.595318630186     1.153169214917     0.745189258432     1.007825032230

  Basis Set: AUG-CC-PVTZ
    Blend: AUG-CC-PVTZ
  Basis Set: (AUG-CC-PVTZ AUX)
    Blend: AUG-CC-PVTZ-JKFIT
	 Reference Energy          =    -514.5685380917867633 [Eh]
	 Singles Energy            =      -0.0000000000000000 [Eh]
	 Same-Spin Energy          =      -0.5591177870355548 [Eh]
	 Opposite-Spin Energy      =      -1.7458172922437898 [Eh]
	 Correlation Energy        =      -2.3049350792793444 [Eh]
	 Total Energy              =    -516.8734731710660526 [Eh]

	 ================> DF-SCS-MP2 Energies <==================
	-----------------------------------------------------------
	 SCS Same-Spin Scale       =       0.3333333333333333 [-]
	 SCS Opposite-Spin Scale   =       1.2000000000000000 [-]
	 SCS Same-Spin Energy      =      -0.1863725956785183 [Eh]
	 SCS Opposite-Spin Energy  =      -2.0949807506925477 [Eh]
	 SCS Correlation Energy    =      -2.2813533463710662 [Eh]
	 SCS Total Energy          =    -516.8498914381577833 [Eh]
	-----------------------------------------------------------

  Dipole Moment: [D]
     X:     0.5808      Y:    -3.2563      Z:     1.7537     Total:     3.7438

*** Psi4 exiting successfully. Buy a developer a beer!
