                               Psi4 1.3.2 release

  ==> Input File <==

--------------------------------------------------------------------------
#psi4
#
memory 32 gb

molecule  {
0 1
  O        0.9417500     2.5148810    -0.6596880
  N        2.0463840     0.6978680     0.1749460
  C        0.7564320    -1.5550710    -0.8733250
  C        1.8157710    -1.7711630     0.2163790
  C       -0.4018594    -0.7922654    -0.3959150
  C        2.0266990    -0.4897580     1.0228720
  C       -0.3650830     0.5850230    -0.0943830
  C        0.9119250     1.3593610    -0.2260870
  C       -1.6913630    -1.4231620    -0.2398970
  C       -1.5035900     1.3035830     0.2885800
  C       -2.8212120    -0.7143780     0.1714760
  C       -2.7281430     0.6547360     0.4326570
  H        0.4383490    -2.5216720    -1.2799980
  H        1.2165960    -1.0011160    -1.6986390
  H        1.5065410    -2.5704870     0.9013410
  H        2.7543720    -2.0878480    -0.2534440
  H        1.2290340    -0.3883270     1.7666860
  H        2.9729880    -0.5259550     1.5704730
  H        2.8793190     1.2773810     0.1528780
  H       -1.7755450    -2.4842720    -0.4701710
  H       -1.4080790     2.3720960     0.4641940
  H       -3.7741480    -1.2278540     0.2772780
  H       -3.6082280     1.2145190     0.7397060
units angstrom
no_reorient  #important for SAPT in psi4, default
symmetry c1  #important for SAPT in psi4, default
}

set PROPERTIES_ORIGIN ["COM"]
properties('MP2/aug-cc-pvtz', properties = ['dipole'])
--------------------------------------------------------------------------

    Molecular point group: c1
  Charge       = 0
  Multiplicity = 1
  Basis Set: AUG-CC-PVTZ
    Blend: AUG-CC-PVTZ
  Basis Set: (AUG-CC-PVTZ AUX)
    Blend: AUG-CC-PVTZ-JKFIT

    Orbital Energies [Eh]
    ---------------------

    Doubly Occupied:

       1A    -20.514428     2A    -15.582793     3A    -11.350064
       4A    -11.276197     5A    -11.261696     6A    -11.248472
       7A    -11.247582     8A    -11.245983     9A    -11.245403
      10A    -11.239963    11A    -11.239135    12A    -11.238281
      13A     -1.368541    14A     -1.235260    15A     -1.161506
      16A     -1.087392    17A     -1.037145    18A     -1.017494
      19A     -0.939962    20A     -0.880786    21A     -0.843252
      22A     -0.798115    23A     -0.773868    24A     -0.696109
      25A     -0.686736    26A     -0.673073    27A     -0.653532
      28A     -0.623986    29A     -0.615821    30A     -0.599343
      31A     -0.588166    32A     -0.575458    33A     -0.559031
      34A     -0.536945    35A     -0.519578    36A     -0.507807
      37A     -0.494403    38A     -0.488187    39A     -0.482456
      40A     -0.421281    41A     -0.389552    42A     -0.344163
      43A     -0.331313

  @DF-RHF Final Energy:  -514.59239305291385

   => Energetics <=

    Nuclear Repulsion Energy =            685.1961118930537395
    One-Electron Energy =               -2058.3364927590778279
    Two-Electron Energy =                 858.5479878131102396
    Total Energy =                       -514.5923930529138488
  Basis Set: (AUG-CC-PVTZ AUX)
    Blend: AUG-CC-PVTZ-RI
    Molecular point group: c1

    Geometry (in Angstrom), charge = 0, multiplicity = 1:

       Center              X                  Y                   Z               Mass
    ------------   -----------------  -----------------  -----------------  -----------------
         O            0.953147652304     2.465994861230    -0.645494785007    15.994914619570
         N            2.057781652304     0.648981861230     0.189139214993    14.003074004430
         C            0.767829652304    -1.603957138770    -0.859131785007    12.000000000000
         C            1.827168652304    -1.820049138770     0.230572214993    12.000000000000
         C           -0.390461747696    -0.841151538770    -0.381721785007    12.000000000000
         C            2.038096652304    -0.538644138770     1.037065214993    12.000000000000
         C           -0.353685347696     0.536136861230    -0.080189785007    12.000000000000
         C            0.923322652304     1.310474861230    -0.211893785007    12.000000000000
         C           -1.679965347696    -1.472048138770    -0.225703785007    12.000000000000
         C           -1.492192347696     1.254696861230     0.302773214993    12.000000000000
         C           -2.809814347696    -0.763264138770     0.185669214993    12.000000000000
         C           -2.716745347696     0.605849861230     0.446850214993    12.000000000000
         H            0.449746652304    -2.570558138770    -1.265804785007     1.007825032230
         H            1.227993652304    -1.050002138770    -1.684445785007     1.007825032230
         H            1.517938652304    -2.619373138770     0.915534214993     1.007825032230
         H            2.765769652304    -2.136734138770    -0.239250785007     1.007825032230
         H            1.240431652304    -0.437213138770     1.780879214993     1.007825032230
         H            2.984385652304    -0.574841138770     1.584666214993     1.007825032230
         H            2.890716652304     1.228494861230     0.167071214993     1.007825032230
         H           -1.764147347696    -2.533158138770    -0.455977785007     1.007825032230
         H           -1.396681347696     2.323209861230     0.478387214993     1.007825032230
         H           -3.762750347696    -1.276740138770     0.291471214993     1.007825032230
         H           -3.596830347696     1.165632861230     0.753899214993     1.007825032230

  Basis Set: AUG-CC-PVTZ
    Blend: AUG-CC-PVTZ
  Basis Set: (AUG-CC-PVTZ AUX)
    Blend: AUG-CC-PVTZ-JKFIT
	 Reference Energy          =    -514.5923930529138488 [Eh]
	 Singles Energy            =      -0.0000000000000000 [Eh]
	 Same-Spin Energy          =      -0.5592467676323073 [Eh]
	 Opposite-Spin Energy      =      -1.7452697898643832 [Eh]
	 Correlation Energy        =      -2.3045165574966906 [Eh]
	 Total Energy              =    -516.8969096104104892 [Eh]

	 ================> DF-SCS-MP2 Energies <==================
	-----------------------------------------------------------
	 SCS Same-Spin Scale       =       0.3333333333333333 [-]
	 SCS Opposite-Spin Scale   =       1.2000000000000000 [-]
	 SCS Same-Spin Energy      =      -0.1864155892107691 [Eh]
	 SCS Opposite-Spin Energy  =      -2.0943237478372598 [Eh]
	 SCS Correlation Energy    =      -2.2807393370480291 [Eh]
	 SCS Total Energy          =    -516.8731323899618246 [Eh]
	-----------------------------------------------------------

  Dipole Moment: [D]
     X:     0.6641      Y:    -3.6468      Z:     1.7570     Total:     4.1021

*** Psi4 exiting successfully. Buy a developer a beer!
