                               Psi4 1.3.2 release

  ==> Input File <==

--------------------------------------------------------------------------
#psi4
#
memory 32 gb

molecule  {
0 1
  O        0.9417500     2.5148810    -0.6596880
  N        1.9533900     0.6718752     0.1424996
  C        0.7564320    -1.5550710    -0.8733250
  C        1.8157710    -1.7711630     0.2163790
  C       -0.4497480    -0.7926040    -0.3845090
  C        2.0266990    -0.4897580     1.0228720
  C       -0.3650830     0.5850230    -0.0943830
  C        0.9119250     1.3593610    -0.2260870
  C       -1.6913630    -1.4231620    -0.2398970
  C       -1.5035900     1.3035830     0.2885800
  C       -2.8212120    -0.7143780     0.1714760
  C       -2.7281430     0.6547360     0.4326570
  H        0.4383490    -2.5216720    -1.2799980
  H        1.2165960    -1.0011160    -1.6986390
  H        1.5065410    -2.5704870     0.9013410
  H        2.7543720    -2.0878480    -0.2534440
  H        1.2290340    -0.3883270     1.7666860
  H        2.9729880    -0.5259550     1.5704730
  H        2.8793190     1.2773810     0.1528780
  H       -1.7755450    -2.4842720    -0.4701710
  H       -1.4080790     2.3720960     0.4641940
  H       -3.7741480    -1.2278540     0.2772780
  H       -3.6082280     1.2145190     0.7397060
units angstrom
no_reorient  #important for SAPT in psi4, default
symmetry c1  #important for SAPT in psi4, default
}

set PROPERTIES_ORIGIN ["COM"]
properties('MP2/aug-cc-pvtz', properties = ['dipole'])
--------------------------------------------------------------------------

    Molecular point group: c1
  Charge       = 0
  Multiplicity = 1
  Basis Set: AUG-CC-PVTZ
    Blend: AUG-CC-PVTZ
  Basis Set: (AUG-CC-PVTZ AUX)
    Blend: AUG-CC-PVTZ-JKFIT

    Orbital Energies [Eh]
    ---------------------

    Doubly Occupied:

       1A    -20.506071     2A    -15.593716     3A    -11.342108
       4A    -11.281896     5A    -11.256142     6A    -11.246517
       7A    -11.243010     8A    -11.241824     9A    -11.240323
      10A    -11.240013    11A    -11.239305    12A    -11.237885
      13A     -1.369992    14A     -1.247675    15A     -1.161791
      16A     -1.084254    17A     -1.036996    18A     -1.021490
      19A     -0.943595    20A     -0.880978    21A     -0.840263
      22A     -0.798590    23A     -0.771089    24A     -0.695028
      25A     -0.689648    26A     -0.669596    27A     -0.657784
      28A     -0.622659    29A     -0.613885    30A     -0.599433
      31A     -0.588450    32A     -0.568061    33A     -0.559911
      34A     -0.537958    35A     -0.518154    36A     -0.503364
      37A     -0.492471    38A     -0.488222    39A     -0.478281
      40A     -0.419559    41A     -0.392604    42A     -0.341299
      43A     -0.334620

  @DF-RHF Final Energy:  -514.58202423870807

   => Energetics <=

    Nuclear Repulsion Energy =            687.4213347593630488
    One-Electron Energy =               -2062.8136994945175502
    Two-Electron Energy =                 860.8103404964463152
    Total Energy =                       -514.5820242387080725
  Basis Set: (AUG-CC-PVTZ AUX)
    Blend: AUG-CC-PVTZ-RI
    Molecular point group: c1

    Geometry (in Angstrom), charge = 0, multiplicity = 1:

       Center              X                  Y                   Z               Mass
    ------------   -----------------  -----------------  -----------------  -----------------
         O            0.964799115631     2.468279645292    -0.643523905129    15.994914619570
         N            1.976439115631     0.625273845292     0.158663694871    14.003074004430
         C            0.779481115631    -1.601672354708    -0.857160905129    12.000000000000
         C            1.838820115631    -1.817764354708     0.232543094871    12.000000000000
         C           -0.426698884369    -0.839205354708    -0.368344905129    12.000000000000
         C            2.049748115631    -0.536359354708     1.039036094871    12.000000000000
         C           -0.342033884369     0.538421645292    -0.078218905129    12.000000000000
         C            0.934974115631     1.312759645292    -0.209922905129    12.000000000000
         C           -1.668313884369    -1.469763354708    -0.223732905129    12.000000000000
         C           -1.480540884369     1.256981645292     0.304744094871    12.000000000000
         C           -2.798162884369    -0.760979354708     0.187640094871    12.000000000000
         C           -2.705093884369     0.608134645292     0.448821094871    12.000000000000
         H            0.461398115631    -2.568273354708    -1.263833905129     1.007825032230
         H            1.239645115631    -1.047717354708    -1.682474905129     1.007825032230
         H            1.529590115631    -2.617088354708     0.917505094871     1.007825032230
         H            2.777421115631    -2.134449354708    -0.237279905129     1.007825032230
         H            1.252083115631    -0.434928354708     1.782850094871     1.007825032230
         H            2.996037115631    -0.572556354708     1.586637094871     1.007825032230
         H            2.902368115631     1.230779645292     0.169042094871     1.007825032230
         H           -1.752495884369    -2.530873354708    -0.454006905129     1.007825032230
         H           -1.385029884369     2.325494645292     0.480358094871     1.007825032230
         H           -3.751098884369    -1.274455354708     0.293442094871     1.007825032230
         H           -3.585178884369     1.167917645292     0.755870094871     1.007825032230

  Basis Set: AUG-CC-PVTZ
    Blend: AUG-CC-PVTZ
  Basis Set: (AUG-CC-PVTZ AUX)
    Blend: AUG-CC-PVTZ-JKFIT
	 Reference Energy          =    -514.5820242387080725 [Eh]
	 Singles Energy            =      -0.0000000000000000 [Eh]
	 Same-Spin Energy          =      -0.5597138324520332 [Eh]
	 Opposite-Spin Energy      =      -1.7457663178616458 [Eh]
	 Correlation Energy        =      -2.3054801503136790 [Eh]
	 Total Energy              =    -516.8875043890217285 [Eh]

	 ================> DF-SCS-MP2 Energies <==================
	-----------------------------------------------------------
	 SCS Same-Spin Scale       =       0.3333333333333333 [-]
	 SCS Opposite-Spin Scale   =       1.2000000000000000 [-]
	 SCS Same-Spin Energy      =      -0.1865712774840111 [Eh]
	 SCS Opposite-Spin Energy  =      -2.0949195814339747 [Eh]
	 SCS Correlation Energy    =      -2.2814908589179859 [Eh]
	 SCS Total Energy          =    -516.8635150976260775 [Eh]
	-----------------------------------------------------------

  Dipole Moment: [D]
     X:     0.9811      Y:    -3.8081      Z:     1.9439     Total:     4.3867

*** Psi4 exiting successfully. Buy a developer a beer!
