                               Psi4 1.3.2 release

  ==> Input File <==

--------------------------------------------------------------------------
#psi4
#
memory 32 gb

molecule  {
0 1
  O        0.9417500     2.5148810    -0.6596880
  N        2.0463840     0.6978680     0.1749460
  C        0.7564320    -1.5550710    -0.8733250
  C        1.8157710    -1.7711630     0.2163790
  C       -0.3047515    -0.7878474    -0.4118488
  C        2.0266990    -0.4897580     1.0228720
  C       -0.3650830     0.5850230    -0.0943830
  C        0.9119250     1.3593610    -0.2260870
  C       -1.6913630    -1.4231620    -0.2398970
  C       -1.5035900     1.3035830     0.2885800
  C       -2.8212120    -0.7143780     0.1714760
  C       -2.7281430     0.6547360     0.4326570
  H        0.4383490    -2.5216720    -1.2799980
  H        1.2165960    -1.0011160    -1.6986390
  H        1.5065410    -2.5704870     0.9013410
  H        2.7543720    -2.0878480    -0.2534440
  H        1.2290340    -0.3883270     1.7666860
  H        2.9729880    -0.5259550     1.5704730
  H        2.8793190     1.2773810     0.1528780
  H       -1.7755450    -2.4842720    -0.4701710
  H       -1.4080790     2.3720960     0.4641940
  H       -3.7741480    -1.2278540     0.2772780
  H       -3.6082280     1.2145190     0.7397060
units angstrom
no_reorient  #important for SAPT in psi4, default
symmetry c1  #important for SAPT in psi4, default
}

set PROPERTIES_ORIGIN ["COM"]
properties('MP2/aug-cc-pvtz', properties = ['dipole'])
--------------------------------------------------------------------------

    Molecular point group: c1
  Charge       = 0
  Multiplicity = 1
  Basis Set: AUG-CC-PVTZ
    Blend: AUG-CC-PVTZ
  Basis Set: (AUG-CC-PVTZ AUX)
    Blend: AUG-CC-PVTZ-JKFIT

    Orbital Energies [Eh]
    ---------------------

    Doubly Occupied:

       1A    -20.512765     2A    -15.582908     3A    -11.347155
       4A    -11.277116     5A    -11.268417     6A    -11.253382
       7A    -11.248786     8A    -11.247247     9A    -11.245116
      10A    -11.241419    11A    -11.239942    12A    -11.236517
      13A     -1.367370    14A     -1.236410    15A     -1.158677
      16A     -1.098778    17A     -1.038393    18A     -1.012496
      19A     -0.943142    20A     -0.879636    21A     -0.846190
      22A     -0.797133    23A     -0.769397    24A     -0.694845
      25A     -0.689081    26A     -0.677023    27A     -0.656350
      28A     -0.629931    29A     -0.613311    30A     -0.598549
      31A     -0.588966    32A     -0.573338    33A     -0.562825
      34A     -0.540159    35A     -0.522782    36A     -0.506693
      37A     -0.500370    38A     -0.484338    39A     -0.476545
      40A     -0.415609    41A     -0.389721    42A     -0.345941
      43A     -0.321040

  @DF-RHF Final Energy:  -514.56663708137080

   => Energetics <=

    Nuclear Repulsion Energy =            685.5174055154150210
    One-Electron Energy =               -2058.8964672530578355
    Two-Electron Energy =                 858.8124246562720145
    Total Energy =                       -514.5666370813707999
  Basis Set: (AUG-CC-PVTZ AUX)
    Blend: AUG-CC-PVTZ-RI
    Molecular point group: c1

    Geometry (in Angstrom), charge = 0, multiplicity = 1:

       Center              X                  Y                   Z               Mass
    ------------   -----------------  -----------------  -----------------  -----------------
         O            0.945913573580     2.465665741150    -0.644307792357    15.994914619570
         N            2.050547573580     0.648652741150     0.190326207643    14.003074004430
         C            0.760595573580    -1.604286258850    -0.857944792357    12.000000000000
         C            1.819934573580    -1.820378258850     0.231759207643    12.000000000000
         C           -0.300587926420    -0.837062658850    -0.396468592357    12.000000000000
         C            2.030862573580    -0.538973258850     1.038252207643    12.000000000000
         C           -0.360919426420     0.535807741150    -0.079002792357    12.000000000000
         C            0.916088573580     1.310145741150    -0.210706792357    12.000000000000
         C           -1.687199426420    -1.472377258850    -0.224516792357    12.000000000000
         C           -1.499426426420     1.254367741150     0.303960207643    12.000000000000
         C           -2.817048426420    -0.763593258850     0.186856207643    12.000000000000
         C           -2.723979426420     0.605520741150     0.448037207643    12.000000000000
         H            0.442512573580    -2.570887258850    -1.264617792357     1.007825032230
         H            1.220759573580    -1.050331258850    -1.683258792357     1.007825032230
         H            1.510704573580    -2.619702258850     0.916721207643     1.007825032230
         H            2.758535573580    -2.137063258850    -0.238063792357     1.007825032230
         H            1.233197573580    -0.437542258850     1.782066207643     1.007825032230
         H            2.977151573580    -0.575170258850     1.585853207643     1.007825032230
         H            2.883482573580     1.228165741150     0.168258207643     1.007825032230
         H           -1.771381426420    -2.533487258850    -0.454790792357     1.007825032230
         H           -1.403915426420     2.322880741150     0.479574207643     1.007825032230
         H           -3.769984426420    -1.277069258850     0.292658207643     1.007825032230
         H           -3.604064426420     1.165303741150     0.755086207643     1.007825032230

  Basis Set: AUG-CC-PVTZ
    Blend: AUG-CC-PVTZ
  Basis Set: (AUG-CC-PVTZ AUX)
    Blend: AUG-CC-PVTZ-JKFIT
	 Reference Energy          =    -514.5666370813707999 [Eh]
	 Singles Energy            =      -0.0000000000000000 [Eh]
	 Same-Spin Energy          =      -0.5609217876898507 [Eh]
	 Opposite-Spin Energy      =      -1.7481834864475942 [Eh]
	 Correlation Energy        =      -2.3091052741374449 [Eh]
	 Total Energy              =    -516.8757423555082369 [Eh]

	 ================> DF-SCS-MP2 Energies <==================
	-----------------------------------------------------------
	 SCS Same-Spin Scale       =       0.3333333333333333 [-]
	 SCS Opposite-Spin Scale   =       1.2000000000000000 [-]
	 SCS Same-Spin Energy      =      -0.1869739292299502 [Eh]
	 SCS Opposite-Spin Energy  =      -2.0978201837371131 [Eh]
	 SCS Correlation Energy    =      -2.2847941129670635 [Eh]
	 SCS Total Energy          =    -516.8514311943379198 [Eh]
	-----------------------------------------------------------

  Dipole Moment: [D]
     X:     0.7476      Y:    -3.7137      Z:     1.7285     Total:     4.1639

*** Psi4 exiting successfully. Buy a developer a beer!
