                               Psi4 1.3.2 release

  ==> Input File <==

--------------------------------------------------------------------------
#psi4
#
memory 32 gb

molecule  {
0 1
  O        0.9417500     2.5148810    -0.6596880
  N        2.1855536     0.7259766     0.2313063
  C        0.7564320    -1.5550710    -0.8733250
  C        1.8157710    -1.7711630     0.2163790
  C       -0.4497480    -0.7926040    -0.3845090
  C        2.0266990    -0.4897580     1.0228720
  C       -0.3650830     0.5850230    -0.0943830
  C        0.9119250     1.3593610    -0.2260870
  C       -1.6913630    -1.4231620    -0.2398970
  C       -1.5035900     1.3035830     0.2885800
  C       -2.8212120    -0.7143780     0.1714760
  C       -2.7281430     0.6547360     0.4326570
  H        0.4383490    -2.5216720    -1.2799980
  H        1.2165960    -1.0011160    -1.6986390
  H        1.5065410    -2.5704870     0.9013410
  H        2.7543720    -2.0878480    -0.2534440
  H        1.2290340    -0.3883270     1.7666860
  H        2.9729880    -0.5259550     1.5704730
  H        2.8793190     1.2773810     0.1528780
  H       -1.7755450    -2.4842720    -0.4701710
  H       -1.4080790     2.3720960     0.4641940
  H       -3.7741480    -1.2278540     0.2772780
  H       -3.6082280     1.2145190     0.7397060
units angstrom
no_reorient  #important for SAPT in psi4, default
symmetry c1  #important for SAPT in psi4, default
}

set PROPERTIES_ORIGIN ["COM"]
properties('MP2/aug-cc-pvtz', properties = ['dipole'])
--------------------------------------------------------------------------

    Molecular point group: c1
  Charge       = 0
  Multiplicity = 1
  Basis Set: AUG-CC-PVTZ
    Blend: AUG-CC-PVTZ
  Basis Set: (AUG-CC-PVTZ AUX)
    Blend: AUG-CC-PVTZ-JKFIT

    Orbital Energies [Eh]
    ---------------------

    Doubly Occupied:

       1A    -20.529484     2A    -15.565289     3A    -11.363892
       4A    -11.270628     5A    -11.261635     6A    -11.253677
       7A    -11.252282     8A    -11.250540     9A    -11.244115
      10A    -11.242806    11A    -11.239679    12A    -11.236391
      13A     -1.371416    14A     -1.221554    15A     -1.168194
      16A     -1.083049    17A     -1.039071    18A     -1.019772
      19A     -0.937220    20A     -0.880669    21A     -0.845157
      22A     -0.802595    23A     -0.776040    24A     -0.704082
      25A     -0.679093    26A     -0.674291    27A     -0.650241
      28A     -0.629296    29A     -0.614522    30A     -0.601256
      31A     -0.587069    32A     -0.581991    33A     -0.552212
      34A     -0.533120    35A     -0.523068    36A     -0.513654
      37A     -0.492715    38A     -0.491583    39A     -0.478303
      40A     -0.423137    41A     -0.385102    42A     -0.347709
      43A     -0.338533

  @DF-RHF Final Energy:  -514.56515639312727

   => Energetics <=

    Nuclear Repulsion Energy =            681.8712706821239635
    One-Electron Energy =               -2051.5605870906051678
    Two-Electron Energy =                 855.1241600153540503
    Total Energy =                       -514.5651563931272676
  Basis Set: (AUG-CC-PVTZ AUX)
    Blend: AUG-CC-PVTZ-RI
    Molecular point group: c1

    Geometry (in Angstrom), charge = 0, multiplicity = 1:

       Center              X                  Y                   Z               Mass
    ------------   -----------------  -----------------  -----------------  -----------------
         O            0.944617081533     2.463576598390    -0.651243891585    15.994914619570
         N            2.188420681533     0.674672198390     0.239750408415    14.003074004430
         C            0.759299081533    -1.606375401610    -0.864880891585    12.000000000000
         C            1.818638081533    -1.822467401610     0.224823108415    12.000000000000
         C           -0.446880918467    -0.843908401610    -0.376064891585    12.000000000000
         C            2.029566081533    -0.541062401610     1.031316108415    12.000000000000
         C           -0.362215918467     0.533718598390    -0.085938891585    12.000000000000
         C            0.914792081533     1.308056598390    -0.217642891585    12.000000000000
         C           -1.688495918467    -1.474466401610    -0.231452891585    12.000000000000
         C           -1.500722918467     1.252278598390     0.297024108415    12.000000000000
         C           -2.818344918467    -0.765682401610     0.179920108415    12.000000000000
         C           -2.725275918467     0.603431598390     0.441101108415    12.000000000000
         H            0.441216081533    -2.572976401610    -1.271553891585     1.007825032230
         H            1.219463081533    -1.052420401610    -1.690194891585     1.007825032230
         H            1.509408081533    -2.621791401610     0.909785108415     1.007825032230
         H            2.757239081533    -2.139152401610    -0.244999891585     1.007825032230
         H            1.231901081533    -0.439631401610     1.775130108415     1.007825032230
         H            2.975855081533    -0.577259401610     1.578917108415     1.007825032230
         H            2.882186081533     1.226076598390     0.161322108415     1.007825032230
         H           -1.772677918467    -2.535576401610    -0.461726891585     1.007825032230
         H           -1.405211918467     2.320791598390     0.472638108415     1.007825032230
         H           -3.771280918467    -1.279158401610     0.285722108415     1.007825032230
         H           -3.605360918467     1.163214598390     0.748150108415     1.007825032230

  Basis Set: AUG-CC-PVTZ
    Blend: AUG-CC-PVTZ
  Basis Set: (AUG-CC-PVTZ AUX)
    Blend: AUG-CC-PVTZ-JKFIT
	 Reference Energy          =    -514.5651563931272676 [Eh]
	 Singles Energy            =      -0.0000000000000000 [Eh]
	 Same-Spin Energy          =      -0.5581388560636444 [Eh]
	 Opposite-Spin Energy      =      -1.7453107545216513 [Eh]
	 Correlation Energy        =      -2.3034496105852957 [Eh]
	 Total Energy              =    -516.8686060037125571 [Eh]

	 ================> DF-SCS-MP2 Energies <==================
	-----------------------------------------------------------
	 SCS Same-Spin Scale       =       0.3333333333333333 [-]
	 SCS Opposite-Spin Scale   =       1.2000000000000000 [-]
	 SCS Same-Spin Energy      =      -0.1860462853545481 [Eh]
	 SCS Opposite-Spin Energy  =      -2.0943729054259816 [Eh]
	 SCS Correlation Energy    =      -2.2804191907805298 [Eh]
	 SCS Total Energy          =    -516.8455755839078165 [Eh]
	-----------------------------------------------------------

  Dipole Moment: [D]
     X:     0.0006      Y:    -3.3784      Z:     1.4928     Total:     3.6936

*** Psi4 exiting successfully. Buy a developer a beer!
