                               Psi4 1.4a2.dev612

  ==> Input File <==

--------------------------------------------------------------------------
#psi4
#
memory 32 gb

molecule  {
0 1
  O        0.9417500     2.5148810    -0.6596880
  N        2.0463840     0.6978680     0.1749460
  C        0.7415929    -1.5745354    -0.8624299
  C        1.8157710    -1.7711630     0.2163790
  C       -0.4497480    -0.7926040    -0.3845090
  C        2.0266990    -0.4897580     1.0228720
  C       -0.3650830     0.5850230    -0.0943830
  C        0.9119250     1.3593610    -0.2260870
  C       -1.6913630    -1.4231620    -0.2398970
  C       -1.5035900     1.3035830     0.2885800
  C       -2.8212120    -0.7143780     0.1714760
  C       -2.7281430     0.6547360     0.4326570
  H        0.4383490    -2.5216720    -1.2799980
  H        1.2165960    -1.0011160    -1.6986390
  H        1.5065410    -2.5704870     0.9013410
  H        2.7543720    -2.0878480    -0.2534440
  H        1.2290340    -0.3883270     1.7666860
  H        2.9729880    -0.5259550     1.5704730
  H        2.8793190     1.2773810     0.1528780
  H       -1.7755450    -2.4842720    -0.4701710
  H       -1.4080790     2.3720960     0.4641940
  H       -3.7741480    -1.2278540     0.2772780
  H       -3.6082280     1.2145190     0.7397060
units angstrom
no_reorient  #important for SAPT in psi4, default
symmetry c1  #important for SAPT in psi4, default
}

set PROPERTIES_ORIGIN ["COM"]
properties('MP2/aug-cc-pvtz', properties = ['dipole'])
--------------------------------------------------------------------------

    Molecular point group: c1
  Charge       = 0
  Multiplicity = 1
  Basis Set: AUG-CC-PVTZ
    Blend: AUG-CC-PVTZ
  Basis Set: (AUG-CC-PVTZ AUX)
    Blend: AUG-CC-PVTZ-JKFIT

    Orbital Energies [Eh]
    ---------------------

    Doubly Occupied:

       1A    -20.515080     2A    -15.582715     3A    -11.351436
       4A    -11.276133     5A    -11.258277     6A    -11.248713
       7A    -11.247502     8A    -11.245748     9A    -11.241397
      10A    -11.239768    11A    -11.239687    12A    -11.238028
      13A     -1.368993    14A     -1.234736    15A     -1.164467
      16A     -1.082640    17A     -1.036732    18A     -1.020874
      19A     -0.938415    20A     -0.882013    21A     -0.841122
      22A     -0.798303    23A     -0.776293    24A     -0.696571
      25A     -0.686323    26A     -0.672097    27A     -0.651703
      28A     -0.624301    29A     -0.616358    30A     -0.599988
      31A     -0.587180    32A     -0.575218    33A     -0.558841
      34A     -0.534729    35A     -0.517809    36A     -0.510067
      37A     -0.496085    38A     -0.487172    39A     -0.478534
      40A     -0.423256    41A     -0.389390    42A     -0.343927
      43A     -0.335647

  @DF-RHF Final Energy:  -514.59589883534534

   => Energetics <=

    Nuclear Repulsion Energy =            685.0635690500806732
    One-Electron Energy =               -2058.0903950029874068
    Two-Electron Energy =                 858.4309271175612821
    Total Energy =                       -514.5958988353453378
  Basis Set: (AUG-CC-PVTZ AUX)
    Blend: AUG-CC-PVTZ-RI
    Molecular point group: c1

    Geometry (in Angstrom), charge = 0, multiplicity = 1:

       Center              X                  Y                   Z               Mass
    ------------   -----------------  -----------------  -----------------  -----------------
         O            0.957820568926     2.467470090959    -0.647156111356    15.994914619570
         N            2.062454568926     0.650457090959     0.187477888644    14.003074004430
         C            0.757663468926    -1.621946309041    -0.849898011356    12.000000000000
         C            1.831841568926    -1.818573909041     0.228910888644    12.000000000000
         C           -0.433677431074    -0.840014909041    -0.371977111356    12.000000000000
         C            2.042769568926    -0.537168909041     1.035403888644    12.000000000000
         C           -0.349012431074     0.537612090959    -0.081851111356    12.000000000000
         C            0.927995568926     1.311950090959    -0.213555111356    12.000000000000
         C           -1.675292431074    -1.470572909041    -0.227365111356    12.000000000000
         C           -1.487519431074     1.256172090959     0.301111888644    12.000000000000
         C           -2.805141431074    -0.761788909041     0.184007888644    12.000000000000
         C           -2.712072431074     0.607325090959     0.445188888644    12.000000000000
         H            0.454419568926    -2.569082909041    -1.267466111356     1.007825032230
         H            1.232666568926    -1.048526909041    -1.686107111356     1.007825032230
         H            1.522611568926    -2.617897909041     0.913872888644     1.007825032230
         H            2.770442568926    -2.135258909041    -0.240912111356     1.007825032230
         H            1.245104568926    -0.435737909041     1.779217888644     1.007825032230
         H            2.989058568926    -0.573365909041     1.583004888644     1.007825032230
         H            2.895389568926     1.229970090959     0.165409888644     1.007825032230
         H           -1.759474431074    -2.531682909041    -0.457639111356     1.007825032230
         H           -1.392008431074     2.324685090959     0.476725888644     1.007825032230
         H           -3.758077431074    -1.275264909041     0.289809888644     1.007825032230
         H           -3.592157431074     1.167108090959     0.752237888644     1.007825032230

  Basis Set: AUG-CC-PVTZ
    Blend: AUG-CC-PVTZ
  Basis Set: (AUG-CC-PVTZ AUX)
    Blend: AUG-CC-PVTZ-JKFIT
	 Reference Energy          =    -514.5958988353453378 [Eh]
	 Singles Energy            =      -0.0000000000000000 [Eh]
	 Same-Spin Energy          =      -0.5586796597266026 [Eh]
	 Opposite-Spin Energy      =      -1.7444126041172150 [Eh]
	 Correlation Energy        =      -2.3030922638438174 [Eh]
	 Total Energy              =    -516.8989910991891747 [Eh]

	 ================> DF-SCS-MP2 Energies <==================
	-----------------------------------------------------------
	 SCS Same-Spin Scale       =       0.3333333333333333 [-]
	 SCS Opposite-Spin Scale   =       1.2000000000000000 [-]
	 SCS Same-Spin Energy      =      -0.1862265532422009 [Eh]
	 SCS Opposite-Spin Energy  =      -2.0932951249406577 [Eh]
	 SCS Correlation Energy    =      -2.2795216781828587 [Eh]
	 SCS Total Energy          =    -516.8754205135281836 [Eh]
	-----------------------------------------------------------

  Dipole Moment: [D]
     X:     0.6291      Y:    -3.6268      Z:     1.7747     Total:     4.0865

*** Psi4 exiting successfully. Buy a developer a beer!
