                               Psi4 1.3.2 release

  ==> Input File <==

--------------------------------------------------------------------------
#psi4
#
memory 32 gb

molecule  {
0 1
  O        0.9417500     2.5148810    -0.6596880
  N        2.0463840     0.6978680     0.1749460
  C        0.7564320    -1.5550710    -0.8733250
  C        1.9021833    -1.8485311     0.1051866
  C       -0.4497480    -0.7926040    -0.3845090
  C        2.0266990    -0.4897580     1.0228720
  C       -0.3650830     0.5850230    -0.0943830
  C        0.9119250     1.3593610    -0.2260870
  C       -1.6913630    -1.4231620    -0.2398970
  C       -1.5035900     1.3035830     0.2885800
  C       -2.8212120    -0.7143780     0.1714760
  C       -2.7281430     0.6547360     0.4326570
  H        0.4383490    -2.5216720    -1.2799980
  H        1.2165960    -1.0011160    -1.6986390
  H        1.5065410    -2.5704870     0.9013410
  H        2.7543720    -2.0878480    -0.2534440
  H        1.2290340    -0.3883270     1.7666860
  H        2.9729880    -0.5259550     1.5704730
  H        2.8793190     1.2773810     0.1528780
  H       -1.7755450    -2.4842720    -0.4701710
  H       -1.4080790     2.3720960     0.4641940
  H       -3.7741480    -1.2278540     0.2772780
  H       -3.6082280     1.2145190     0.7397060
units angstrom
no_reorient  #important for SAPT in psi4, default
symmetry c1  #important for SAPT in psi4, default
}

set PROPERTIES_ORIGIN ["COM"]
properties('MP2/aug-cc-pvtz', properties = ['dipole'])
--------------------------------------------------------------------------

    Molecular point group: c1
  Charge       = 0
  Multiplicity = 1
  Basis Set: AUG-CC-PVTZ
    Blend: AUG-CC-PVTZ
  Basis Set: (AUG-CC-PVTZ AUX)
    Blend: AUG-CC-PVTZ-JKFIT

    Orbital Energies [Eh]
    ---------------------

    Doubly Occupied:

       1A    -20.514683     2A    -15.582103     3A    -11.351010
       4A    -11.279530     5A    -11.260549     6A    -11.249180
       7A    -11.247913     8A    -11.245788     9A    -11.242990
      10A    -11.240746    11A    -11.239576    12A    -11.236841
      13A     -1.368570    14A     -1.231646    15A     -1.164544
      16A     -1.078668    17A     -1.036080    18A     -1.017344
      19A     -0.932896    20A     -0.884528    21A     -0.849429
      22A     -0.802703    23A     -0.775334    24A     -0.698299
      25A     -0.682805    26A     -0.671338    27A     -0.650359
      28A     -0.627582    29A     -0.620807    30A     -0.596169
      31A     -0.586431    32A     -0.574951    33A     -0.562937
      34A     -0.540145    35A     -0.518050    36A     -0.507123
      37A     -0.496784    38A     -0.484831    39A     -0.469376
      40A     -0.423131    41A     -0.381799    42A     -0.344110
      43A     -0.336893

  @DF-RHF Final Energy:  -514.56643676429337

   => Energetics <=

    Nuclear Repulsion Energy =            683.0967116033267530
    One-Electron Energy =               -2054.1131474246467405
    Two-Electron Energy =                 856.4499990570267300
    Total Energy =                       -514.5664367642933712
  Basis Set: (AUG-CC-PVTZ AUX)
    Blend: AUG-CC-PVTZ-RI
    Molecular point group: c1

    Geometry (in Angstrom), charge = 0, multiplicity = 1:

       Center              X                  Y                   Z               Mass
    ------------   -----------------  -----------------  -----------------  -----------------
         O            0.950277819072     2.471783642423    -0.638061170716    15.994914619570
         N            2.054911819072     0.654770642423     0.196572829284    14.003074004430
         C            0.764959819072    -1.598168357577    -0.851698170716    12.000000000000
         C            1.910711119072    -1.891628457577     0.126813429284    12.000000000000
         C           -0.441220180928    -0.835701357577    -0.362882170716    12.000000000000
         C            2.035226819072    -0.532855357577     1.044498829284    12.000000000000
         C           -0.356555180928     0.541925642423    -0.072756170716    12.000000000000
         C            0.920452819072     1.316263642423    -0.204460170716    12.000000000000
         C           -1.682835180928    -1.466259357577    -0.218270170716    12.000000000000
         C           -1.495062180928     1.260485642423     0.310206829284    12.000000000000
         C           -2.812684180928    -0.757475357577     0.193102829284    12.000000000000
         C           -2.719615180928     0.611638642423     0.454283829284    12.000000000000
         H            0.446876819072    -2.564769357577    -1.258371170716     1.007825032230
         H            1.225123819072    -1.044213357577    -1.677012170716     1.007825032230
         H            1.515068819072    -2.613584357577     0.922967829284     1.007825032230
         H            2.762899819072    -2.130945357577    -0.231817170716     1.007825032230
         H            1.237561819072    -0.431424357577     1.788312829284     1.007825032230
         H            2.981515819072    -0.569052357577     1.592099829284     1.007825032230
         H            2.887846819072     1.234283642423     0.174504829284     1.007825032230
         H           -1.767017180928    -2.527369357577    -0.448544170716     1.007825032230
         H           -1.399551180928     2.328998642423     0.485820829284     1.007825032230
         H           -3.765620180928    -1.270951357577     0.298904829284     1.007825032230
         H           -3.599700180928     1.171421642423     0.761332829284     1.007825032230

  Basis Set: AUG-CC-PVTZ
    Blend: AUG-CC-PVTZ
  Basis Set: (AUG-CC-PVTZ AUX)
    Blend: AUG-CC-PVTZ-JKFIT
	 Reference Energy          =    -514.5664367642933712 [Eh]
	 Singles Energy            =      -0.0000000000000000 [Eh]
	 Same-Spin Energy          =      -0.5588231879811457 [Eh]
	 Opposite-Spin Energy      =      -1.7457215479101318 [Eh]
	 Correlation Energy        =      -2.3045447358912776 [Eh]
	 Total Energy              =    -516.8709815001845982 [Eh]

	 ================> DF-SCS-MP2 Energies <==================
	-----------------------------------------------------------
	 SCS Same-Spin Scale       =       0.3333333333333333 [-]
	 SCS Opposite-Spin Scale   =       1.2000000000000000 [-]
	 SCS Same-Spin Energy      =      -0.1862743959937152 [Eh]
	 SCS Opposite-Spin Energy  =      -2.0948658574921581 [Eh]
	 SCS Correlation Energy    =      -2.2811402534858733 [Eh]
	 SCS Total Energy          =    -516.8475770177792583 [Eh]
	-----------------------------------------------------------

  Dipole Moment: [D]
     X:     0.6511      Y:    -3.5532      Z:     1.7551     Total:     4.0162

*** Psi4 exiting successfully. Buy a developer a beer!
