                               Psi4 1.3.2 release

  ==> Input File <==

--------------------------------------------------------------------------
#psi4
#
memory 32 gb

molecule  {
0 1
  O        0.9417500     2.5148810    -0.6596880
  N        2.0463840     0.6978680     0.1749460
  C        0.7801908    -1.7084220    -0.9149861
  C        1.8157710    -1.7711630     0.2163790
  C       -0.4497480    -0.7926040    -0.3845090
  C        2.0266990    -0.4897580     1.0228720
  C       -0.3650830     0.5850230    -0.0943830
  C        0.9119250     1.3593610    -0.2260870
  C       -1.6913630    -1.4231620    -0.2398970
  C       -1.5035900     1.3035830     0.2885800
  C       -2.8212120    -0.7143780     0.1714760
  C       -2.7281430     0.6547360     0.4326570
  H        0.4383490    -2.5216720    -1.2799980
  H        1.2165960    -1.0011160    -1.6986390
  H        1.5065410    -2.5704870     0.9013410
  H        2.7543720    -2.0878480    -0.2534440
  H        1.2290340    -0.3883270     1.7666860
  H        2.9729880    -0.5259550     1.5704730
  H        2.8793190     1.2773810     0.1528780
  H       -1.7755450    -2.4842720    -0.4701710
  H       -1.4080790     2.3720960     0.4641940
  H       -3.7741480    -1.2278540     0.2772780
  H       -3.6082280     1.2145190     0.7397060
units angstrom
no_reorient  #important for SAPT in psi4, default
symmetry c1  #important for SAPT in psi4, default
}

set PROPERTIES_ORIGIN ["COM"]
properties('MP2/aug-cc-pvtz', properties = ['dipole'])
--------------------------------------------------------------------------

    Molecular point group: c1
  Charge       = 0
  Multiplicity = 1
  Basis Set: AUG-CC-PVTZ
    Blend: AUG-CC-PVTZ
  Basis Set: (AUG-CC-PVTZ AUX)
    Blend: AUG-CC-PVTZ-JKFIT

    Orbital Energies [Eh]
    ---------------------

    Doubly Occupied:

       1A    -20.514898     2A    -15.583173     3A    -11.351197
       4A    -11.279156     5A    -11.262193     6A    -11.247960
       7A    -11.247664     8A    -11.245726     9A    -11.241259
      10A    -11.239356    11A    -11.238727    12A    -11.238516
      13A     -1.368806    14A     -1.234127    15A     -1.160447
      16A     -1.077759    17A     -1.035095    18A     -1.018235
      19A     -0.945134    20A     -0.880128    21A     -0.835305
      22A     -0.807077    23A     -0.775794    24A     -0.695205
      25A     -0.692947    26A     -0.667873    27A     -0.650814
      28A     -0.626022    29A     -0.614894    30A     -0.600364
      31A     -0.587406    32A     -0.582627    33A     -0.557183
      34A     -0.533100    35A     -0.518524    36A     -0.512430
      37A     -0.507544    38A     -0.485151    39A     -0.455039
      40A     -0.422090    41A     -0.389605    42A     -0.343272
      43A     -0.335510

  @DF-RHF Final Energy:  -514.56777392992456

   => Energetics <=

    Nuclear Repulsion Energy =            682.3969406678796759
    One-Electron Energy =               -2052.7187688435283235
    Two-Electron Energy =                 855.7540542457239781
    Total Energy =                       -514.5677739299245559
  Basis Set: (AUG-CC-PVTZ AUX)
    Blend: AUG-CC-PVTZ-RI
    Molecular point group: c1

    Geometry (in Angstrom), charge = 0, multiplicity = 1:

       Center              X                  Y                   Z               Mass
    ------------   -----------------  -----------------  -----------------  -----------------
         O            0.954945208145     2.477444008678    -0.643240923321    15.994914619570
         N            2.059579208145     0.660431008678     0.191393076679    14.003074004430
         C            0.793386008145    -1.745858991322    -0.898539023321    12.000000000000
         C            1.828966208145    -1.808599991322     0.232826076679    12.000000000000
         C           -0.436552791855    -0.830040991322    -0.368061923321    12.000000000000
         C            2.039894208145    -0.527194991322     1.039319076679    12.000000000000
         C           -0.351887791855     0.547586008678    -0.077935923321    12.000000000000
         C            0.925120208145     1.321924008678    -0.209639923321    12.000000000000
         C           -1.678167791855    -1.460598991322    -0.223449923321    12.000000000000
         C           -1.490394791855     1.266146008678     0.305027076679    12.000000000000
         C           -2.808016791855    -0.751814991322     0.187923076679    12.000000000000
         C           -2.714947791855     0.617299008678     0.449104076679    12.000000000000
         H            0.451544208145    -2.559108991322    -1.263550923321     1.007825032230
         H            1.229791208145    -1.038552991322    -1.682191923321     1.007825032230
         H            1.519736208145    -2.607923991322     0.917788076679     1.007825032230
         H            2.767567208145    -2.125284991322    -0.236996923321     1.007825032230
         H            1.242229208145    -0.425763991322     1.783133076679     1.007825032230
         H            2.986183208145    -0.563391991322     1.586920076679     1.007825032230
         H            2.892514208145     1.239944008678     0.169325076679     1.007825032230
         H           -1.762349791855    -2.521708991322    -0.453723923321     1.007825032230
         H           -1.394883791855     2.334659008678     0.480641076679     1.007825032230
         H           -3.760952791855    -1.265290991322     0.293725076679     1.007825032230
         H           -3.595032791855     1.177082008678     0.756153076679     1.007825032230

  Basis Set: AUG-CC-PVTZ
    Blend: AUG-CC-PVTZ
  Basis Set: (AUG-CC-PVTZ AUX)
    Blend: AUG-CC-PVTZ-JKFIT
	 Reference Energy          =    -514.5677739299245559 [Eh]
	 Singles Energy            =      -0.0000000000000000 [Eh]
	 Same-Spin Energy          =      -0.5581307346000078 [Eh]
	 Opposite-Spin Energy      =      -1.7446561342432125 [Eh]
	 Correlation Energy        =      -2.3027868688432203 [Eh]
	 Total Energy              =    -516.8705607987677695 [Eh]

	 ================> DF-SCS-MP2 Energies <==================
	-----------------------------------------------------------
	 SCS Same-Spin Scale       =       0.3333333333333333 [-]
	 SCS Opposite-Spin Scale   =       1.2000000000000000 [-]
	 SCS Same-Spin Energy      =      -0.1860435782000026 [Eh]
	 SCS Opposite-Spin Energy  =      -2.0935873610918549 [Eh]
	 SCS Correlation Energy    =      -2.2796309392918577 [Eh]
	 SCS Total Energy          =    -516.8474048692164615 [Eh]
	-----------------------------------------------------------

  Dipole Moment: [D]
     X:     0.6358      Y:    -3.6489      Z:     1.7844     Total:     4.1113

*** Psi4 exiting successfully. Buy a developer a beer!
