                               Psi4 1.3.2 release

  ==> Input File <==

--------------------------------------------------------------------------
#psi4
#
memory 32 gb

molecule  {
0 1
  O        0.9417500     2.5148810    -0.6596880
  N        2.0463840     0.6978680     0.1749460
  C        0.7564320    -1.5550710    -0.8733250
  C        1.7925099    -1.7615114     0.2075689
  C       -0.4497480    -0.7926040    -0.3845090
  C        2.0266990    -0.4897580     1.0228720
  C       -0.3650830     0.5850230    -0.0943830
  C        0.9119250     1.3593610    -0.2260870
  C       -1.6913630    -1.4231620    -0.2398970
  C       -1.5035900     1.3035830     0.2885800
  C       -2.8212120    -0.7143780     0.1714760
  C       -2.7281430     0.6547360     0.4326570
  H        0.4383490    -2.5216720    -1.2799980
  H        1.2165960    -1.0011160    -1.6986390
  H        1.5065410    -2.5704870     0.9013410
  H        2.7543720    -2.0878480    -0.2534440
  H        1.2290340    -0.3883270     1.7666860
  H        2.9729880    -0.5259550     1.5704730
  H        2.8793190     1.2773810     0.1528780
  H       -1.7755450    -2.4842720    -0.4701710
  H       -1.4080790     2.3720960     0.4641940
  H       -3.7741480    -1.2278540     0.2772780
  H       -3.6082280     1.2145190     0.7397060
units angstrom
no_reorient  #important for SAPT in psi4, default
symmetry c1  #important for SAPT in psi4, default
}

set PROPERTIES_ORIGIN ["COM"]
properties('MP2/aug-cc-pvtz', properties = ['dipole'])
--------------------------------------------------------------------------

    Molecular point group: c1
  Charge       = 0
  Multiplicity = 1
  Basis Set: AUG-CC-PVTZ
    Blend: AUG-CC-PVTZ
  Basis Set: (AUG-CC-PVTZ AUX)
    Blend: AUG-CC-PVTZ-JKFIT

    Orbital Energies [Eh]
    ---------------------

    Doubly Occupied:

       1A    -20.515207     2A    -15.582605     3A    -11.351521
       4A    -11.275872     5A    -11.258273     6A    -11.248899
       7A    -11.247324     8A    -11.245647     9A    -11.241847
      10A    -11.239914    11A    -11.239151    12A    -11.238427
      13A     -1.369125    14A     -1.235164    15A     -1.164536
      16A     -1.084946    17A     -1.036769    18A     -1.020516
      19A     -0.939862    20A     -0.881404    21A     -0.840520
      22A     -0.797446    23A     -0.776578    24A     -0.696994
      25A     -0.686042    26A     -0.672293    27A     -0.652853
      28A     -0.623780    29A     -0.616018    30A     -0.599974
      31A     -0.587657    32A     -0.576833    33A     -0.556360
      34A     -0.536460    35A     -0.519007    36A     -0.510264
      37A     -0.495692    38A     -0.488867    39A     -0.475176
      40A     -0.423398    41A     -0.389107    42A     -0.343961
      43A     -0.336564

  @DF-RHF Final Energy:  -514.59569557643590

   => Energetics <=

    Nuclear Repulsion Energy =            685.5800261726682265
    One-Electron Energy =               -2059.1137330489164015
    Two-Electron Energy =                 858.9380112998123877
    Total Energy =                       -514.5956955764359009
  Basis Set: (AUG-CC-PVTZ AUX)
    Blend: AUG-CC-PVTZ-RI
    Molecular point group: c1

    Geometry (in Angstrom), charge = 0, multiplicity = 1:

       Center              X                  Y                   Z               Mass
    ------------   -----------------  -----------------  -----------------  -----------------
         O            0.958447968046     2.465301086829    -0.645688167265    15.994914619570
         N            2.063081968046     0.648288086829     0.188945832735    14.003074004430
         C            0.773129968046    -1.604650913171    -0.859325167265    12.000000000000
         C            1.809207868046    -1.811091313171     0.221568732735    12.000000000000
         C           -0.433050031954    -0.842183913171    -0.370509167265    12.000000000000
         C            2.043396968046    -0.539337913171     1.036871832735    12.000000000000
         C           -0.348385031954     0.535443086829    -0.080383167265    12.000000000000
         C            0.928622968046     1.309781086829    -0.212087167265    12.000000000000
         C           -1.674665031954    -1.472741913171    -0.225897167265    12.000000000000
         C           -1.486892031954     1.254003086829     0.302579832735    12.000000000000
         C           -2.804514031954    -0.763957913171     0.185475832735    12.000000000000
         C           -2.711445031954     0.605156086829     0.446656832735    12.000000000000
         H            0.455046968046    -2.571251913171    -1.265998167265     1.007825032230
         H            1.233293968046    -1.050695913171    -1.684639167265     1.007825032230
         H            1.523238968046    -2.620066913171     0.915340832735     1.007825032230
         H            2.771069968046    -2.137427913171    -0.239444167265     1.007825032230
         H            1.245731968046    -0.437906913171     1.780685832735     1.007825032230
         H            2.989685968046    -0.575534913171     1.584472832735     1.007825032230
         H            2.896016968046     1.227801086829     0.166877832735     1.007825032230
         H           -1.758847031954    -2.533851913171    -0.456171167265     1.007825032230
         H           -1.391381031954     2.322516086829     0.478193832735     1.007825032230
         H           -3.757450031954    -1.277433913171     0.291277832735     1.007825032230
         H           -3.591530031954     1.164939086829     0.753705832735     1.007825032230

  Basis Set: AUG-CC-PVTZ
    Blend: AUG-CC-PVTZ
  Basis Set: (AUG-CC-PVTZ AUX)
    Blend: AUG-CC-PVTZ-JKFIT
	 Reference Energy          =    -514.5956955764359009 [Eh]
	 Singles Energy            =      -0.0000000000000000 [Eh]
	 Same-Spin Energy          =      -0.5587967762906274 [Eh]
	 Opposite-Spin Energy      =      -1.7445506647458195 [Eh]
	 Correlation Energy        =      -2.3033474410364470 [Eh]
	 Total Energy              =    -516.8990430174723087 [Eh]

	 ================> DF-SCS-MP2 Energies <==================
	-----------------------------------------------------------
	 SCS Same-Spin Scale       =       0.3333333333333333 [-]
	 SCS Opposite-Spin Scale   =       1.2000000000000000 [-]
	 SCS Same-Spin Energy      =      -0.1862655920968758 [Eh]
	 SCS Opposite-Spin Energy  =      -2.0934607976949833 [Eh]
	 SCS Correlation Energy    =      -2.2797263897918589 [Eh]
	 SCS Total Energy          =    -516.8754219662278047 [Eh]
	-----------------------------------------------------------

  Dipole Moment: [D]
     X:     0.6150      Y:    -3.6064      Z:     1.7683     Total:     4.0634

*** Psi4 exiting successfully. Buy a developer a beer!
