                               Psi4 1.3.2 release

  ==> Input File <==

--------------------------------------------------------------------------
#psi4
#
memory 32 gb

molecule  {
0 1
  O        0.9417500     2.5148810    -0.6596880
  N        2.0463840     0.6978680     0.1749460
  C        0.6635709    -1.6826753    -0.8779270
  C        1.8157710    -1.7711630     0.2163790
  C       -0.4497480    -0.7926040    -0.3845090
  C        2.0266990    -0.4897580     1.0228720
  C       -0.3650830     0.5850230    -0.0943830
  C        0.9119250     1.3593610    -0.2260870
  C       -1.6913630    -1.4231620    -0.2398970
  C       -1.5035900     1.3035830     0.2885800
  C       -2.8212120    -0.7143780     0.1714760
  C       -2.7281430     0.6547360     0.4326570
  H        0.4383490    -2.5216720    -1.2799980
  H        1.2165960    -1.0011160    -1.6986390
  H        1.5065410    -2.5704870     0.9013410
  H        2.7543720    -2.0878480    -0.2534440
  H        1.2290340    -0.3883270     1.7666860
  H        2.9729880    -0.5259550     1.5704730
  H        2.8793190     1.2773810     0.1528780
  H       -1.7755450    -2.4842720    -0.4701710
  H       -1.4080790     2.3720960     0.4641940
  H       -3.7741480    -1.2278540     0.2772780
  H       -3.6082280     1.2145190     0.7397060
units angstrom
no_reorient  #important for SAPT in psi4, default
symmetry c1  #important for SAPT in psi4, default
}

set PROPERTIES_ORIGIN ["COM"]
properties('MP2/aug-cc-pvtz', properties = ['dipole'])
--------------------------------------------------------------------------

    Molecular point group: c1
  Charge       = 0
  Multiplicity = 1
  Basis Set: AUG-CC-PVTZ
    Blend: AUG-CC-PVTZ
  Basis Set: (AUG-CC-PVTZ AUX)
    Blend: AUG-CC-PVTZ-JKFIT

    Orbital Energies [Eh]
    ---------------------

    Doubly Occupied:

       1A    -20.514842     2A    -15.582894     3A    -11.351373
       4A    -11.278338     5A    -11.260674     6A    -11.249353
       7A    -11.248132     8A    -11.246939     9A    -11.241652
      10A    -11.241167    11A    -11.239324    12A    -11.239141
      13A     -1.368778    14A     -1.233928    15A     -1.164669
      16A     -1.079015    17A     -1.036198    18A     -1.020108
      19A     -0.942413    20A     -0.882858    21A     -0.837905
      22A     -0.806349    23A     -0.776305    24A     -0.696779
      25A     -0.691526    26A     -0.672681    27A     -0.647963
      28A     -0.630742    29A     -0.615861    30A     -0.600370
      31A     -0.585338    32A     -0.575238    33A     -0.565688
      34A     -0.532416    35A     -0.514286    36A     -0.512567
      37A     -0.507665    38A     -0.474723    39A     -0.468582
      40A     -0.422579    41A     -0.389368    42A     -0.344245
      43A     -0.332356

  @DF-RHF Final Energy:  -514.56655017980347

   => Energetics <=

    Nuclear Repulsion Energy =            683.6715765567944345
    One-Electron Energy =               -2055.2296008199609787
    Two-Electron Energy =                 856.9914740833630731
    Total Energy =                       -514.5665501798034711
  Basis Set: (AUG-CC-PVTZ AUX)
    Blend: AUG-CC-PVTZ-RI
    Molecular point group: c1

    Geometry (in Angstrom), charge = 0, multiplicity = 1:

       Center              X                  Y                   Z               Mass
    ------------   -----------------  -----------------  -----------------  -----------------
         O            0.963632838475     2.475526001444    -0.646001650788    15.994914619570
         N            2.068266838475     0.658513001444     0.188632349212    14.003074004430
         C            0.685453738475    -1.722030298556    -0.864240650788    12.000000000000
         C            1.837653838475    -1.810517998556     0.230065349212    12.000000000000
         C           -0.427865161525    -0.831958998556    -0.370822650788    12.000000000000
         C            2.048581838475    -0.529112998556     1.036558349212    12.000000000000
         C           -0.343200161525     0.545668001444    -0.080696650788    12.000000000000
         C            0.933807838475     1.320006001444    -0.212400650788    12.000000000000
         C           -1.669480161525    -1.462516998556    -0.226210650788    12.000000000000
         C           -1.481707161525     1.264228001444     0.302266349212    12.000000000000
         C           -2.799329161525    -0.753732998556     0.185162349212    12.000000000000
         C           -2.706260161525     0.615381001444     0.446343349212    12.000000000000
         H            0.460231838475    -2.561026998556    -1.266311650788     1.007825032230
         H            1.238478838475    -1.040470998556    -1.684952650788     1.007825032230
         H            1.528423838475    -2.609841998556     0.915027349212     1.007825032230
         H            2.776254838475    -2.127202998556    -0.239757650788     1.007825032230
         H            1.250916838475    -0.427681998556     1.780372349212     1.007825032230
         H            2.994870838475    -0.565309998556     1.584159349212     1.007825032230
         H            2.901201838475     1.238026001444     0.166564349212     1.007825032230
         H           -1.753662161525    -2.523626998556    -0.456484650788     1.007825032230
         H           -1.386196161525     2.332741001444     0.477880349212     1.007825032230
         H           -3.752265161525    -1.267208998556     0.290964349212     1.007825032230
         H           -3.586345161525     1.175164001444     0.753392349212     1.007825032230

  Basis Set: AUG-CC-PVTZ
    Blend: AUG-CC-PVTZ
  Basis Set: (AUG-CC-PVTZ AUX)
    Blend: AUG-CC-PVTZ-JKFIT
	 Reference Energy          =    -514.5665501798034711 [Eh]
	 Singles Energy            =      -0.0000000000000000 [Eh]
	 Same-Spin Energy          =      -0.5587437634800423 [Eh]
	 Opposite-Spin Energy      =      -1.7453633480346367 [Eh]
	 Correlation Energy        =      -2.3041071115146790 [Eh]
	 Total Energy              =    -516.8706572913181390 [Eh]

	 ================> DF-SCS-MP2 Energies <==================
	-----------------------------------------------------------
	 SCS Same-Spin Scale       =       0.3333333333333333 [-]
	 SCS Opposite-Spin Scale   =       1.2000000000000000 [-]
	 SCS Same-Spin Energy      =      -0.1862479211600141 [Eh]
	 SCS Opposite-Spin Energy  =      -2.0944360176415637 [Eh]
	 SCS Correlation Energy    =      -2.2806839388015776 [Eh]
	 SCS Total Energy          =    -516.8472341186050016 [Eh]
	-----------------------------------------------------------

  Dipole Moment: [D]
     X:     0.6261      Y:    -3.6662      Z:     1.7996     Total:     4.1318

*** Psi4 exiting successfully. Buy a developer a beer!
