                               Psi4 1.3.2 release

  ==> Input File <==

--------------------------------------------------------------------------
#psi4
#
memory 32 gb

molecule  {
0 1
  O        0.9631210     2.5151539    -0.6569553
  N        2.0463840     0.6978680     0.1749460
  C        0.7564320    -1.5550710    -0.8733250
  C        1.8157710    -1.7711630     0.2163790
  C       -0.4497480    -0.7926040    -0.3845090
  C        2.0266990    -0.4897580     1.0228720
  C       -0.3650830     0.5850230    -0.0943830
  C        0.9119250     1.3593610    -0.2260870
  C       -1.6913630    -1.4231620    -0.2398970
  C       -1.5035900     1.3035830     0.2885800
  C       -2.8212120    -0.7143780     0.1714760
  C       -2.7281430     0.6547360     0.4326570
  H        0.4383490    -2.5216720    -1.2799980
  H        1.2165960    -1.0011160    -1.6986390
  H        1.5065410    -2.5704870     0.9013410
  H        2.7543720    -2.0878480    -0.2534440
  H        1.2290340    -0.3883270     1.7666860
  H        2.9729880    -0.5259550     1.5704730
  H        2.8793190     1.2773810     0.1528780
  H       -1.7755450    -2.4842720    -0.4701710
  H       -1.4080790     2.3720960     0.4641940
  H       -3.7741480    -1.2278540     0.2772780
  H       -3.6082280     1.2145190     0.7397060
units angstrom
no_reorient  #important for SAPT in psi4, default
symmetry c1  #important for SAPT in psi4, default
}

set PROPERTIES_ORIGIN ["COM"]
properties('MP2/aug-cc-pvtz', properties = ['dipole'])
--------------------------------------------------------------------------

    Molecular point group: c1
  Charge       = 0
  Multiplicity = 1
  Basis Set: AUG-CC-PVTZ
    Blend: AUG-CC-PVTZ
  Basis Set: (AUG-CC-PVTZ AUX)
    Blend: AUG-CC-PVTZ-JKFIT

    Orbital Energies [Eh]
    ---------------------

    Doubly Occupied:

       1A    -20.514781     2A    -15.581554     3A    -11.351307
       4A    -11.275184     5A    -11.258917     6A    -11.249355
       7A    -11.247986     8A    -11.246230     9A    -11.242192
      10A    -11.240285    11A    -11.239448    12A    -11.237772
      13A     -1.369126    14A     -1.233661    15A     -1.164682
      16A     -1.082289    17A     -1.037331    18A     -1.020819
      19A     -0.938219    20A     -0.881845    21A     -0.841465
      22A     -0.798482    23A     -0.776352    24A     -0.696766
      25A     -0.685421    26A     -0.672276    27A     -0.652484
      28A     -0.623692    29A     -0.615809    30A     -0.600183
      31A     -0.587183    32A     -0.576359    33A     -0.557051
      34A     -0.535842    35A     -0.518665    36A     -0.510237
      37A     -0.492893    38A     -0.490183    39A     -0.478525
      40A     -0.423348    41A     -0.388461    42A     -0.344623
      43A     -0.336559

  @DF-RHF Final Energy:  -514.59663342458896

   => Energetics <=

    Nuclear Repulsion Energy =            685.0302570226738226
    One-Electron Energy =               -2058.0220994142500786
    Two-Electron Energy =                 858.3952089669872976
    Total Energy =                       -514.5966334245889584
  Basis Set: (AUG-CC-PVTZ AUX)
    Blend: AUG-CC-PVTZ-RI
    Molecular point group: c1

    Geometry (in Angstrom), charge = 0, multiplicity = 1:

       Center              X                  Y                   Z               Mass
    ------------   -----------------  -----------------  -----------------  -----------------
         O            0.975964083180     2.466265887598    -0.643883122673    15.994914619570
         N            2.059227083180     0.648979987598     0.188018177327    14.003074004430
         C            0.769275083180    -1.603959012402    -0.860252822673    12.000000000000
         C            1.828614083180    -1.820051012402     0.229451177327    12.000000000000
         C           -0.436904916820    -0.841492012402    -0.371436822673    12.000000000000
         C            2.039542083180    -0.538646012402     1.035944177327    12.000000000000
         C           -0.352239916820     0.536134987598    -0.081310822673    12.000000000000
         C            0.924768083180     1.310472987598    -0.213014822673    12.000000000000
         C           -1.678519916820    -1.472050012402    -0.226824822673    12.000000000000
         C           -1.490746916820     1.254694987598     0.301652177327    12.000000000000
         C           -2.808368916820    -0.763266012402     0.184548177327    12.000000000000
         C           -2.715299916820     0.605847987598     0.445729177327    12.000000000000
         H            0.451192083180    -2.570560012402    -1.266925822673     1.007825032230
         H            1.229439083180    -1.050004012402    -1.685566822673     1.007825032230
         H            1.519384083180    -2.619375012402     0.914413177327     1.007825032230
         H            2.767215083180    -2.136736012402    -0.240371822673     1.007825032230
         H            1.241877083180    -0.437215012402     1.779758177327     1.007825032230
         H            2.985831083180    -0.574843012402     1.583545177327     1.007825032230
         H            2.892162083180     1.228492987598     0.165950177327     1.007825032230
         H           -1.762701916820    -2.533160012402    -0.457098822673     1.007825032230
         H           -1.395235916820     2.323207987598     0.477266177327     1.007825032230
         H           -3.761304916820    -1.276742012402     0.290350177327     1.007825032230
         H           -3.595384916820     1.165630987598     0.752778177327     1.007825032230

  Basis Set: AUG-CC-PVTZ
    Blend: AUG-CC-PVTZ
  Basis Set: (AUG-CC-PVTZ AUX)
    Blend: AUG-CC-PVTZ-JKFIT
	 Reference Energy          =    -514.5966334245889584 [Eh]
	 Singles Energy            =      -0.0000000000000000 [Eh]
	 Same-Spin Energy          =      -0.5586229863776260 [Eh]
	 Opposite-Spin Energy      =      -1.7443400737191794 [Eh]
	 Correlation Energy        =      -2.3029630600968054 [Eh]
	 Total Energy              =    -516.8995964846857305 [Eh]

	 ================> DF-SCS-MP2 Energies <==================
	-----------------------------------------------------------
	 SCS Same-Spin Scale       =       0.3333333333333333 [-]
	 SCS Opposite-Spin Scale   =       1.2000000000000000 [-]
	 SCS Same-Spin Energy      =      -0.1862076621258753 [Eh]
	 SCS Opposite-Spin Energy  =      -2.0932080884630153 [Eh]
	 SCS Correlation Energy    =      -2.2794157505888908 [Eh]
	 SCS Total Energy          =    -516.8760491751778545 [Eh]
	-----------------------------------------------------------

  Dipole Moment: [D]
     X:     0.5598      Y:    -3.6283      Z:     1.7623     Total:     4.0723

*** Psi4 exiting successfully. Buy a developer a beer!
