                               Psi4 1.3.2 release

  ==> Input File <==

--------------------------------------------------------------------------
#psi4
#
memory 32 gb

molecule  {
0 1
  O        0.9417500     2.5148810    -0.6596880
  N        2.0463840     0.6978680     0.1749460
  C        0.7416601    -1.5767804    -0.8752036
  C        1.8157710    -1.7711630     0.2163790
  C       -0.4497480    -0.7926040    -0.3845090
  C        2.0266990    -0.4897580     1.0228720
  C       -0.3650830     0.5850230    -0.0943830
  C        0.9119250     1.3593610    -0.2260870
  C       -1.6913630    -1.4231620    -0.2398970
  C       -1.5035900     1.3035830     0.2885800
  C       -2.8212120    -0.7143780     0.1714760
  C       -2.7281430     0.6547360     0.4326570
  H        0.4383490    -2.5216720    -1.2799980
  H        1.2165960    -1.0011160    -1.6986390
  H        1.5065410    -2.5704870     0.9013410
  H        2.7543720    -2.0878480    -0.2534440
  H        1.2290340    -0.3883270     1.7666860
  H        2.9729880    -0.5259550     1.5704730
  H        2.8793190     1.2773810     0.1528780
  H       -1.7755450    -2.4842720    -0.4701710
  H       -1.4080790     2.3720960     0.4641940
  H       -3.7741480    -1.2278540     0.2772780
  H       -3.6082280     1.2145190     0.7397060
units angstrom
no_reorient  #important for SAPT in psi4, default
symmetry c1  #important for SAPT in psi4, default
}

set PROPERTIES_ORIGIN ["COM"]
properties('MP2/aug-cc-pvtz', properties = ['dipole'])
--------------------------------------------------------------------------

    Molecular point group: c1
  Charge       = 0
  Multiplicity = 1
  Basis Set: AUG-CC-PVTZ
    Blend: AUG-CC-PVTZ
  Basis Set: (AUG-CC-PVTZ AUX)
    Blend: AUG-CC-PVTZ-JKFIT

    Orbital Energies [Eh]
    ---------------------

    Doubly Occupied:

       1A    -20.515056     2A    -15.582709     3A    -11.351406
       4A    -11.276156     5A    -11.258444     6A    -11.248660
       7A    -11.247476     8A    -11.245723     9A    -11.241292
      10A    -11.239674    11A    -11.239275    12A    -11.238271
      13A     -1.368970    14A     -1.234594    15A     -1.164196
      16A     -1.081511    17A     -1.036582    18A     -1.020495
      19A     -0.938712    20A     -0.881760    21A     -0.840644
      22A     -0.799013    23A     -0.776272    24A     -0.696489
      25A     -0.686427    26A     -0.671792    27A     -0.651905
      28A     -0.624211    29A     -0.615656    30A     -0.599867
      31A     -0.586778    32A     -0.575775    33A     -0.558933
      34A     -0.535004    35A     -0.517538    36A     -0.509971
      37A     -0.496787    38A     -0.487906    39A     -0.477782
      40A     -0.423232    41A     -0.389389    42A     -0.343882
      43A     -0.335572

  @DF-RHF Final Energy:  -514.59612644024423

   => Energetics <=

    Nuclear Repulsion Energy =            684.8612159211269272
    One-Electron Energy =               -2057.6911130305343249
    Two-Electron Energy =                 858.2337706691630501
    Total Energy =                       -514.5961264402442339
  Basis Set: (AUG-CC-PVTZ AUX)
    Blend: AUG-CC-PVTZ-RI
    Molecular point group: c1

    Geometry (in Angstrom), charge = 0, multiplicity = 1:

       Center              X                  Y                   Z               Mass
    ------------   -----------------  -----------------  -----------------  -----------------
         O            0.957815562844     2.467637332828    -0.646204531193    15.994914619570
         N            2.062449562844     0.650624332828     0.188429468807    14.003074004430
         C            0.757725662844    -1.624024067172    -0.861720131193    12.000000000000
         C            1.831836562844    -1.818406667172     0.229862468807    12.000000000000
         C           -0.433682437156    -0.839847667172    -0.371025531193    12.000000000000
         C            2.042764562844    -0.537001667172     1.036355468807    12.000000000000
         C           -0.349017437156     0.537779332828    -0.080899531193    12.000000000000
         C            0.927990562844     1.312117332828    -0.212603531193    12.000000000000
         C           -1.675297437156    -1.470405667172    -0.226413531193    12.000000000000
         C           -1.487524437156     1.256339332828     0.302063468807    12.000000000000
         C           -2.805146437156    -0.761621667172     0.184959468807    12.000000000000
         C           -2.712077437156     0.607492332828     0.446140468807    12.000000000000
         H            0.454414562844    -2.568915667172    -1.266514531193     1.007825032230
         H            1.232661562844    -1.048359667172    -1.685155531193     1.007825032230
         H            1.522606562844    -2.617730667172     0.914824468807     1.007825032230
         H            2.770437562844    -2.135091667172    -0.239960531193     1.007825032230
         H            1.245099562844    -0.435570667172     1.780169468807     1.007825032230
         H            2.989053562844    -0.573198667172     1.583956468807     1.007825032230
         H            2.895384562844     1.230137332828     0.166361468807     1.007825032230
         H           -1.759479437156    -2.531515667172    -0.456687531193     1.007825032230
         H           -1.392013437156     2.324852332828     0.477677468807     1.007825032230
         H           -3.758082437156    -1.275097667172     0.290761468807     1.007825032230
         H           -3.592162437156     1.167275332828     0.753189468807     1.007825032230

  Basis Set: AUG-CC-PVTZ
    Blend: AUG-CC-PVTZ
  Basis Set: (AUG-CC-PVTZ AUX)
    Blend: AUG-CC-PVTZ-JKFIT
	 Reference Energy          =    -514.5961264402442339 [Eh]
	 Singles Energy            =      -0.0000000000000000 [Eh]
	 Same-Spin Energy          =      -0.5585636942162607 [Eh]
	 Opposite-Spin Energy      =      -1.7442929211625717 [Eh]
	 Correlation Energy        =      -2.3028566153788326 [Eh]
	 Total Energy              =    -516.8989830556230345 [Eh]

	 ================> DF-SCS-MP2 Energies <==================
	-----------------------------------------------------------
	 SCS Same-Spin Scale       =       0.3333333333333333 [-]
	 SCS Opposite-Spin Scale   =       1.2000000000000000 [-]
	 SCS Same-Spin Energy      =      -0.1861878980720869 [Eh]
	 SCS Opposite-Spin Energy  =      -2.0931515053950860 [Eh]
	 SCS Correlation Energy    =      -2.2793394034671728 [Eh]
	 SCS Total Energy          =    -516.8754658437113676 [Eh]
	-----------------------------------------------------------

  Dipole Moment: [D]
     X:     0.6296      Y:    -3.6290      Z:     1.7680     Total:     4.0855

*** Psi4 exiting successfully. Buy a developer a beer!
