                               Psi4 1.3.2 release

  ==> Input File <==

--------------------------------------------------------------------------
#psi4
#
memory 32 gb

molecule  {
0 1
  O        1.0271749     2.5136842    -0.6484391
  N        2.0463840     0.6978680     0.1749460
  C        0.7564320    -1.5550710    -0.8733250
  C        1.8157710    -1.7711630     0.2163790
  C       -0.4497480    -0.7926040    -0.3845090
  C        2.0266990    -0.4897580     1.0228720
  C       -0.3650830     0.5850230    -0.0943830
  C        0.9119250     1.3593610    -0.2260870
  C       -1.6913630    -1.4231620    -0.2398970
  C       -1.5035900     1.3035830     0.2885800
  C       -2.8212120    -0.7143780     0.1714760
  C       -2.7281430     0.6547360     0.4326570
  H        0.4383490    -2.5216720    -1.2799980
  H        1.2165960    -1.0011160    -1.6986390
  H        1.5065410    -2.5704870     0.9013410
  H        2.7543720    -2.0878480    -0.2534440
  H        1.2290340    -0.3883270     1.7666860
  H        2.9729880    -0.5259550     1.5704730
  H        2.8793190     1.2773810     0.1528780
  H       -1.7755450    -2.4842720    -0.4701710
  H       -1.4080790     2.3720960     0.4641940
  H       -3.7741480    -1.2278540     0.2772780
  H       -3.6082280     1.2145190     0.7397060
units angstrom
no_reorient  #important for SAPT in psi4, default
symmetry c1  #important for SAPT in psi4, default
}

set PROPERTIES_ORIGIN ["COM"]
properties('MP2/aug-cc-pvtz', properties = ['dipole'])
--------------------------------------------------------------------------

    Molecular point group: c1
  Charge       = 0
  Multiplicity = 1
  Basis Set: AUG-CC-PVTZ
    Blend: AUG-CC-PVTZ
  Basis Set: (AUG-CC-PVTZ AUX)
    Blend: AUG-CC-PVTZ-JKFIT

    Orbital Energies [Eh]
    ---------------------

    Doubly Occupied:

       1A    -20.513583     2A    -15.577953     3A    -11.350874
       4A    -11.273274     5A    -11.260744     6A    -11.250942
       7A    -11.250405     8A    -11.248261     9A    -11.243488
      10A    -11.241643    11A    -11.239661    12A    -11.237200
      13A     -1.369539    14A     -1.230005    15A     -1.166037
      16A     -1.082314    17A     -1.039025    18A     -1.021260
      19A     -0.937747    20A     -0.882632    21A     -0.841928
      22A     -0.799041    23A     -0.776292    24A     -0.696543
      25A     -0.684651    26A     -0.672864    27A     -0.652273
      28A     -0.624602    29A     -0.614893    30A     -0.600977
      31A     -0.587118    32A     -0.576491    33A     -0.557165
      34A     -0.535740    35A     -0.518726    36A     -0.511291
      37A     -0.493141    38A     -0.490650    39A     -0.478893
      40A     -0.422904    41A     -0.385381    42A     -0.346793
      43A     -0.337833

  @DF-RHF Final Energy:  -514.59548166059199

   => Energetics <=

    Nuclear Repulsion Energy =            684.8016983742624006
    One-Electron Energy =               -2057.5488049642781334
    Two-Electron Energy =                 858.1516249294238605
    Total Energy =                       -514.5954816605919859
  Basis Set: (AUG-CC-PVTZ AUX)
    Blend: AUG-CC-PVTZ-RI
    Molecular point group: c1

    Geometry (in Angstrom), charge = 0, multiplicity = 1:

       Center              X                  Y                   Z               Mass
    ------------   -----------------  -----------------  -----------------  -----------------
         O            1.033657722356     2.464942122121    -0.636212542584    15.994914619570
         N            2.052866822356     0.649125922121     0.187172557416    14.003074004430
         C            0.762914822356    -1.603813077879    -0.861098442584    12.000000000000
         C            1.822253822356    -1.819905077879     0.228605557416    12.000000000000
         C           -0.443265177644    -0.841346077879    -0.372282442584    12.000000000000
         C            2.033181822356    -0.538500077879     1.035098557416    12.000000000000
         C           -0.358600177644     0.536280922121    -0.082156442584    12.000000000000
         C            0.918407822356     1.310618922121    -0.213860442584    12.000000000000
         C           -1.684880177644    -1.471904077879    -0.227670442584    12.000000000000
         C           -1.497107177644     1.254840922121     0.300806557416    12.000000000000
         C           -2.814729177644    -0.763120077879     0.183702557416    12.000000000000
         C           -2.721660177644     0.605993922121     0.444883557416    12.000000000000
         H            0.444831822356    -2.570414077879    -1.267771442584     1.007825032230
         H            1.223078822356    -1.049858077879    -1.686412442584     1.007825032230
         H            1.513023822356    -2.619229077879     0.913567557416     1.007825032230
         H            2.760854822356    -2.136590077879    -0.241217442584     1.007825032230
         H            1.235516822356    -0.437069077879     1.778912557416     1.007825032230
         H            2.979470822356    -0.574697077879     1.582699557416     1.007825032230
         H            2.885801822356     1.228638922121     0.165104557416     1.007825032230
         H           -1.769062177644    -2.533014077879    -0.457944442584     1.007825032230
         H           -1.401596177644     2.323353922121     0.476420557416     1.007825032230
         H           -3.767665177644    -1.276596077879     0.289504557416     1.007825032230
         H           -3.601745177644     1.165776922121     0.751932557416     1.007825032230

  Basis Set: AUG-CC-PVTZ
    Blend: AUG-CC-PVTZ
  Basis Set: (AUG-CC-PVTZ AUX)
    Blend: AUG-CC-PVTZ-JKFIT
	 Reference Energy          =    -514.5954816605919859 [Eh]
	 Singles Energy            =      -0.0000000000000000 [Eh]
	 Same-Spin Energy          =      -0.5585982692613121 [Eh]
	 Opposite-Spin Energy      =      -1.7443076042918244 [Eh]
	 Correlation Energy        =      -2.3029058735531365 [Eh]
	 Total Energy              =    -516.8983875341451721 [Eh]

	 ================> DF-SCS-MP2 Energies <==================
	-----------------------------------------------------------
	 SCS Same-Spin Scale       =       0.3333333333333333 [-]
	 SCS Opposite-Spin Scale   =       1.2000000000000000 [-]
	 SCS Same-Spin Energy      =      -0.1861994230871040 [Eh]
	 SCS Opposite-Spin Energy  =      -2.0931691251501894 [Eh]
	 SCS Correlation Energy    =      -2.2793685482372936 [Eh]
	 SCS Total Energy          =    -516.8748502088292298 [Eh]
	-----------------------------------------------------------

  Dipole Moment: [D]
     X:     0.3512      Y:    -3.6583      Z:     1.7405     Total:     4.0664

*** Psi4 exiting successfully. Buy a developer a beer!
