                               Psi4 1.4a3.dev225

  ==> Input File <==

--------------------------------------------------------------------------
#psi4
#
memory 32 gb

molecule  {
0 1
  O        0.9417500     2.5148810    -0.6596880
  N        2.0463840     0.6978680     0.1749460
  C        0.7564320    -1.5550710    -0.8733250
  C        1.8157710    -1.7711630     0.2163790
  C       -0.4497480    -0.7926040    -0.3845090
  C        2.0266990    -0.4897580     1.0228720
  C       -0.3650830     0.5850230    -0.0943830
  C        0.9119250     1.3593610    -0.2260870
  C       -1.6913630    -1.4231620    -0.2398970
  C       -1.5035900     1.3035830     0.2885800
  C       -2.8212120    -0.7143780     0.1714760
  C       -2.7281430     0.6547360     0.4326570
  H        0.4383490    -2.5216720    -1.2799980
  H        1.2165960    -1.0011160    -1.6986390
  H        1.5065410    -2.5704870     0.9013410
  H        2.7543720    -2.0878480    -0.2534440
  H        1.2654450    -0.3929570     1.7327331
  H        2.9729880    -0.5259550     1.5704730
  H        2.8793190     1.2773810     0.1528780
  H       -1.7755450    -2.4842720    -0.4701710
  H       -1.4080790     2.3720960     0.4641940
  H       -3.7741480    -1.2278540     0.2772780
  H       -3.6082280     1.2145190     0.7397060
units angstrom
no_reorient  #important for SAPT in psi4, default
symmetry c1  #important for SAPT in psi4, default
}

set PROPERTIES_ORIGIN ["COM"]
properties('MP2/aug-cc-pvtz', properties = ['dipole'])
--------------------------------------------------------------------------

    Molecular point group: c1
  Charge       = 0
  Multiplicity = 1
  Basis Set: AUG-CC-PVTZ
    Blend: AUG-CC-PVTZ
  Basis Set: (AUG-CC-PVTZ AUX)
    Blend: AUG-CC-PVTZ-JKFIT

    Orbital Energies [Eh]
    ---------------------

    Doubly Occupied:

       1A    -20.514890     2A    -15.582192     3A    -11.351302
       4A    -11.269855     5A    -11.258334     6A    -11.248869
       7A    -11.247236     8A    -11.245589     9A    -11.241815
      10A    -11.239881    11A    -11.239258    12A    -11.237498
      13A     -1.368857    14A     -1.235069    15A     -1.164245
      16A     -1.082409    17A     -1.037026    18A     -1.021288
      19A     -0.940708    20A     -0.881521    21A     -0.842589
      22A     -0.798791    23A     -0.777356    24A     -0.697619
      25A     -0.687970    26A     -0.672520    27A     -0.652372
      28A     -0.623983    29A     -0.616118    30A     -0.599846
      31A     -0.587483    32A     -0.577340    33A     -0.557330
      34A     -0.537811    35A     -0.519791    36A     -0.509800
      37A     -0.492681    38A     -0.490119    39A     -0.478948
      40A     -0.423182    41A     -0.389706    42A     -0.343973
      43A     -0.336284

  @DF-RHF Final Energy:  -514.59593315705365

   => Energetics <=

    Nuclear Repulsion Energy =            685.3426614023284174
    One-Electron Energy =               -2058.6342887564346711
    Two-Electron Energy =                 858.6956941970527168
    Total Energy =                       -514.5959331570536506
  Basis Set: (AUG-CC-PVTZ AUX)
    Blend: AUG-CC-PVTZ-RI
    Molecular point group: c1

    Geometry (in Angstrom), charge = 0, multiplicity = 1:

       Center              X                  Y                   Z               Mass
    ------------   -----------------  -----------------  -----------------  -----------------
         O            0.956487320236     2.466049052996    -0.646132051133    15.994914619570
         N            2.061121320236     0.649036052996     0.188501948867    14.003074004430
         C            0.771169320236    -1.603902947004    -0.859769051133    12.000000000000
         C            1.830508320236    -1.819994947004     0.229934948867    12.000000000000
         C           -0.435010679764    -0.841435947004    -0.370953051133    12.000000000000
         C            2.041436320236    -0.538589947004     1.036427948867    12.000000000000
         C           -0.350345679764     0.536191052996    -0.080827051133    12.000000000000
         C            0.926662320236     1.310529052996    -0.212531051133    12.000000000000
         C           -1.676625679764    -1.471993947004    -0.226341051133    12.000000000000
         C           -1.488852679764     1.254751052996     0.302135948867    12.000000000000
         C           -2.806474679764    -0.763209947004     0.185031948867    12.000000000000
         C           -2.713405679764     0.605904052996     0.446212948867    12.000000000000
         H            0.453086320236    -2.570503947004    -1.266442051133     1.007825032230
         H            1.231333320236    -1.049947947004    -1.685083051133     1.007825032230
         H            1.521278320236    -2.619318947004     0.914896948867     1.007825032230
         H            2.769109320236    -2.136679947004    -0.239888051133     1.007825032230
         H            1.280182320236    -0.441788947004     1.746289048867     1.007825032230
         H            2.987725320236    -0.574786947004     1.584028948867     1.007825032230
         H            2.894056320236     1.228549052996     0.166433948867     1.007825032230
         H           -1.760807679764    -2.533103947004    -0.456615051133     1.007825032230
         H           -1.393341679764     2.323264052996     0.477749948867     1.007825032230
         H           -3.759410679764    -1.276685947004     0.290833948867     1.007825032230
         H           -3.593490679764     1.165687052996     0.753261948867     1.007825032230

  Basis Set: AUG-CC-PVTZ
    Blend: AUG-CC-PVTZ
  Basis Set: (AUG-CC-PVTZ AUX)
    Blend: AUG-CC-PVTZ-JKFIT
	 Reference Energy          =    -514.5959331570536506 [Eh]
	 Singles Energy            =      -0.0000000000000000 [Eh]
	 Same-Spin Energy          =      -0.5585411220159932 [Eh]
	 Opposite-Spin Energy      =      -1.7439856085773027 [Eh]
	 Correlation Energy        =      -2.3025267305932959 [Eh]
	 Total Energy              =    -516.8984598876469363 [Eh]

	 ================> DF-SCS-MP2 Energies <==================
	-----------------------------------------------------------
	 SCS Same-Spin Scale       =       0.3333333333333333 [-]
	 SCS Opposite-Spin Scale   =       1.2000000000000000 [-]
	 SCS Same-Spin Energy      =      -0.1861803740053311 [Eh]
	 SCS Opposite-Spin Energy  =      -2.0927827302927633 [Eh]
	 SCS Correlation Energy    =      -2.2789631042980942 [Eh]
	 SCS Total Energy          =    -516.8748962613517506 [Eh]
	-----------------------------------------------------------

  Dipole Moment: [D]
     X:     0.6229      Y:    -3.6206      Z:     1.7927     Total:     4.0878

*** Psi4 exiting successfully. Buy a developer a beer!
