                               Psi4 1.3.2 release

  ==> Input File <==

--------------------------------------------------------------------------
#psi4
#
memory 32 gb

molecule  {
0 1
  O        0.9417500     2.5148810    -0.6596880
  N        2.0463840     0.6978680     0.1749460
  C        0.7564320    -1.5550710    -0.8733250
  C        1.8157710    -1.7711630     0.2163790
  C       -0.5363744    -0.9160832    -0.4311560
  C        2.0266990    -0.4897580     1.0228720
  C       -0.3650830     0.5850230    -0.0943830
  C        0.9119250     1.3593610    -0.2260870
  C       -1.6913630    -1.4231620    -0.2398970
  C       -1.5035900     1.3035830     0.2885800
  C       -2.8212120    -0.7143780     0.1714760
  C       -2.7281430     0.6547360     0.4326570
  H        0.4383490    -2.5216720    -1.2799980
  H        1.2165960    -1.0011160    -1.6986390
  H        1.5065410    -2.5704870     0.9013410
  H        2.7543720    -2.0878480    -0.2534440
  H        1.2290340    -0.3883270     1.7666860
  H        2.9729880    -0.5259550     1.5704730
  H        2.8793190     1.2773810     0.1528780
  H       -1.7755450    -2.4842720    -0.4701710
  H       -1.4080790     2.3720960     0.4641940
  H       -3.7741480    -1.2278540     0.2772780
  H       -3.6082280     1.2145190     0.7397060
units angstrom
no_reorient  #important for SAPT in psi4, default
symmetry c1  #important for SAPT in psi4, default
}

set PROPERTIES_ORIGIN ["COM"]
properties('MP2/aug-cc-pvtz', properties = ['dipole'])
--------------------------------------------------------------------------

    Molecular point group: c1
  Charge       = 0
  Multiplicity = 1
  Basis Set: AUG-CC-PVTZ
    Blend: AUG-CC-PVTZ
  Basis Set: (AUG-CC-PVTZ AUX)
    Blend: AUG-CC-PVTZ-JKFIT

    Orbital Energies [Eh]
    ---------------------

    Doubly Occupied:

       1A    -20.514598     2A    -15.581865     3A    -11.352241
       4A    -11.275526     5A    -11.255110     6A    -11.254327
       7A    -11.250361     8A    -11.246138     9A    -11.241530
      10A    -11.239784    11A    -11.239165    12A    -11.227569
      13A     -1.368213    14A     -1.233229    15A     -1.166876
      16A     -1.082979    17A     -1.037525    18A     -1.023748
      19A     -0.939978    20A     -0.888065    21A     -0.837429
      22A     -0.795436    23A     -0.772530    24A     -0.700627
      25A     -0.684823    26A     -0.670766    27A     -0.650794
      28A     -0.623350    29A     -0.613721    30A     -0.601618
      31A     -0.587322    32A     -0.577107    33A     -0.554222
      34A     -0.537063    35A     -0.525544    36A     -0.509172
      37A     -0.493239    38A     -0.491796    39A     -0.459601
      40A     -0.422745    41A     -0.388579    42A     -0.360121
      43A     -0.325786

  @DF-RHF Final Energy:  -514.56767215705361

   => Energetics <=

    Nuclear Repulsion Energy =            683.7787460689715999
    One-Electron Energy =               -2055.4883998499217341
    Two-Electron Energy =                 857.1419816238966405
    Total Energy =                       -514.5676721570536074
  Basis Set: (AUG-CC-PVTZ AUX)
    Blend: AUG-CC-PVTZ-RI
    Molecular point group: c1

    Geometry (in Angstrom), charge = 0, multiplicity = 1:

       Center              X                  Y                   Z               Mass
    ------------   -----------------  -----------------  -----------------  -----------------
         O            0.963168382848     2.475218701027    -0.642869497380    15.994914619570
         N            2.067802382848     0.658205701027     0.191764502620    14.003074004430
         C            0.777850382848    -1.594733298973    -0.856506497380    12.000000000000
         C            1.837189382848    -1.810825298973     0.233197502620    12.000000000000
         C           -0.514956017152    -0.955745498973    -0.414337497380    12.000000000000
         C            2.048117382848    -0.529420298973     1.039690502620    12.000000000000
         C           -0.343664617152     0.545360701027    -0.077564497380    12.000000000000
         C            0.933343382848     1.319698701027    -0.209268497380    12.000000000000
         C           -1.669944617152    -1.462824298973    -0.223078497380    12.000000000000
         C           -1.482171617152     1.263920701027     0.305398502620    12.000000000000
         C           -2.799793617152    -0.754040298973     0.188294502620    12.000000000000
         C           -2.706724617152     0.615073701027     0.449475502620    12.000000000000
         H            0.459767382848    -2.561334298973    -1.263179497380     1.007825032230
         H            1.238014382848    -1.040778298973    -1.681820497380     1.007825032230
         H            1.527959382848    -2.610149298973     0.918159502620     1.007825032230
         H            2.775790382848    -2.127510298973    -0.236625497380     1.007825032230
         H            1.250452382848    -0.427989298973     1.783504502620     1.007825032230
         H            2.994406382848    -0.565617298973     1.587291502620     1.007825032230
         H            2.900737382848     1.237718701027     0.169696502620     1.007825032230
         H           -1.754126617152    -2.523934298973    -0.453352497380     1.007825032230
         H           -1.386660617152     2.332433701027     0.481012502620     1.007825032230
         H           -3.752729617152    -1.267516298973     0.294096502620     1.007825032230
         H           -3.586809617152     1.174856701027     0.756524502620     1.007825032230

  Basis Set: AUG-CC-PVTZ
    Blend: AUG-CC-PVTZ
  Basis Set: (AUG-CC-PVTZ AUX)
    Blend: AUG-CC-PVTZ-JKFIT
	 Reference Energy          =    -514.5676721570536074 [Eh]
	 Singles Energy            =      -0.0000000000000000 [Eh]
	 Same-Spin Energy          =      -0.5580296949282313 [Eh]
	 Opposite-Spin Energy      =      -1.7453786425888214 [Eh]
	 Correlation Energy        =      -2.3034083375170527 [Eh]
	 Total Energy              =    -516.8710804945706059 [Eh]

	 ================> DF-SCS-MP2 Energies <==================
	-----------------------------------------------------------
	 SCS Same-Spin Scale       =       0.3333333333333333 [-]
	 SCS Opposite-Spin Scale   =       1.2000000000000000 [-]
	 SCS Same-Spin Energy      =      -0.1860098983094104 [Eh]
	 SCS Opposite-Spin Energy  =      -2.0944543711065857 [Eh]
	 SCS Correlation Energy    =      -2.2804642694159960 [Eh]
	 SCS Total Energy          =    -516.8481364264696367 [Eh]
	-----------------------------------------------------------

  Dipole Moment: [D]
     X:     0.6443      Y:    -3.5794      Z:     1.7988     Total:     4.0574

*** Psi4 exiting successfully. Buy a developer a beer!
