                               Psi4 1.3.2 release

  ==> Input File <==

--------------------------------------------------------------------------
#psi4
#
memory 32 gb

molecule  {
0 1
  O        0.9417500     2.5148810    -0.6596880
  N        2.0463840     0.6978680     0.1749460
  C        0.7564320    -1.5550710    -0.8733250
  C        1.8157710    -1.7711630     0.2163790
  C       -0.4497480    -0.7926040    -0.3845090
  C        2.0293967    -0.3270016     0.9066693
  C       -0.3650830     0.5850230    -0.0943830
  C        0.9119250     1.3593610    -0.2260870
  C       -1.6913630    -1.4231620    -0.2398970
  C       -1.5035900     1.3035830     0.2885800
  C       -2.8212120    -0.7143780     0.1714760
  C       -2.7281430     0.6547360     0.4326570
  H        0.4383490    -2.5216720    -1.2799980
  H        1.2165960    -1.0011160    -1.6986390
  H        1.5065410    -2.5704870     0.9013410
  H        2.7543720    -2.0878480    -0.2534440
  H        1.2290340    -0.3883270     1.7666860
  H        2.9729880    -0.5259550     1.5704730
  H        2.8793190     1.2773810     0.1528780
  H       -1.7755450    -2.4842720    -0.4701710
  H       -1.4080790     2.3720960     0.4641940
  H       -3.7741480    -1.2278540     0.2772780
  H       -3.6082280     1.2145190     0.7397060
units angstrom
no_reorient  #important for SAPT in psi4, default
symmetry c1  #important for SAPT in psi4, default
}

set PROPERTIES_ORIGIN ["COM"]
properties('MP2/aug-cc-pvtz', properties = ['dipole'])
--------------------------------------------------------------------------

    Molecular point group: c1
  Charge       = 0
  Multiplicity = 1
  Basis Set: AUG-CC-PVTZ
    Blend: AUG-CC-PVTZ
  Basis Set: (AUG-CC-PVTZ AUX)
    Blend: AUG-CC-PVTZ-JKFIT

    Orbital Energies [Eh]
    ---------------------

    Doubly Occupied:

       1A    -20.525435     2A    -15.588252     3A    -11.360263
       4A    -11.277059     5A    -11.259098     6A    -11.249898
       7A    -11.249178     8A    -11.247460     9A    -11.241707
      10A    -11.240306    11A    -11.235942    12A    -11.233850
      13A     -1.384666    14A     -1.293295    15A     -1.166968
      16A     -1.077421    17A     -1.038652    18A     -1.012157
      19A     -0.933768    20A     -0.892413    21A     -0.844405
      22A     -0.803141    23A     -0.785760    24A     -0.713090
      25A     -0.699904    26A     -0.674554    27A     -0.662687
      28A     -0.627617    29A     -0.613069    30A     -0.602297
      31A     -0.597735    32A     -0.577078    33A     -0.557641
      34A     -0.530054    35A     -0.512367    36A     -0.506019
      37A     -0.491806    38A     -0.481166    39A     -0.465996
      40A     -0.430572    41A     -0.372321    42A     -0.345041
      43A     -0.335160

  @DF-RHF Final Energy:  -514.54687835818117

   => Energetics <=

    Nuclear Repulsion Energy =            687.9631063763125667
    One-Electron Energy =               -2063.5454275740735284
    Two-Electron Energy =                 861.0354428395796731
    Total Energy =                       -514.5468783581811749
  Basis Set: (AUG-CC-PVTZ AUX)
    Blend: AUG-CC-PVTZ-RI
    Molecular point group: c1

    Geometry (in Angstrom), charge = 0, multiplicity = 1:

       Center              X                  Y                   Z               Mass
    ------------   -----------------  -----------------  -----------------  -----------------
         O            0.956514160366     2.453895504212    -0.637687927091    15.994914619570
         N            2.061148160366     0.636882504212     0.196946072909    14.003074004430
         C            0.771196160366    -1.616056495788    -0.851324927091    12.000000000000
         C            1.830535160366    -1.832148495788     0.238379072909    12.000000000000
         C           -0.434983839634    -0.853589495788    -0.362508927091    12.000000000000
         C            2.044160860366    -0.387987095788     0.928669372909    12.000000000000
         C           -0.350318839634     0.524037504212    -0.072382927091    12.000000000000
         C            0.926689160366     1.298375504212    -0.204086927091    12.000000000000
         C           -1.676598839634    -1.484147495788    -0.217896927091    12.000000000000
         C           -1.488825839634     1.242597504212     0.310580072909    12.000000000000
         C           -2.806447839634    -0.775363495788     0.193476072909    12.000000000000
         C           -2.713378839634     0.593750504212     0.454657072909    12.000000000000
         H            0.453113160366    -2.582657495788    -1.257997927091     1.007825032230
         H            1.231360160366    -1.062101495788    -1.676638927091     1.007825032230
         H            1.521305160366    -2.631472495788     0.923341072909     1.007825032230
         H            2.769136160366    -2.148833495788    -0.231443927091     1.007825032230
         H            1.243798160366    -0.449312495788     1.788686072909     1.007825032230
         H            2.987752160366    -0.586940495788     1.592473072909     1.007825032230
         H            2.894083160366     1.216395504212     0.174878072909     1.007825032230
         H           -1.760780839634    -2.545257495788    -0.448170927091     1.007825032230
         H           -1.393314839634     2.311110504212     0.486194072909     1.007825032230
         H           -3.759383839634    -1.288839495788     0.299278072909     1.007825032230
         H           -3.593463839634     1.153533504212     0.761706072909     1.007825032230

  Basis Set: AUG-CC-PVTZ
    Blend: AUG-CC-PVTZ
  Basis Set: (AUG-CC-PVTZ AUX)
    Blend: AUG-CC-PVTZ-JKFIT
	 Reference Energy          =    -514.5468783581811749 [Eh]
	 Singles Energy            =      -0.0000000000000000 [Eh]
	 Same-Spin Energy          =      -0.5613719800727076 [Eh]
	 Opposite-Spin Energy      =      -1.7473745040221225 [Eh]
	 Correlation Energy        =      -2.3087464840948302 [Eh]
	 Total Energy              =    -516.8556248422760291 [Eh]

	 ================> DF-SCS-MP2 Energies <==================
	-----------------------------------------------------------
	 SCS Same-Spin Scale       =       0.3333333333333333 [-]
	 SCS Opposite-Spin Scale   =       1.2000000000000000 [-]
	 SCS Same-Spin Energy      =      -0.1871239933575692 [Eh]
	 SCS Opposite-Spin Energy  =      -2.0968494048265467 [Eh]
	 SCS Correlation Energy    =      -2.2839733981841159 [Eh]
	 SCS Total Energy          =    -516.8308517563652913 [Eh]
	-----------------------------------------------------------

  Dipole Moment: [D]
     X:     0.5379      Y:    -3.0895      Z:     1.4428     Total:     3.4520

*** Psi4 exiting successfully. Buy a developer a beer!
