                               Psi4 1.3.2 release

  ==> Input File <==

--------------------------------------------------------------------------
#psi4
#
memory 32 gb

molecule  {
0 1
  O        0.9417500     2.5148810    -0.6596880
  N        2.0463840     0.6978680     0.1749460
  C        0.7564320    -1.5550710    -0.8733250
  C        1.8157710    -1.7711630     0.2163790
  C       -0.5297140    -0.7420548    -0.3521020
  C        2.0266990    -0.4897580     1.0228720
  C       -0.3650830     0.5850230    -0.0943830
  C        0.9119250     1.3593610    -0.2260870
  C       -1.6913630    -1.4231620    -0.2398970
  C       -1.5035900     1.3035830     0.2885800
  C       -2.8212120    -0.7143780     0.1714760
  C       -2.7281430     0.6547360     0.4326570
  H        0.4383490    -2.5216720    -1.2799980
  H        1.2165960    -1.0011160    -1.6986390
  H        1.5065410    -2.5704870     0.9013410
  H        2.7543720    -2.0878480    -0.2534440
  H        1.2290340    -0.3883270     1.7666860
  H        2.9729880    -0.5259550     1.5704730
  H        2.8793190     1.2773810     0.1528780
  H       -1.7755450    -2.4842720    -0.4701710
  H       -1.4080790     2.3720960     0.4641940
  H       -3.7741480    -1.2278540     0.2772780
  H       -3.6082280     1.2145190     0.7397060
units angstrom
no_reorient  #important for SAPT in psi4, default
symmetry c1  #important for SAPT in psi4, default
}

set PROPERTIES_ORIGIN ["COM"]
properties('MP2/aug-cc-pvtz', properties = ['dipole'])
--------------------------------------------------------------------------

    Molecular point group: c1
  Charge       = 0
  Multiplicity = 1
  Basis Set: AUG-CC-PVTZ
    Blend: AUG-CC-PVTZ
  Basis Set: (AUG-CC-PVTZ AUX)
    Blend: AUG-CC-PVTZ-JKFIT

    Orbital Energies [Eh]
    ---------------------

    Doubly Occupied:

       1A    -20.516975     2A    -15.582987     3A    -11.354284
       4A    -11.275141     5A    -11.251562     6A    -11.249068
       7A    -11.246083     8A    -11.242156     9A    -11.240793
      10A    -11.238786    11A    -11.236462    12A    -11.235830
      13A     -1.370567    14A     -1.234819    15A     -1.172913
      16A     -1.072407    17A     -1.041268    18A     -1.023183
      19A     -0.934811    20A     -0.881063    21A     -0.838955
      22A     -0.801245    23A     -0.780990    24A     -0.697435
      25A     -0.684523    26A     -0.671851    27A     -0.651857
      28A     -0.628361    29A     -0.612960    30A     -0.600453
      31A     -0.586962    32A     -0.575614    33A     -0.553850
      34A     -0.534569    35A     -0.518682    36A     -0.513854
      37A     -0.495132    38A     -0.491217    39A     -0.458239
      40A     -0.425848    41A     -0.389506    42A     -0.345858
      43A     -0.343871

  @DF-RHF Final Energy:  -514.58786585978771

   => Energetics <=

    Nuclear Repulsion Energy =            685.5848299174023168
    One-Electron Energy =               -2059.1394113503388326
    Two-Electron Energy =                 858.9667155731489174
    Total Energy =                       -514.5878658597877120
  Basis Set: (AUG-CC-PVTZ AUX)
    Blend: AUG-CC-PVTZ-RI
    Molecular point group: c1

    Geometry (in Angstrom), charge = 0, multiplicity = 1:

       Center              X                  Y                   Z               Mass
    ------------   -----------------  -----------------  -----------------  -----------------
         O            0.962672214586     2.462254409287    -0.648758646043    15.994914619570
         N            2.067306214586     0.645241409287     0.185875353957    14.003074004430
         C            0.777354214586    -1.607697590713    -0.862395646043    12.000000000000
         C            1.836693214586    -1.823789590713     0.227308353957    12.000000000000
         C           -0.508791785414    -0.794681390713    -0.341172646043    12.000000000000
         C            2.047621214586    -0.542384590713     1.033801353957    12.000000000000
         C           -0.344160785414     0.532396409287    -0.083453646043    12.000000000000
         C            0.932847214586     1.306734409287    -0.215157646043    12.000000000000
         C           -1.670440785414    -1.475788590713    -0.228967646043    12.000000000000
         C           -1.482667785414     1.250956409287     0.299509353957    12.000000000000
         C           -2.800289785414    -0.767004590713     0.182405353957    12.000000000000
         C           -2.707220785414     0.602109409287     0.443586353957    12.000000000000
         H            0.459271214586    -2.574298590713    -1.269068646043     1.007825032230
         H            1.237518214586    -1.053742590713    -1.687709646043     1.007825032230
         H            1.527463214586    -2.623113590713     0.912270353957     1.007825032230
         H            2.775294214586    -2.140474590713    -0.242514646043     1.007825032230
         H            1.249956214586    -0.440953590713     1.777615353957     1.007825032230
         H            2.993910214586    -0.578581590713     1.581402353957     1.007825032230
         H            2.900241214586     1.224754409287     0.163807353957     1.007825032230
         H           -1.754622785414    -2.536898590713    -0.459241646043     1.007825032230
         H           -1.387156785414     2.319469409287     0.475123353957     1.007825032230
         H           -3.753225785414    -1.280480590713     0.288207353957     1.007825032230
         H           -3.587305785414     1.161892409287     0.750635353957     1.007825032230

  Basis Set: AUG-CC-PVTZ
    Blend: AUG-CC-PVTZ
  Basis Set: (AUG-CC-PVTZ AUX)
    Blend: AUG-CC-PVTZ-JKFIT
	 Reference Energy          =    -514.5878658597877120 [Eh]
	 Singles Energy            =      -0.0000000000000000 [Eh]
	 Same-Spin Energy          =      -0.5580047362337617 [Eh]
	 Opposite-Spin Energy      =      -1.7437068836974805 [Eh]
	 Correlation Energy        =      -2.3017116199312424 [Eh]
	 Total Energy              =    -516.8895774797189233 [Eh]

	 ================> DF-SCS-MP2 Energies <==================
	-----------------------------------------------------------
	 SCS Same-Spin Scale       =       0.3333333333333333 [-]
	 SCS Opposite-Spin Scale   =       1.2000000000000000 [-]
	 SCS Same-Spin Energy      =      -0.1860015787445872 [Eh]
	 SCS Opposite-Spin Energy  =      -2.0924482604369765 [Eh]
	 SCS Correlation Energy    =      -2.2784498391815635 [Eh]
	 SCS Total Energy          =    -516.8663156989692880 [Eh]
	-----------------------------------------------------------

  Dipole Moment: [D]
     X:     0.5639      Y:    -3.5605      Z:     1.7896     Total:     4.0247

*** Psi4 exiting successfully. Buy a developer a beer!
