                               Psi4 1.4a3.dev225

  ==> Input File <==

--------------------------------------------------------------------------
#psi4
#
memory 32 gb

molecule  {
0 1
  O        0.9417500     2.5148810    -0.6596880
  N        2.0463840     0.6978680     0.1749460
  C        0.7564320    -1.5550710    -0.8733250
  C        1.8157710    -1.7711630     0.2163790
  C       -0.4497480    -0.7926040    -0.3845090
  C        2.0264292    -0.5060336     1.0344923
  C       -0.3650830     0.5850230    -0.0943830
  C        0.9119250     1.3593610    -0.2260870
  C       -1.6913630    -1.4231620    -0.2398970
  C       -1.5035900     1.3035830     0.2885800
  C       -2.8212120    -0.7143780     0.1714760
  C       -2.7281430     0.6547360     0.4326570
  H        0.4383490    -2.5216720    -1.2799980
  H        1.2165960    -1.0011160    -1.6986390
  H        1.5065410    -2.5704870     0.9013410
  H        2.7543720    -2.0878480    -0.2534440
  H        1.2290340    -0.3883270     1.7666860
  H        2.9729880    -0.5259550     1.5704730
  H        2.8793190     1.2773810     0.1528780
  H       -1.7755450    -2.4842720    -0.4701710
  H       -1.4080790     2.3720960     0.4641940
  H       -3.7741480    -1.2278540     0.2772780
  H       -3.6082280     1.2145190     0.7397060
units angstrom
no_reorient  #important for SAPT in psi4, default
symmetry c1  #important for SAPT in psi4, default
}

set PROPERTIES_ORIGIN ["COM"]
properties('MP2/aug-cc-pvtz', properties = ['dipole'])
--------------------------------------------------------------------------

    Molecular point group: c1
  Charge       = 0
  Multiplicity = 1
  Basis Set: AUG-CC-PVTZ
    Blend: AUG-CC-PVTZ
  Basis Set: (AUG-CC-PVTZ AUX)
    Blend: AUG-CC-PVTZ-JKFIT

    Orbital Energies [Eh]
    ---------------------

    Doubly Occupied:

       1A    -20.514260     2A    -15.581882     3A    -11.350639
       4A    -11.276323     5A    -11.258211     6A    -11.248701
       7A    -11.247003     8A    -11.245350     9A    -11.241747
      10A    -11.239768    11A    -11.239750    12A    -11.238330
      13A     -1.367957    14A     -1.230508    15A     -1.163863
      16A     -1.082883    17A     -1.036718    18A     -1.021407
      19A     -0.939176    20A     -0.880672    21A     -0.841306
      22A     -0.798165    23A     -0.775557    24A     -0.696166
      25A     -0.684081    26A     -0.672105    27A     -0.651336
      28A     -0.623196    29A     -0.616770    30A     -0.599741
      31A     -0.587002    32A     -0.575257    33A     -0.556841
      34A     -0.536790    35A     -0.519255    36A     -0.509963
      37A     -0.493860    38A     -0.489853    39A     -0.478843
      40A     -0.422477    41A     -0.389702    42A     -0.343734
      43A     -0.336154

  @DF-RHF Final Energy:  -514.59635144987169

   => Energetics <=

    Nuclear Repulsion Energy =            684.8623358210588776
    One-Electron Energy =               -2057.7107706030587906
    Two-Electron Energy =                 858.2520833321282225
    Total Energy =                       -514.5963514498716904
  Basis Set: (AUG-CC-PVTZ AUX)
    Blend: AUG-CC-PVTZ-RI
    Molecular point group: c1

    Geometry (in Angstrom), charge = 0, multiplicity = 1:

       Center              X                  Y                   Z               Mass
    ------------   -----------------  -----------------  -----------------  -----------------
         O            0.956735225064     2.467232540458    -0.647210135322    15.994914619570
         N            2.061369225064     0.650219540458     0.187423864678    14.003074004430
         C            0.771417225064    -1.602719459542    -0.860847135322    12.000000000000
         C            1.830756225064    -1.818811459542     0.228856864678    12.000000000000
         C           -0.434762774936    -0.840252459542    -0.372031135322    12.000000000000
         C            2.041414425064    -0.553682059542     1.046970164678    12.000000000000
         C           -0.350097774936     0.537374540458    -0.081905135322    12.000000000000
         C            0.926910225064     1.311712540458    -0.213609135322    12.000000000000
         C           -1.676377774936    -1.470810459542    -0.227419135322    12.000000000000
         C           -1.488604774936     1.255934540458     0.301057864678    12.000000000000
         C           -2.806226774936    -0.762026459542     0.183953864678    12.000000000000
         C           -2.713157774936     0.607087540458     0.445134864678    12.000000000000
         H            0.453334225064    -2.569320459542    -1.267520135322     1.007825032230
         H            1.231581225064    -1.048764459542    -1.686161135322     1.007825032230
         H            1.521526225064    -2.618135459542     0.913818864678     1.007825032230
         H            2.769357225064    -2.135496459542    -0.240966135322     1.007825032230
         H            1.244019225064    -0.435975459542     1.779163864678     1.007825032230
         H            2.987973225064    -0.573603459542     1.582950864678     1.007825032230
         H            2.894304225064     1.229732540458     0.165355864678     1.007825032230
         H           -1.760559774936    -2.531920459542    -0.457693135322     1.007825032230
         H           -1.393093774936     2.324447540458     0.476671864678     1.007825032230
         H           -3.759162774936    -1.275502459542     0.289755864678     1.007825032230
         H           -3.593242774936     1.166870540458     0.752183864678     1.007825032230

  Basis Set: AUG-CC-PVTZ
    Blend: AUG-CC-PVTZ
  Basis Set: (AUG-CC-PVTZ AUX)
    Blend: AUG-CC-PVTZ-JKFIT
	 Reference Energy          =    -514.5963514498716904 [Eh]
	 Singles Energy            =      -0.0000000000000000 [Eh]
	 Same-Spin Energy          =      -0.5585699780431733 [Eh]
	 Opposite-Spin Energy      =      -1.7443943286852044 [Eh]
	 Correlation Energy        =      -2.3029643067283776 [Eh]
	 Total Energy              =    -516.8993157566001173 [Eh]

	 ================> DF-SCS-MP2 Energies <==================
	-----------------------------------------------------------
	 SCS Same-Spin Scale       =       0.3333333333333333 [-]
	 SCS Opposite-Spin Scale   =       1.2000000000000000 [-]
	 SCS Same-Spin Energy      =      -0.1861899926810578 [Eh]
	 SCS Opposite-Spin Energy  =      -2.0932731944222454 [Eh]
	 SCS Correlation Energy    =      -2.2794631871033033 [Eh]
	 SCS Total Energy          =    -516.8758146369749511 [Eh]
	-----------------------------------------------------------

  Dipole Moment: [D]
     X:     0.6384      Y:    -3.6617      Z:     1.7947     Total:     4.1276

*** Psi4 exiting successfully. Buy a developer a beer!
