                               Psi4 1.3.2 release

  ==> Input File <==

--------------------------------------------------------------------------
#psi4
#
memory 32 gb

molecule  {
0 1
  O        0.9417500     2.5148810    -0.6596880
  N        2.0463840     0.6978680     0.1749460
  C        0.7564320    -1.5550710    -0.8733250
  C        1.8157710    -1.7711630     0.2163790
  C       -0.4497480    -0.7926040    -0.3845090
  C        2.0404969    -0.4059348     1.0756288
  C       -0.3650830     0.5850230    -0.0943830
  C        0.9119250     1.3593610    -0.2260870
  C       -1.6913630    -1.4231620    -0.2398970
  C       -1.5035900     1.3035830     0.2885800
  C       -2.8212120    -0.7143780     0.1714760
  C       -2.7281430     0.6547360     0.4326570
  H        0.4383490    -2.5216720    -1.2799980
  H        1.2165960    -1.0011160    -1.6986390
  H        1.5065410    -2.5704870     0.9013410
  H        2.7543720    -2.0878480    -0.2534440
  H        1.2290340    -0.3883270     1.7666860
  H        2.9729880    -0.5259550     1.5704730
  H        2.8793190     1.2773810     0.1528780
  H       -1.7755450    -2.4842720    -0.4701710
  H       -1.4080790     2.3720960     0.4641940
  H       -3.7741480    -1.2278540     0.2772780
  H       -3.6082280     1.2145190     0.7397060
units angstrom
no_reorient  #important for SAPT in psi4, default
symmetry c1  #important for SAPT in psi4, default
}

set PROPERTIES_ORIGIN ["COM"]
properties('MP2/aug-cc-pvtz', properties = ['dipole'])
--------------------------------------------------------------------------

    Molecular point group: c1
  Charge       = 0
  Multiplicity = 1
  Basis Set: AUG-CC-PVTZ
    Blend: AUG-CC-PVTZ
  Basis Set: (AUG-CC-PVTZ AUX)
    Blend: AUG-CC-PVTZ-JKFIT

    Orbital Energies [Eh]
    ---------------------

    Doubly Occupied:

       1A    -20.517909     2A    -15.584101     3A    -11.353756
       4A    -11.272484     5A    -11.258303     6A    -11.249085
       7A    -11.247520     8A    -11.246015     9A    -11.241518
      10A    -11.239854    11A    -11.238481    12A    -11.237628
      13A     -1.371896    14A     -1.242296    15A     -1.164731
      16A     -1.076093    17A     -1.036148    18A     -1.013988
      19A     -0.939087    20A     -0.882867    21A     -0.841811
      22A     -0.797428    23A     -0.778914    24A     -0.699186
      25A     -0.690986    26A     -0.671512    27A     -0.655988
      28A     -0.621820    29A     -0.614270    30A     -0.596295
      31A     -0.589744    32A     -0.577657    33A     -0.557800
      34A     -0.541717    35A     -0.520421    36A     -0.506066
      37A     -0.491532    38A     -0.484605    39A     -0.476974
      40A     -0.426193    41A     -0.382930    42A     -0.344386
      43A     -0.335960

  @DF-RHF Final Energy:  -514.58927035340844

   => Energetics <=

    Nuclear Repulsion Energy =            684.5041724224627160
    One-Electron Energy =               -2056.9509755661979398
    Two-Electron Energy =                 857.8575327903267862
    Total Energy =                       -514.5892703534084376
  Basis Set: (AUG-CC-PVTZ AUX)
    Blend: AUG-CC-PVTZ-RI
    Molecular point group: c1

    Geometry (in Angstrom), charge = 0, multiplicity = 1:

       Center              X                  Y                   Z               Mass
    ------------   -----------------  -----------------  -----------------  -----------------
         O            0.955687248028     2.459775653847    -0.650274609783    15.994914619570
         N            2.060321248028     0.642762653847     0.184359390217    14.003074004430
         C            0.770369248028    -1.610176346153    -0.863911609783    12.000000000000
         C            1.829708248028    -1.826268346153     0.225792390217    12.000000000000
         C           -0.435810751972    -0.847709346153    -0.375095609783    12.000000000000
         C            2.054434148028    -0.461040146153     1.085042190217    12.000000000000
         C           -0.351145751972     0.529917653847    -0.084969609783    12.000000000000
         C            0.925862248028     1.304255653847    -0.216673609783    12.000000000000
         C           -1.677425751972    -1.478267346153    -0.230483609783    12.000000000000
         C           -1.489652751972     1.248477653847     0.297993390217    12.000000000000
         C           -2.807274751972    -0.769483346153     0.180889390217    12.000000000000
         C           -2.714205751972     0.599630653847     0.442070390217    12.000000000000
         H            0.452286248028    -2.576777346153    -1.270584609783     1.007825032230
         H            1.230533248028    -1.056221346153    -1.689225609783     1.007825032230
         H            1.520478248028    -2.625592346153     0.910754390217     1.007825032230
         H            2.768309248028    -2.142953346153    -0.244030609783     1.007825032230
         H            1.242971248028    -0.443432346153     1.776099390217     1.007825032230
         H            2.986925248028    -0.581060346153     1.579886390217     1.007825032230
         H            2.893256248028     1.222275653847     0.162291390217     1.007825032230
         H           -1.761607751972    -2.539377346153    -0.460757609783     1.007825032230
         H           -1.394141751972     2.316990653847     0.473607390217     1.007825032230
         H           -3.760210751972    -1.282959346153     0.286691390217     1.007825032230
         H           -3.594290751972     1.159413653847     0.749119390217     1.007825032230

  Basis Set: AUG-CC-PVTZ
    Blend: AUG-CC-PVTZ
  Basis Set: (AUG-CC-PVTZ AUX)
    Blend: AUG-CC-PVTZ-JKFIT
	 Reference Energy          =    -514.5892703534084376 [Eh]
	 Singles Energy            =      -0.0000000000000000 [Eh]
	 Same-Spin Energy          =      -0.5585046820573256 [Eh]
	 Opposite-Spin Energy      =      -1.7444102583596652 [Eh]
	 Correlation Energy        =      -2.3029149404169909 [Eh]
	 Total Energy              =    -516.8921852938253778 [Eh]

	 ================> DF-SCS-MP2 Energies <==================
	-----------------------------------------------------------
	 SCS Same-Spin Scale       =       0.3333333333333333 [-]
	 SCS Opposite-Spin Scale   =       1.2000000000000000 [-]
	 SCS Same-Spin Energy      =      -0.1861682273524419 [Eh]
	 SCS Opposite-Spin Energy  =      -2.0932923100315981 [Eh]
	 SCS Correlation Energy    =      -2.2794605373840398 [Eh]
	 SCS Total Energy          =    -516.8687308907924489 [Eh]
	-----------------------------------------------------------

  Dipole Moment: [D]
     X:     0.6101      Y:    -3.4316      Z:     1.7718     Total:     3.9099

*** Psi4 exiting successfully. Buy a developer a beer!
