                               Psi4 1.4a3.dev225

  ==> Input File <==

--------------------------------------------------------------------------
#psi4
#
memory 32 gb

molecule  {
0 1
  O        0.9417500     2.5148810    -0.6596880
  N        2.0463840     0.6978680     0.1749460
  C        0.7564320    -1.5550710    -0.8733250
  C        1.8157710    -1.7711630     0.2163790
  C       -0.4497480    -0.7926040    -0.3845090
  C        2.0269688    -0.4734824     1.0112517
  C       -0.3650830     0.5850230    -0.0943830
  C        0.9119250     1.3593610    -0.2260870
  C       -1.6913630    -1.4231620    -0.2398970
  C       -1.5035900     1.3035830     0.2885800
  C       -2.8212120    -0.7143780     0.1714760
  C       -2.7281430     0.6547360     0.4326570
  H        0.4383490    -2.5216720    -1.2799980
  H        1.2165960    -1.0011160    -1.6986390
  H        1.5065410    -2.5704870     0.9013410
  H        2.7543720    -2.0878480    -0.2534440
  H        1.2290340    -0.3883270     1.7666860
  H        2.9729880    -0.5259550     1.5704730
  H        2.8793190     1.2773810     0.1528780
  H       -1.7755450    -2.4842720    -0.4701710
  H       -1.4080790     2.3720960     0.4641940
  H       -3.7741480    -1.2278540     0.2772780
  H       -3.6082280     1.2145190     0.7397060
units angstrom
no_reorient  #important for SAPT in psi4, default
symmetry c1  #important for SAPT in psi4, default
}

set PROPERTIES_ORIGIN ["COM"]
properties('MP2/aug-cc-pvtz', properties = ['dipole'])
--------------------------------------------------------------------------

    Molecular point group: c1
  Charge       = 0
  Multiplicity = 1
  Basis Set: AUG-CC-PVTZ
    Blend: AUG-CC-PVTZ
  Basis Set: (AUG-CC-PVTZ AUX)
    Blend: AUG-CC-PVTZ-JKFIT

    Orbital Energies [Eh]
    ---------------------

    Doubly Occupied:

       1A    -20.516062     2A    -15.583514     3A    -11.352300
       4A    -11.275393     5A    -11.258366     6A    -11.248914
       7A    -11.247366     8A    -11.245715     9A    -11.241747
      10A    -11.239868    11A    -11.238997    12A    -11.237569
      13A     -1.370220    14A     -1.239441    15A     -1.164531
      16A     -1.081680    17A     -1.036832    18A     -1.019850
      19A     -0.937559    20A     -0.882536    21A     -0.841344
      22A     -0.798464    23A     -0.777195    24A     -0.697614
      25A     -0.687390    26A     -0.672137    27A     -0.653679
      28A     -0.623610    29A     -0.615426    30A     -0.600072
      31A     -0.587672    32A     -0.577177    33A     -0.557137
      34A     -0.534932    35A     -0.518153    36A     -0.509586
      37A     -0.491848    38A     -0.489879    39A     -0.477859
      40A     -0.424265    41A     -0.388985    42A     -0.343998
      43A     -0.336076

  @DF-RHF Final Energy:  -514.59622003697825

   => Energetics <=

    Nuclear Repulsion Energy =            685.3843578986346756
    One-Electron Energy =               -2058.7152452033351437
    Two-Electron Energy =                 858.7346672677221022
    Total Energy =                       -514.5962200369782522
  Basis Set: (AUG-CC-PVTZ AUX)
    Blend: AUG-CC-PVTZ-RI
    Molecular point group: c1

    Geometry (in Angstrom), charge = 0, multiplicity = 1:

       Center              X                  Y                   Z               Mass
    ------------   -----------------  -----------------  -----------------  -----------------
         O            0.956695027420     2.464807630195    -0.645478820672    15.994914619570
         N            2.061329027420     0.647794630195     0.189155179328    14.003074004430
         C            0.771377027420    -1.605144369805    -0.859115820672    12.000000000000
         C            1.830716027420    -1.821236369805     0.230588179328    12.000000000000
         C           -0.434802972580    -0.842677369805    -0.370299820672    12.000000000000
         C            2.041913827420    -0.523555769805     1.025460879328    12.000000000000
         C           -0.350137972580     0.534949630195    -0.080173820672    12.000000000000
         C            0.926870027420     1.309287630195    -0.211877820672    12.000000000000
         C           -1.676417972580    -1.473235369805    -0.225687820672    12.000000000000
         C           -1.488644972580     1.253509630195     0.302789179328    12.000000000000
         C           -2.806266972580    -0.764451369805     0.185685179328    12.000000000000
         C           -2.713197972580     0.604662630195     0.446866179328    12.000000000000
         H            0.453294027420    -2.571745369805    -1.265788820672     1.007825032230
         H            1.231541027420    -1.051189369805    -1.684429820672     1.007825032230
         H            1.521486027420    -2.620560369805     0.915550179328     1.007825032230
         H            2.769317027420    -2.137921369805    -0.239234820672     1.007825032230
         H            1.243979027420    -0.438400369805     1.780895179328     1.007825032230
         H            2.987933027420    -0.576028369805     1.584682179328     1.007825032230
         H            2.894264027420     1.227307630195     0.167087179328     1.007825032230
         H           -1.760599972580    -2.534345369805    -0.455961820672     1.007825032230
         H           -1.393133972580     2.322022630195     0.478403179328     1.007825032230
         H           -3.759202972580    -1.277927369805     0.291487179328     1.007825032230
         H           -3.593282972580     1.164445630195     0.753915179328     1.007825032230

  Basis Set: AUG-CC-PVTZ
    Blend: AUG-CC-PVTZ
  Basis Set: (AUG-CC-PVTZ AUX)
    Blend: AUG-CC-PVTZ-JKFIT
	 Reference Energy          =    -514.5962200369782522 [Eh]
	 Singles Energy            =      -0.0000000000000000 [Eh]
	 Same-Spin Energy          =      -0.5587547336847301 [Eh]
	 Opposite-Spin Energy      =      -1.7444112666277678 [Eh]
	 Correlation Energy        =      -2.3031660003124976 [Eh]
	 Total Energy              =    -516.8993860372906965 [Eh]

	 ================> DF-SCS-MP2 Energies <==================
	-----------------------------------------------------------
	 SCS Same-Spin Scale       =       0.3333333333333333 [-]
	 SCS Opposite-Spin Scale   =       1.2000000000000000 [-]
	 SCS Same-Spin Energy      =      -0.1862515778949100 [Eh]
	 SCS Opposite-Spin Energy  =      -2.0932935199533214 [Eh]
	 SCS Correlation Energy    =      -2.2795450978482314 [Eh]
	 SCS Total Energy          =    -516.8757651348264517 [Eh]
	-----------------------------------------------------------

  Dipole Moment: [D]
     X:     0.6210      Y:    -3.5689      Z:     1.7423     Total:     4.0198

*** Psi4 exiting successfully. Buy a developer a beer!
