                               Psi4 1.3.2 release

  ==> Input File <==

--------------------------------------------------------------------------
#psi4
#
memory 32 gb

molecule  {
0 1
  O        0.9417500     2.5148810    -0.6596880
  N        2.0463840     0.6978680     0.1749460
  C        0.8360779    -1.4191130    -0.8633674
  C        1.8157710    -1.7711630     0.2163790
  C       -0.4497480    -0.7926040    -0.3845090
  C        2.0266990    -0.4897580     1.0228720
  C       -0.3650830     0.5850230    -0.0943830
  C        0.9119250     1.3593610    -0.2260870
  C       -1.6913630    -1.4231620    -0.2398970
  C       -1.5035900     1.3035830     0.2885800
  C       -2.8212120    -0.7143780     0.1714760
  C       -2.7281430     0.6547360     0.4326570
  H        0.4383490    -2.5216720    -1.2799980
  H        1.2165960    -1.0011160    -1.6986390
  H        1.5065410    -2.5704870     0.9013410
  H        2.7543720    -2.0878480    -0.2534440
  H        1.2290340    -0.3883270     1.7666860
  H        2.9729880    -0.5259550     1.5704730
  H        2.8793190     1.2773810     0.1528780
  H       -1.7755450    -2.4842720    -0.4701710
  H       -1.4080790     2.3720960     0.4641940
  H       -3.7741480    -1.2278540     0.2772780
  H       -3.6082280     1.2145190     0.7397060
units angstrom
no_reorient  #important for SAPT in psi4, default
symmetry c1  #important for SAPT in psi4, default
}

set PROPERTIES_ORIGIN ["COM"]
properties('MP2/aug-cc-pvtz', properties = ['dipole'])
--------------------------------------------------------------------------

    Molecular point group: c1
  Charge       = 0
  Multiplicity = 1
  Basis Set: AUG-CC-PVTZ
    Blend: AUG-CC-PVTZ
  Basis Set: (AUG-CC-PVTZ AUX)
    Blend: AUG-CC-PVTZ-JKFIT

    Orbital Energies [Eh]
    ---------------------

    Doubly Occupied:

       1A    -20.516286     2A    -15.583518     3A    -11.352391
       4A    -11.274238     5A    -11.259270     6A    -11.249992
       7A    -11.246058     8A    -11.244787     9A    -11.244772
      10A    -11.243765    11A    -11.240928    12A    -11.238283
      13A     -1.370216    14A     -1.237364    15A     -1.164949
      16A     -1.087134    17A     -1.038540    18A     -1.021760
      19A     -0.938280    20A     -0.880924    21A     -0.845695
      22A     -0.798943    23A     -0.777142    24A     -0.699618
      25A     -0.684021    26A     -0.678174    27A     -0.654576
      28A     -0.622845    29A     -0.619406    30A     -0.601437
      31A     -0.589275    32A     -0.579664    33A     -0.555568
      34A     -0.538500    35A     -0.523309    36A     -0.511132
      37A     -0.499537    38A     -0.480327    39A     -0.453606
      40A     -0.424633    41A     -0.390462    42A     -0.344204
      43A     -0.338836

  @DF-RHF Final Energy:  -514.56925997090264

   => Energetics <=

    Nuclear Repulsion Energy =            686.7152837370250609
    One-Electron Energy =               -2061.2803566080406199
    Two-Electron Energy =                 859.9958129001130374
    Total Energy =                       -514.5692599709026354
  Basis Set: (AUG-CC-PVTZ AUX)
    Blend: AUG-CC-PVTZ-RI
    Molecular point group: c1

    Geometry (in Angstrom), charge = 0, multiplicity = 1:

       Center              X                  Y                   Z               Mass
    ------------   -----------------  -----------------  -----------------  -----------------
         O            0.950781883832     2.455891858116    -0.647086272046    15.994914619570
         N            2.055415883832     0.638878858116     0.187547727954    14.003074004430
         C            0.845109783832    -1.478102141884    -0.850765672046    12.000000000000
         C            1.824802883832    -1.830152141884     0.228980727954    12.000000000000
         C           -0.440716116168    -0.851593141884    -0.371907272046    12.000000000000
         C            2.035730883832    -0.548747141884     1.035473727954    12.000000000000
         C           -0.356051116168     0.526033858116    -0.081781272046    12.000000000000
         C            0.920956883832     1.300371858116    -0.213485272046    12.000000000000
         C           -1.682331116168    -1.482151141884    -0.227295272046    12.000000000000
         C           -1.494558116168     1.244593858116     0.301181727954    12.000000000000
         C           -2.812180116168    -0.773367141884     0.184077727954    12.000000000000
         C           -2.719111116168     0.595746858116     0.445258727954    12.000000000000
         H            0.447380883832    -2.580661141884    -1.267396272046     1.007825032230
         H            1.225627883832    -1.060105141884    -1.686037272046     1.007825032230
         H            1.515572883832    -2.629476141884     0.913942727954     1.007825032230
         H            2.763403883832    -2.146837141884    -0.240842272046     1.007825032230
         H            1.238065883832    -0.447316141884     1.779287727954     1.007825032230
         H            2.982019883832    -0.584944141884     1.583074727954     1.007825032230
         H            2.888350883832     1.218391858116     0.165479727954     1.007825032230
         H           -1.766513116168    -2.543261141884    -0.457569272046     1.007825032230
         H           -1.399047116168     2.313106858116     0.476795727954     1.007825032230
         H           -3.765116116168    -1.286843141884     0.289879727954     1.007825032230
         H           -3.599196116168     1.155529858116     0.752307727954     1.007825032230

  Basis Set: AUG-CC-PVTZ
    Blend: AUG-CC-PVTZ
  Basis Set: (AUG-CC-PVTZ AUX)
    Blend: AUG-CC-PVTZ-JKFIT
	 Reference Energy          =    -514.5692599709026354 [Eh]
	 Singles Energy            =      -0.0000000000000000 [Eh]
	 Same-Spin Energy          =      -0.5598842644613221 [Eh]
	 Opposite-Spin Energy      =      -1.7467677605969967 [Eh]
	 Correlation Energy        =      -2.3066520250583187 [Eh]
	 Total Energy              =    -516.8759119959609052 [Eh]

	 ================> DF-SCS-MP2 Energies <==================
	-----------------------------------------------------------
	 SCS Same-Spin Scale       =       0.3333333333333333 [-]
	 SCS Opposite-Spin Scale   =       1.2000000000000000 [-]
	 SCS Same-Spin Energy      =      -0.1866280881537740 [Eh]
	 SCS Opposite-Spin Energy  =      -2.0961213127163960 [Eh]
	 SCS Correlation Energy    =      -2.2827494008701699 [Eh]
	 SCS Total Energy          =    -516.8520093717728514 [Eh]
	-----------------------------------------------------------

  Dipole Moment: [D]
     X:     0.6294      Y:    -3.4917      Z:     1.8189     Total:     3.9871

*** Psi4 exiting successfully. Buy a developer a beer!
