                               Psi4 1.3.2 release

  ==> Input File <==

--------------------------------------------------------------------------
#psi4
#
memory 32 gb

molecule  {
0 1
  O        0.9417500     2.5148810    -0.6596880
  N        2.0463840     0.6978680     0.1749460
  C        0.7564320    -1.5550710    -0.8733250
  C        1.8157710    -1.7711630     0.2163790
  C       -0.4497480    -0.7926040    -0.3845090
  C        2.0266990    -0.4897580     1.0228720
  C       -0.3650830     0.5850230    -0.0943830
  C        0.9119250     1.3593610    -0.2260870
  C       -1.6913630    -1.4231620    -0.2398970
  C       -1.5035900     1.3035830     0.2885800
  C       -2.8212120    -0.7143780     0.1714760
  C       -2.7281430     0.6547360     0.4326570
  H        0.4383490    -2.5216720    -1.2799980
  H        1.1325735    -1.1022640    -1.5479429
  H        1.5065410    -2.5704870     0.9013410
  H        2.7543720    -2.0878480    -0.2534440
  H        1.2290340    -0.3883270     1.7666860
  H        2.9729880    -0.5259550     1.5704730
  H        2.8793190     1.2773810     0.1528780
  H       -1.7755450    -2.4842720    -0.4701710
  H       -1.4080790     2.3720960     0.4641940
  H       -3.7741480    -1.2278540     0.2772780
  H       -3.6082280     1.2145190     0.7397060
units angstrom
no_reorient  #important for SAPT in psi4, default
symmetry c1  #important for SAPT in psi4, default
}

set PROPERTIES_ORIGIN ["COM"]
properties('MP2/aug-cc-pvtz', properties = ['dipole'])
--------------------------------------------------------------------------

    Molecular point group: c1
  Charge       = 0
  Multiplicity = 1
  Basis Set: AUG-CC-PVTZ
    Blend: AUG-CC-PVTZ
  Basis Set: (AUG-CC-PVTZ AUX)
    Blend: AUG-CC-PVTZ-JKFIT

    Orbital Energies [Eh]
    ---------------------

    Doubly Occupied:

       1A    -20.515292     2A    -15.583233     3A    -11.351707
       4A    -11.275636     5A    -11.257311     6A    -11.248470
       7A    -11.247091     8A    -11.245379     9A    -11.241079
      10A    -11.239565    11A    -11.236846    12A    -11.215221
      13A     -1.369275    14A     -1.235420    15A     -1.164790
      16A     -1.090252    17A     -1.036592    18A     -1.020191
      19A     -0.950670    20A     -0.881523    21A     -0.842676
      22A     -0.808517    23A     -0.777634    24A     -0.700342
      25A     -0.685510    26A     -0.676707    27A     -0.658911
      28A     -0.623728    29A     -0.617309    30A     -0.599626
      31A     -0.588872    32A     -0.583192    33A     -0.556605
      34A     -0.541373    35A     -0.519629    36A     -0.510218
      37A     -0.496873    38A     -0.492061    39A     -0.478750
      40A     -0.423580    41A     -0.389932    42A     -0.343682
      43A     -0.336724

  @DF-RHF Final Energy:  -514.56375477582969

   => Energetics <=

    Nuclear Repulsion Energy =            686.1980451932899996
    One-Electron Energy =               -2060.2076159025273228
    Two-Electron Energy =                 859.4458159334076299
    Total Energy =                       -514.5637547758296932
  Basis Set: (AUG-CC-PVTZ AUX)
    Blend: AUG-CC-PVTZ-RI
    Molecular point group: c1

    Geometry (in Angstrom), charge = 0, multiplicity = 1:

       Center              X                  Y                   Z               Mass
    ------------   -----------------  -----------------  -----------------  -----------------
         O            0.957240814362     2.466652919412    -0.647287310566    15.994914619570
         N            2.061874814362     0.649639919412     0.187346689434    14.003074004430
         C            0.771922814362    -1.603299080588    -0.860924310566    12.000000000000
         C            1.831261814362    -1.819391080588     0.228779689434    12.000000000000
         C           -0.434257185638    -0.840832080588    -0.372108310566    12.000000000000
         C            2.042189814362    -0.537986080588     1.035272689434    12.000000000000
         C           -0.349592185638     0.536794919412    -0.081982310566    12.000000000000
         C            0.927415814362     1.311132919412    -0.213686310566    12.000000000000
         C           -1.675872185638    -1.471390080588    -0.227496310566    12.000000000000
         C           -1.488099185638     1.255354919412     0.300980689434    12.000000000000
         C           -2.805721185638    -0.762606080588     0.183876689434    12.000000000000
         C           -2.712652185638     0.606507919412     0.445057689434    12.000000000000
         H            0.453839814362    -2.569900080588    -1.267597310566     1.007825032230
         H            1.148064314362    -1.150492080588    -1.535542210566     1.007825032230
         H            1.522031814362    -2.618715080588     0.913741689434     1.007825032230
         H            2.769862814362    -2.136076080588    -0.241043310566     1.007825032230
         H            1.244524814362    -0.436555080588     1.779086689434     1.007825032230
         H            2.988478814362    -0.574183080588     1.582873689434     1.007825032230
         H            2.894809814362     1.229152919412     0.165278689434     1.007825032230
         H           -1.760054185638    -2.532500080588    -0.457770310566     1.007825032230
         H           -1.392588185638     2.323867919412     0.476594689434     1.007825032230
         H           -3.758657185638    -1.276082080588     0.289678689434     1.007825032230
         H           -3.592737185638     1.166290919412     0.752106689434     1.007825032230

  Basis Set: AUG-CC-PVTZ
    Blend: AUG-CC-PVTZ
  Basis Set: (AUG-CC-PVTZ AUX)
    Blend: AUG-CC-PVTZ-JKFIT
	 Reference Energy          =    -514.5637547758296932 [Eh]
	 Singles Energy            =      -0.0000000000000000 [Eh]
	 Same-Spin Energy          =      -0.5584220793213766 [Eh]
	 Opposite-Spin Energy      =      -1.7434236251464827 [Eh]
	 Correlation Energy        =      -2.3018457044678593 [Eh]
	 Total Energy              =    -516.8656004802975303 [Eh]

	 ================> DF-SCS-MP2 Energies <==================
	-----------------------------------------------------------
	 SCS Same-Spin Scale       =       0.3333333333333333 [-]
	 SCS Opposite-Spin Scale   =       1.2000000000000000 [-]
	 SCS Same-Spin Energy      =      -0.1861406931071255 [Eh]
	 SCS Opposite-Spin Energy  =      -2.0921083501757791 [Eh]
	 SCS Correlation Energy    =      -2.2782490432829046 [Eh]
	 SCS Total Energy          =    -516.8420038191126196 [Eh]
	-----------------------------------------------------------

  Dipole Moment: [D]
     X:     0.6456      Y:    -3.6105      Z:     1.7234     Total:     4.0524

*** Psi4 exiting successfully. Buy a developer a beer!
