                               Psi4 1.3.2 release

  ==> Input File <==

--------------------------------------------------------------------------
#psi4
#
memory 32 gb

molecule  {
0 1
  O        0.9417500     2.5148810    -0.6596880
  N        2.0463840     0.6978680     0.1749460
  C        0.7564320    -1.5550710    -0.8733250
  C        1.8157710    -1.7711630     0.2163790
  C       -0.3539260    -0.7902488    -0.4069536
  C        2.0266990    -0.4897580     1.0228720
  C       -0.3650830     0.5850230    -0.0943830
  C        0.9119250     1.3593610    -0.2260870
  C       -1.6913630    -1.4231620    -0.2398970
  C       -1.5035900     1.3035830     0.2885800
  C       -2.8212120    -0.7143780     0.1714760
  C       -2.7281430     0.6547360     0.4326570
  H        0.4383490    -2.5216720    -1.2799980
  H        1.2165960    -1.0011160    -1.6986390
  H        1.5065410    -2.5704870     0.9013410
  H        2.7543720    -2.0878480    -0.2534440
  H        1.2290340    -0.3883270     1.7666860
  H        2.9729880    -0.5259550     1.5704730
  H        2.8793190     1.2773810     0.1528780
  H       -1.7755450    -2.4842720    -0.4701710
  H       -1.4080790     2.3720960     0.4641940
  H       -3.7741480    -1.2278540     0.2772780
  H       -3.6082280     1.2145190     0.7397060
units angstrom
no_reorient  #important for SAPT in psi4, default
symmetry c1  #important for SAPT in psi4, default
}

set PROPERTIES_ORIGIN ["COM"]
properties('MP2/aug-cc-pvtz', properties = ['dipole'])
--------------------------------------------------------------------------

    Molecular point group: c1
  Charge       = 0
  Multiplicity = 1
  Basis Set: AUG-CC-PVTZ
    Blend: AUG-CC-PVTZ
  Basis Set: (AUG-CC-PVTZ AUX)
    Blend: AUG-CC-PVTZ-JKFIT

    Orbital Energies [Eh]
    ---------------------

    Doubly Occupied:

       1A    -20.513637     2A    -15.582852     3A    -11.348628
       4A    -11.276642     5A    -11.265075     6A    -11.250163
       7A    -11.248119     8A    -11.247679     9A    -11.245260
      10A    -11.240198    11A    -11.240003    12A    -11.237402
      13A     -1.367979    14A     -1.235766    15A     -1.159630
      16A     -1.092951    17A     -1.037736    18A     -1.014740
      19A     -0.941580    20A     -0.880135    21A     -0.844892
      22A     -0.797753    23A     -0.771538    24A     -0.695431
      25A     -0.687887    26A     -0.674632    27A     -0.654830
      28A     -0.626523    29A     -0.614531    30A     -0.598855
      31A     -0.588819    32A     -0.574387    33A     -0.561058
      34A     -0.538405    35A     -0.521107    36A     -0.506557
      37A     -0.497585    38A     -0.486187    39A     -0.481267
      40A     -0.418746    41A     -0.389643    42A     -0.344985
      43A     -0.326139

  @DF-RHF Final Energy:  -514.58228912543564

   => Energetics <=

    Nuclear Repulsion Energy =            685.3212210403848985
    One-Electron Energy =               -2058.5511594615800277
    Two-Electron Energy =                 858.6476492957594928
    Total Energy =                       -514.5822891254356364
  Basis Set: (AUG-CC-PVTZ AUX)
    Blend: AUG-CC-PVTZ-RI
    Molecular point group: c1

    Geometry (in Angstrom), charge = 0, multiplicity = 1:

       Center              X                  Y                   Z               Mass
    ------------   -----------------  -----------------  -----------------  -----------------
         O            0.949576840979     2.465844634079    -0.644672461577    15.994914619570
         N            2.054210840979     0.648831634079     0.189961538423    14.003074004430
         C            0.764258840979    -1.604107365921    -0.858309461577    12.000000000000
         C            1.823597840979    -1.820199365921     0.231394538423    12.000000000000
         C           -0.346099159021    -0.839285165921    -0.391938061577    12.000000000000
         C            2.034525840979    -0.538794365921     1.037887538423    12.000000000000
         C           -0.357256159021     0.535986634079    -0.079367461577    12.000000000000
         C            0.919751840979     1.310324634079    -0.211071461577    12.000000000000
         C           -1.683536159021    -1.472198365921    -0.224881461577    12.000000000000
         C           -1.495763159021     1.254546634079     0.303595538423    12.000000000000
         C           -2.813385159021    -0.763414365921     0.186491538423    12.000000000000
         C           -2.720316159021     0.605699634079     0.447672538423    12.000000000000
         H            0.446175840979    -2.570708365921    -1.264982461577     1.007825032230
         H            1.224422840979    -1.050152365921    -1.683623461577     1.007825032230
         H            1.514367840979    -2.619523365921     0.916356538423     1.007825032230
         H            2.762198840979    -2.136884365921    -0.238428461577     1.007825032230
         H            1.236860840979    -0.437363365921     1.781701538423     1.007825032230
         H            2.980814840979    -0.574991365921     1.585488538423     1.007825032230
         H            2.887145840979     1.228344634079     0.167893538423     1.007825032230
         H           -1.767718159021    -2.533308365921    -0.455155461577     1.007825032230
         H           -1.400252159021     2.323059634079     0.479209538423     1.007825032230
         H           -3.766321159021    -1.276890365921     0.292293538423     1.007825032230
         H           -3.600401159021     1.165482634079     0.754721538423     1.007825032230

  Basis Set: AUG-CC-PVTZ
    Blend: AUG-CC-PVTZ
  Basis Set: (AUG-CC-PVTZ AUX)
    Blend: AUG-CC-PVTZ-JKFIT
	 Reference Energy          =    -514.5822891254356364 [Eh]
	 Singles Energy            =      -0.0000000000000000 [Eh]
	 Same-Spin Energy          =      -0.5600012677479977 [Eh]
	 Opposite-Spin Energy      =      -1.7465356558659302 [Eh]
	 Correlation Energy        =      -2.3065369236139279 [Eh]
	 Total Energy              =    -516.8888260490496123 [Eh]

	 ================> DF-SCS-MP2 Energies <==================
	-----------------------------------------------------------
	 SCS Same-Spin Scale       =       0.3333333333333333 [-]
	 SCS Opposite-Spin Scale   =       1.2000000000000000 [-]
	 SCS Same-Spin Energy      =      -0.1866670892493326 [Eh]
	 SCS Opposite-Spin Energy  =      -2.0958427870391163 [Eh]
	 SCS Correlation Energy    =      -2.2825098762884490 [Eh]
	 SCS Total Energy          =    -516.8647990017241227 [Eh]
	-----------------------------------------------------------

  Dipole Moment: [D]
     X:     0.7041      Y:    -3.6793      Z:     1.7444     Total:     4.1323

*** Psi4 exiting successfully. Buy a developer a beer!
