                               Psi4 1.4a3.dev225

  ==> Input File <==

--------------------------------------------------------------------------
#psi4
#
memory 32 gb

molecule  {
0 1
  O        0.9417500     2.5148810    -0.6596880
  N        2.0463840     0.6978680     0.1749460
  C        0.7564320    -1.5550710    -0.8733250
  C        1.8157710    -1.7711630     0.2163790
  C       -0.4497480    -0.7926040    -0.3845090
  C        2.0266990    -0.4897580     1.0228720
  C       -0.3650830     0.5850230    -0.0943830
  C        0.9119250     1.3593610    -0.2260870
  C       -1.6913630    -1.4231620    -0.2398970
  C       -1.5035900     1.3035830     0.2885800
  C       -2.8212120    -0.7143780     0.1714760
  C       -2.7281430     0.6547360     0.4326570
  H        0.4383490    -2.5216720    -1.2799980
  H        1.2165960    -1.0011160    -1.6986390
  H        1.5065410    -2.5704870     0.9013410
  H        2.7543720    -2.0878480    -0.2534440
  H        1.1926230    -0.3836970     1.8006389
  H        2.9729880    -0.5259550     1.5704730
  H        2.8793190     1.2773810     0.1528780
  H       -1.7755450    -2.4842720    -0.4701710
  H       -1.4080790     2.3720960     0.4641940
  H       -3.7741480    -1.2278540     0.2772780
  H       -3.6082280     1.2145190     0.7397060
units angstrom
no_reorient  #important for SAPT in psi4, default
symmetry c1  #important for SAPT in psi4, default
}

set PROPERTIES_ORIGIN ["COM"]
properties('MP2/aug-cc-pvtz', properties = ['dipole'])
--------------------------------------------------------------------------

    Molecular point group: c1
  Charge       = 0
  Multiplicity = 1
  Basis Set: AUG-CC-PVTZ
    Blend: AUG-CC-PVTZ
  Basis Set: (AUG-CC-PVTZ AUX)
    Blend: AUG-CC-PVTZ-JKFIT

    Orbital Energies [Eh]
    ---------------------

    Doubly Occupied:

       1A    -20.515465     2A    -15.583371     3A    -11.351682
       4A    -11.281565     5A    -11.258245     6A    -11.248742
       7A    -11.247137     8A    -11.245473     9A    -11.241676
      10A    -11.239753    11A    -11.239516    12A    -11.238443
      13A     -1.369323    14A     -1.234787    15A     -1.164169
      16A     -1.082203    17A     -1.036568    18A     -1.020147
      19A     -0.936448    20A     -0.881676    21A     -0.840237
      22A     -0.797906    23A     -0.775486    24A     -0.696512
      25A     -0.683503    26A     -0.671492    27A     -0.652720
      28A     -0.622875    29A     -0.616056    30A     -0.599976
      31A     -0.587036    32A     -0.575386    33A     -0.556750
      34A     -0.534011    35A     -0.517053    36A     -0.509961
      37A     -0.492989    38A     -0.489836    39A     -0.477643
      40A     -0.423625    41A     -0.389181    42A     -0.343749
      43A     -0.335933

  @DF-RHF Final Energy:  -514.59436925159469

   => Energetics <=

    Nuclear Repulsion Energy =            684.9128385075737242
    One-Electron Energy =               -2057.8018068174151267
    Two-Electron Energy =                 858.2945990582467175
    Total Energy =                       -514.5943692515946850
  Basis Set: (AUG-CC-PVTZ AUX)
    Blend: AUG-CC-PVTZ-RI
    Molecular point group: c1

    Geometry (in Angstrom), charge = 0, multiplicity = 1:

       Center              X                  Y                   Z               Mass
    ------------   -----------------  -----------------  -----------------  -----------------
         O            0.956942932248     2.465991117657    -0.646556904861    15.994914619570
         N            2.061576932248     0.648978117657     0.188077095139    14.003074004430
         C            0.771624932248    -1.603960882343    -0.860193904861    12.000000000000
         C            1.830963932248    -1.820052882343     0.229510095139    12.000000000000
         C           -0.434555067752    -0.841493882343    -0.371377904861    12.000000000000
         C            2.041891932248    -0.538647882343     1.036003095139    12.000000000000
         C           -0.349890067752     0.536133117657    -0.081251904861    12.000000000000
         C            0.927117932248     1.310471117657    -0.212955904861    12.000000000000
         C           -1.676170067752    -1.472051882343    -0.226765904861    12.000000000000
         C           -1.488397067752     1.254693117657     0.301711095139    12.000000000000
         C           -2.806019067752    -0.763267882343     0.184607095139    12.000000000000
         C           -2.712950067752     0.605846117657     0.445788095139    12.000000000000
         H            0.453541932248    -2.570561882343    -1.266866904861     1.007825032230
         H            1.231788932248    -1.050005882343    -1.685507904861     1.007825032230
         H            1.521733932248    -2.619376882343     0.914472095139     1.007825032230
         H            2.769564932248    -2.136737882343    -0.240312904861     1.007825032230
         H            1.207815932248    -0.432586882343     1.813769995139     1.007825032230
         H            2.988180932248    -0.574844882343     1.583604095139     1.007825032230
         H            2.894511932248     1.228491117657     0.166009095139     1.007825032230
         H           -1.760352067752    -2.533161882343    -0.457039904861     1.007825032230
         H           -1.392886067752     2.323206117657     0.477325095139     1.007825032230
         H           -3.758955067752    -1.276743882343     0.290409095139     1.007825032230
         H           -3.593035067752     1.165629117657     0.752837095139     1.007825032230

  Basis Set: AUG-CC-PVTZ
    Blend: AUG-CC-PVTZ
  Basis Set: (AUG-CC-PVTZ AUX)
    Blend: AUG-CC-PVTZ-JKFIT
	 Reference Energy          =    -514.5943692515946850 [Eh]
	 Singles Energy            =      -0.0000000000000000 [Eh]
	 Same-Spin Energy          =      -0.5587622144160598 [Eh]
	 Opposite-Spin Energy      =      -1.7448302175341115 [Eh]
	 Correlation Energy        =      -2.3035924319501713 [Eh]
	 Total Energy              =    -516.8979616835448496 [Eh]

	 ================> DF-SCS-MP2 Energies <==================
	-----------------------------------------------------------
	 SCS Same-Spin Scale       =       0.3333333333333333 [-]
	 SCS Opposite-Spin Scale   =       1.2000000000000000 [-]
	 SCS Same-Spin Energy      =      -0.1862540714720199 [Eh]
	 SCS Opposite-Spin Energy  =      -2.0937962610409335 [Eh]
	 SCS Correlation Energy    =      -2.2800503325129533 [Eh]
	 SCS Total Energy          =    -516.8744195841076134 [Eh]
	-----------------------------------------------------------

  Dipole Moment: [D]
     X:     0.6385      Y:    -3.6102      Z:     1.7409     Total:     4.0586

*** Psi4 exiting successfully. Buy a developer a beer!
