                               Psi4 1.3.2 release

  ==> Input File <==

--------------------------------------------------------------------------
#psi4
#
memory 32 gb

molecule  {
0 1
  O        0.9417500     2.5148810    -0.6596880
  N        2.1191680     0.8164323     0.1388655
  C        0.7564320    -1.5550710    -0.8733250
  C        1.8157710    -1.7711630     0.2163790
  C       -0.4497480    -0.7926040    -0.3845090
  C        2.0266990    -0.4897580     1.0228720
  C       -0.3650830     0.5850230    -0.0943830
  C        0.9119250     1.3593610    -0.2260870
  C       -1.6913630    -1.4231620    -0.2398970
  C       -1.5035900     1.3035830     0.2885800
  C       -2.8212120    -0.7143780     0.1714760
  C       -2.7281430     0.6547360     0.4326570
  H        0.4383490    -2.5216720    -1.2799980
  H        1.2165960    -1.0011160    -1.6986390
  H        1.5065410    -2.5704870     0.9013410
  H        2.7543720    -2.0878480    -0.2534440
  H        1.2290340    -0.3883270     1.7666860
  H        2.9729880    -0.5259550     1.5704730
  H        2.8793190     1.2773810     0.1528780
  H       -1.7755450    -2.4842720    -0.4701710
  H       -1.4080790     2.3720960     0.4641940
  H       -3.7741480    -1.2278540     0.2772780
  H       -3.6082280     1.2145190     0.7397060
units angstrom
no_reorient  #important for SAPT in psi4, default
symmetry c1  #important for SAPT in psi4, default
}

set PROPERTIES_ORIGIN ["COM"]
properties('MP2/aug-cc-pvtz', properties = ['dipole'])
--------------------------------------------------------------------------

    Molecular point group: c1
  Charge       = 0
  Multiplicity = 1
  Basis Set: AUG-CC-PVTZ
    Blend: AUG-CC-PVTZ
  Basis Set: (AUG-CC-PVTZ AUX)
    Blend: AUG-CC-PVTZ-JKFIT

    Orbital Energies [Eh]
    ---------------------

    Doubly Occupied:

       1A    -20.506995     2A    -15.570957     3A    -11.349136
       4A    -11.282695     5A    -11.260238     6A    -11.251939
       7A    -11.250623     8A    -11.248159     9A    -11.243290
      10A    -11.242429    11A    -11.241531    12A    -11.241036
      13A     -1.367198    14A     -1.218086    15A     -1.167164
      16A     -1.086677    17A     -1.037167    18A     -1.022506
      19A     -0.939154    20A     -0.884961    21A     -0.842856
      22A     -0.801315    23A     -0.791787    24A     -0.708207
      25A     -0.675378    26A     -0.670957    27A     -0.642258
      28A     -0.630399    29A     -0.618773    30A     -0.599717
      31A     -0.584619    32A     -0.569876    33A     -0.555963
      34A     -0.535037    35A     -0.519160    36A     -0.511402
      37A     -0.494057    38A     -0.491212    39A     -0.479317
      40A     -0.417682    41A     -0.389639    42A     -0.345392
      43A     -0.337801

  @DF-RHF Final Energy:  -514.56998929804570

   => Energetics <=

    Nuclear Repulsion Energy =            682.8344310475224574
    One-Electron Energy =               -2053.5593505815154458
    Two-Electron Energy =                 856.1549302359472904
    Total Energy =                       -514.5699892980456980
  Basis Set: (AUG-CC-PVTZ AUX)
    Blend: AUG-CC-PVTZ-RI
    Molecular point group: c1

    Geometry (in Angstrom), charge = 0, multiplicity = 1:

       Center              X                  Y                   Z               Mass
    ------------   -----------------  -----------------  -----------------  -----------------
         O            0.950387996710     2.455713263993    -0.643207991996    15.994914619570
         N            2.127805996710     0.757264563993     0.155345508004    14.003074004430
         C            0.765069996710    -1.614238736007    -0.856844991996    12.000000000000
         C            1.824408996710    -1.830330736007     0.232859008004    12.000000000000
         C           -0.441110003290    -0.851771736007    -0.368028991996    12.000000000000
         C            2.035336996710    -0.548925736007     1.039352008004    12.000000000000
         C           -0.356445003290     0.525855263993    -0.077902991996    12.000000000000
         C            0.920562996710     1.300193263993    -0.209606991996    12.000000000000
         C           -1.682725003290    -1.482329736007    -0.223416991996    12.000000000000
         C           -1.494952003290     1.244415263993     0.305060008004    12.000000000000
         C           -2.812574003290    -0.773545736007     0.187956008004    12.000000000000
         C           -2.719505003290     0.595568263993     0.449137008004    12.000000000000
         H            0.446986996710    -2.580839736007    -1.263517991996     1.007825032230
         H            1.225233996710    -1.060283736007    -1.682158991996     1.007825032230
         H            1.515178996710    -2.629654736007     0.917821008004     1.007825032230
         H            2.763009996710    -2.147015736007    -0.236963991996     1.007825032230
         H            1.237671996710    -0.447494736007     1.783166008004     1.007825032230
         H            2.981625996710    -0.585122736007     1.586953008004     1.007825032230
         H            2.887956996710     1.218213263993     0.169358008004     1.007825032230
         H           -1.766907003290    -2.543439736007    -0.453690991996     1.007825032230
         H           -1.399441003290     2.312928263993     0.480674008004     1.007825032230
         H           -3.765510003290    -1.287021736007     0.293758008004     1.007825032230
         H           -3.599590003290     1.155351263993     0.756186008004     1.007825032230

  Basis Set: AUG-CC-PVTZ
    Blend: AUG-CC-PVTZ
  Basis Set: (AUG-CC-PVTZ AUX)
    Blend: AUG-CC-PVTZ-JKFIT
	 Reference Energy          =    -514.5699892980456980 [Eh]
	 Singles Energy            =      -0.0000000000000000 [Eh]
	 Same-Spin Energy          =      -0.5571463325782944 [Eh]
	 Opposite-Spin Energy      =      -1.7435184951775258 [Eh]
	 Correlation Energy        =      -2.3006648277558202 [Eh]
	 Total Energy              =    -516.8706541258014795 [Eh]

	 ================> DF-SCS-MP2 Energies <==================
	-----------------------------------------------------------
	 SCS Same-Spin Scale       =       0.3333333333333333 [-]
	 SCS Opposite-Spin Scale   =       1.2000000000000000 [-]
	 SCS Same-Spin Energy      =      -0.1857154441927648 [Eh]
	 SCS Opposite-Spin Energy  =      -2.0922221942130310 [Eh]
	 SCS Correlation Energy    =      -2.2779376384057959 [Eh]
	 SCS Total Energy          =    -516.8479269364514721 [Eh]
	-----------------------------------------------------------

  Dipole Moment: [D]
     X:     0.4132      Y:    -3.8570      Z:     1.8167     Total:     4.2834

*** Psi4 exiting successfully. Buy a developer a beer!
