                               Psi4 1.3.2 release

  ==> Input File <==

--------------------------------------------------------------------------
#psi4
#
memory 32 gb

molecule  {
0 1
  O        0.9417500     2.5148810    -0.6596880
  N        2.0463840     0.6978680     0.1749460
  C        0.7418471    -1.5769575    -0.8744660
  C        1.8157710    -1.7711630     0.2163790
  C       -0.4497480    -0.7926040    -0.3845090
  C        2.0266990    -0.4897580     1.0228720
  C       -0.3650830     0.5850230    -0.0943830
  C        0.9119250     1.3593610    -0.2260870
  C       -1.6913630    -1.4231620    -0.2398970
  C       -1.5035900     1.3035830     0.2885800
  C       -2.8212120    -0.7143780     0.1714760
  C       -2.7281430     0.6547360     0.4326570
  H        0.4383490    -2.5216720    -1.2799980
  H        1.2165960    -1.0011160    -1.6986390
  H        1.5065410    -2.5704870     0.9013410
  H        2.7543720    -2.0878480    -0.2534440
  H        1.2290340    -0.3883270     1.7666860
  H        2.9729880    -0.5259550     1.5704730
  H        2.8793190     1.2773810     0.1528780
  H       -1.7755450    -2.4842720    -0.4701710
  H       -1.4080790     2.3720960     0.4641940
  H       -3.7741480    -1.2278540     0.2772780
  H       -3.6082280     1.2145190     0.7397060
units angstrom
no_reorient  #important for SAPT in psi4, default
symmetry c1  #important for SAPT in psi4, default
}

set PROPERTIES_ORIGIN ["COM"]
properties('MP2/aug-cc-pvtz', properties = ['dipole'])
--------------------------------------------------------------------------

    Molecular point group: c1
  Charge       = 0
  Multiplicity = 1
  Basis Set: AUG-CC-PVTZ
    Blend: AUG-CC-PVTZ
  Basis Set: (AUG-CC-PVTZ AUX)
    Blend: AUG-CC-PVTZ-JKFIT

    Orbital Energies [Eh]
    ---------------------

    Doubly Occupied:

       1A    -20.515057     2A    -15.582710     3A    -11.351406
       4A    -11.276161     5A    -11.258446     6A    -11.248661
       7A    -11.247478     8A    -11.245724     9A    -11.241295
      10A    -11.239677    11A    -11.239298    12A    -11.238250
      13A     -1.368971    14A     -1.234601    15A     -1.164199
      16A     -1.081572    17A     -1.036587    18A     -1.020513
      19A     -0.938705    20A     -0.881768    21A     -0.840659
      22A     -0.798980    23A     -0.776272    24A     -0.696488
      25A     -0.686432    26A     -0.671798    27A     -0.651889
      28A     -0.624216    29A     -0.615698    30A     -0.599876
      31A     -0.586798    32A     -0.575744    33A     -0.558923
      34A     -0.534982    35A     -0.517554    36A     -0.509980
      37A     -0.496794    38A     -0.487865    39A     -0.477789
      40A     -0.423232    41A     -0.389389    42A     -0.343882
      43A     -0.335582

  @DF-RHF Final Energy:  -514.59611699492234

   => Energetics <=

    Nuclear Repulsion Energy =            684.8678944691419019
    One-Electron Energy =               -2057.7042241529347848
    Two-Electron Energy =                 858.2402126888705425
    Total Energy =                       -514.5961169949223404
  Basis Set: (AUG-CC-PVTZ AUX)
    Blend: AUG-CC-PVTZ-RI
    Molecular point group: c1

    Geometry (in Angstrom), charge = 0, multiplicity = 1:

       Center              X                  Y                   Z               Mass
    ------------   -----------------  -----------------  -----------------  -----------------
         O            0.957801632229     2.467650525939    -0.646259478900    15.994914619570
         N            2.062435632229     0.650637525939     0.188374521100    14.003074004430
         C            0.757898732229    -1.624187974061    -0.861037478900    12.000000000000
         C            1.831822632229    -1.818393474061     0.229807521100    12.000000000000
         C           -0.433696367771    -0.839834474061    -0.371080478900    12.000000000000
         C            2.042750632229    -0.536988474061     1.036300521100    12.000000000000
         C           -0.349031367771     0.537792525939    -0.080954478900    12.000000000000
         C            0.927976632229     1.312130525939    -0.212658478900    12.000000000000
         C           -1.675311367771    -1.470392474061    -0.226468478900    12.000000000000
         C           -1.487538367771     1.256352525939     0.302008521100    12.000000000000
         C           -2.805160367771    -0.761608474061     0.184904521100    12.000000000000
         C           -2.712091367771     0.607505525939     0.446085521100    12.000000000000
         H            0.454400632229    -2.568902474061    -1.266569478900     1.007825032230
         H            1.232647632229    -1.048346474061    -1.685210478900     1.007825032230
         H            1.522592632229    -2.617717474061     0.914769521100     1.007825032230
         H            2.770423632229    -2.135078474061    -0.240015478900     1.007825032230
         H            1.245085632229    -0.435557474061     1.780114521100     1.007825032230
         H            2.989039632229    -0.573185474061     1.583901521100     1.007825032230
         H            2.895370632229     1.230150525939     0.166306521100     1.007825032230
         H           -1.759493367771    -2.531502474061    -0.456742478900     1.007825032230
         H           -1.392027367771     2.324865525939     0.477622521100     1.007825032230
         H           -3.758096367771    -1.275084474061     0.290706521100     1.007825032230
         H           -3.592176367771     1.167288525939     0.753134521100     1.007825032230

  Basis Set: AUG-CC-PVTZ
    Blend: AUG-CC-PVTZ
  Basis Set: (AUG-CC-PVTZ AUX)
    Blend: AUG-CC-PVTZ-JKFIT
	 Reference Energy          =    -514.5961169949223404 [Eh]
	 Singles Energy            =      -0.0000000000000000 [Eh]
	 Same-Spin Energy          =      -0.5585676102953332 [Eh]
	 Opposite-Spin Energy      =      -1.7442964893586659 [Eh]
	 Correlation Energy        =      -2.3028640996539993 [Eh]
	 Total Energy              =    -516.8989810945763566 [Eh]

	 ================> DF-SCS-MP2 Energies <==================
	-----------------------------------------------------------
	 SCS Same-Spin Scale       =       0.3333333333333333 [-]
	 SCS Opposite-Spin Scale   =       1.2000000000000000 [-]
	 SCS Same-Spin Energy      =      -0.1861892034317777 [Eh]
	 SCS Opposite-Spin Energy  =      -2.0931557872303990 [Eh]
	 SCS Correlation Energy    =      -2.2793449906621768 [Eh]
	 SCS Total Energy          =    -516.8754619855844794 [Eh]
	-----------------------------------------------------------

  Dipole Moment: [D]
     X:     0.6296      Y:    -3.6289      Z:     1.7684     Total:     4.0857

*** Psi4 exiting successfully. Buy a developer a beer!
