                               Psi4 1.3.2 release

  ==> Input File <==

--------------------------------------------------------------------------
#psi4
#
memory 32 gb

molecule  {
0 1
  O        0.9631361     2.5151098    -0.6570718
  N        2.0463840     0.6978680     0.1749460
  C        0.7564320    -1.5550710    -0.8733250
  C        1.8157710    -1.7711630     0.2163790
  C       -0.4497480    -0.7926040    -0.3845090
  C        2.0266990    -0.4897580     1.0228720
  C       -0.3650830     0.5850230    -0.0943830
  C        0.9119250     1.3593610    -0.2260870
  C       -1.6913630    -1.4231620    -0.2398970
  C       -1.5035900     1.3035830     0.2885800
  C       -2.8212120    -0.7143780     0.1714760
  C       -2.7281430     0.6547360     0.4326570
  H        0.4383490    -2.5216720    -1.2799980
  H        1.2165960    -1.0011160    -1.6986390
  H        1.5065410    -2.5704870     0.9013410
  H        2.7543720    -2.0878480    -0.2534440
  H        1.2290340    -0.3883270     1.7666860
  H        2.9729880    -0.5259550     1.5704730
  H        2.8793190     1.2773810     0.1528780
  H       -1.7755450    -2.4842720    -0.4701710
  H       -1.4080790     2.3720960     0.4641940
  H       -3.7741480    -1.2278540     0.2772780
  H       -3.6082280     1.2145190     0.7397060
units angstrom
no_reorient  #important for SAPT in psi4, default
symmetry c1  #important for SAPT in psi4, default
}

set PROPERTIES_ORIGIN ["COM"]
properties('MP2/aug-cc-pvtz', properties = ['dipole'])
--------------------------------------------------------------------------

    Molecular point group: c1
  Charge       = 0
  Multiplicity = 1
  Basis Set: AUG-CC-PVTZ
    Blend: AUG-CC-PVTZ
  Basis Set: (AUG-CC-PVTZ AUX)
    Blend: AUG-CC-PVTZ-JKFIT

    Orbital Energies [Eh]
    ---------------------

    Doubly Occupied:

       1A    -20.514781     2A    -15.581555     3A    -11.351307
       4A    -11.275184     5A    -11.258917     6A    -11.249354
       7A    -11.247987     8A    -11.246230     9A    -11.242192
      10A    -11.240285    11A    -11.239447    12A    -11.237772
      13A     -1.369126    14A     -1.233662    15A     -1.164681
      16A     -1.082289    17A     -1.037332    18A     -1.020819
      19A     -0.938219    20A     -0.881845    21A     -0.841465
      22A     -0.798482    23A     -0.776352    24A     -0.696766
      25A     -0.685421    26A     -0.672276    27A     -0.652484
      28A     -0.623692    29A     -0.615809    30A     -0.600183
      31A     -0.587182    32A     -0.576360    33A     -0.557051
      34A     -0.535842    35A     -0.518665    36A     -0.510238
      37A     -0.492893    38A     -0.490183    39A     -0.478525
      40A     -0.423348    41A     -0.388461    42A     -0.344623
      43A     -0.336558

  @DF-RHF Final Energy:  -514.59663334970855

   => Energetics <=

    Nuclear Repulsion Energy =            685.0302519660344842
    One-Electron Energy =               -2058.0220818870316180
    Two-Electron Energy =                 858.3951965712885794
    Total Energy =                       -514.5966333497085543
  Basis Set: (AUG-CC-PVTZ AUX)
    Blend: AUG-CC-PVTZ-RI
    Molecular point group: c1

    Geometry (in Angstrom), charge = 0, multiplicity = 1:

       Center              X                  Y                   Z               Mass
    ------------   -----------------  -----------------  -----------------  -----------------
         O            0.975977683819     2.466226166528    -0.643988054753    15.994914619570
         N            2.059225583819     0.648984366528     0.188029745247    14.003074004430
         C            0.769273583819    -1.603954633472    -0.860241254753    12.000000000000
         C            1.828612583819    -1.820046633472     0.229462745247    12.000000000000
         C           -0.436906416181    -0.841487633472    -0.371425254753    12.000000000000
         C            2.039540583819    -0.538641633472     1.035955745247    12.000000000000
         C           -0.352241416181     0.536139366528    -0.081299254753    12.000000000000
         C            0.924766583819     1.310477366528    -0.213003254753    12.000000000000
         C           -1.678521416181    -1.472045633472    -0.226813254753    12.000000000000
         C           -1.490748416181     1.254699366528     0.301663745247    12.000000000000
         C           -2.808370416181    -0.763261633472     0.184559745247    12.000000000000
         C           -2.715301416181     0.605852366528     0.445740745247    12.000000000000
         H            0.451190583819    -2.570555633472    -1.266914254753     1.007825032230
         H            1.229437583819    -1.049999633472    -1.685555254753     1.007825032230
         H            1.519382583819    -2.619370633472     0.914424745247     1.007825032230
         H            2.767213583819    -2.136731633472    -0.240360254753     1.007825032230
         H            1.241875583819    -0.437210633472     1.779769745247     1.007825032230
         H            2.985829583819    -0.574838633472     1.583556745247     1.007825032230
         H            2.892160583819     1.228497366528     0.165961745247     1.007825032230
         H           -1.762703416181    -2.533155633472    -0.457087254753     1.007825032230
         H           -1.395237416181     2.323212366528     0.477277745247     1.007825032230
         H           -3.761306416181    -1.276737633472     0.290361745247     1.007825032230
         H           -3.595386416181     1.165635366528     0.752789745247     1.007825032230

  Basis Set: AUG-CC-PVTZ
    Blend: AUG-CC-PVTZ
  Basis Set: (AUG-CC-PVTZ AUX)
    Blend: AUG-CC-PVTZ-JKFIT
	 Reference Energy          =    -514.5966333497085543 [Eh]
	 Singles Energy            =      -0.0000000000000000 [Eh]
	 Same-Spin Energy          =      -0.5586230024759335 [Eh]
	 Opposite-Spin Energy      =      -1.7443401863592369 [Eh]
	 Correlation Energy        =      -2.3029631888351707 [Eh]
	 Total Energy              =    -516.8995965385437330 [Eh]

	 ================> DF-SCS-MP2 Energies <==================
	-----------------------------------------------------------
	 SCS Same-Spin Scale       =       0.3333333333333333 [-]
	 SCS Opposite-Spin Scale   =       1.2000000000000000 [-]
	 SCS Same-Spin Energy      =      -0.1862076674919778 [Eh]
	 SCS Opposite-Spin Energy  =      -2.0932082236310841 [Eh]
	 SCS Correlation Energy    =      -2.2794158911230618 [Eh]
	 SCS Total Energy          =    -516.8760492408316622 [Eh]
	-----------------------------------------------------------

  Dipole Moment: [D]
     X:     0.5598      Y:    -3.6282      Z:     1.7625     Total:     4.0723

*** Psi4 exiting successfully. Buy a developer a beer!
