                               Psi4 1.3.2 release

  ==> Input File <==

--------------------------------------------------------------------------
#psi4
#
memory 32 gb

molecule  {
0 1
  O        0.9417500     2.5148810    -0.6596880
  N        2.0463840     0.6978680     0.1749460
  C        0.7564320    -1.5550710    -0.8733250
  C        1.8157710    -1.7711630     0.2163790
  C       -0.4497480    -0.7926040    -0.3845090
  C        2.0266990    -0.4897580     1.0228720
  C       -0.3172043     0.5835940    -0.1057461
  C        0.9119250     1.3593610    -0.2260870
  C       -1.6913630    -1.4231620    -0.2398970
  C       -1.5035900     1.3035830     0.2885800
  C       -2.8212120    -0.7143780     0.1714760
  C       -2.7281430     0.6547360     0.4326570
  H        0.4383490    -2.5216720    -1.2799980
  H        1.2165960    -1.0011160    -1.6986390
  H        1.5065410    -2.5704870     0.9013410
  H        2.7543720    -2.0878480    -0.2534440
  H        1.2290340    -0.3883270     1.7666860
  H        2.9729880    -0.5259550     1.5704730
  H        2.8793190     1.2773810     0.1528780
  H       -1.7755450    -2.4842720    -0.4701710
  H       -1.4080790     2.3720960     0.4641940
  H       -3.7741480    -1.2278540     0.2772780
  H       -3.6082280     1.2145190     0.7397060
units angstrom
no_reorient  #important for SAPT in psi4, default
symmetry c1  #important for SAPT in psi4, default
}

set PROPERTIES_ORIGIN ["COM"]
properties('MP2/aug-cc-pvtz', properties = ['dipole'])
--------------------------------------------------------------------------

    Molecular point group: c1
  Charge       = 0
  Multiplicity = 1
  Basis Set: AUG-CC-PVTZ
    Blend: AUG-CC-PVTZ
  Basis Set: (AUG-CC-PVTZ AUX)
    Blend: AUG-CC-PVTZ-JKFIT

    Orbital Energies [Eh]
    ---------------------

    Doubly Occupied:

       1A    -20.514436     2A    -15.581706     3A    -11.349312
       4A    -11.275357     5A    -11.260397     6A    -11.251652
       7A    -11.251260     8A    -11.247692     9A    -11.242456
      10A    -11.240311    11A    -11.238365    12A    -11.237624
      13A     -1.369634    14A     -1.235264    15A     -1.161627
      16A     -1.081913    17A     -1.039183    18A     -1.018756
      19A     -0.937737    20A     -0.888147    21A     -0.840624
      22A     -0.797376    23A     -0.775696    24A     -0.698459
      25A     -0.685107    26A     -0.674973    27A     -0.652558
      28A     -0.623844    29A     -0.616321    30A     -0.595367
      31A     -0.588734    32A     -0.576244    33A     -0.557405
      34A     -0.535377    35A     -0.518981    36A     -0.512800
      37A     -0.490627    38A     -0.488393    39A     -0.474514
      40A     -0.426222    41A     -0.389042    42A     -0.340576
      43A     -0.337854

  @DF-RHF Final Energy:  -514.59239785652153

   => Energetics <=

    Nuclear Repulsion Energy =            685.2675651590432153
    One-Electron Energy =               -2058.4800814609138797
    Two-Electron Energy =                 858.6201184453491351
    Total Energy =                       -514.5923978565215293
  Basis Set: (AUG-CC-PVTZ AUX)
    Blend: AUG-CC-PVTZ-RI
    Molecular point group: c1

    Geometry (in Angstrom), charge = 0, multiplicity = 1:

       Center              X                  Y                   Z               Mass
    ------------   -----------------  -----------------  -----------------  -----------------
         O            0.953148389808     2.466126539060    -0.645497980854    15.994914619570
         N            2.057782389808     0.649113539060     0.189136019146    14.003074004430
         C            0.767830389808    -1.603825460940    -0.859134980854    12.000000000000
         C            1.827169389808    -1.819917460940     0.230569019146    12.000000000000
         C           -0.438349610192    -0.841358460940    -0.370318980854    12.000000000000
         C            2.038097389808    -0.538512460940     1.037062019146    12.000000000000
         C           -0.305805910192     0.534839539060    -0.091556080854    12.000000000000
         C            0.923323389808     1.310606539060    -0.211896980854    12.000000000000
         C           -1.679964610192    -1.471916460940    -0.225706980854    12.000000000000
         C           -1.492191610192     1.254828539060     0.302770019146    12.000000000000
         C           -2.809813610192    -0.763132460940     0.185666019146    12.000000000000
         C           -2.716744610192     0.605981539060     0.446847019146    12.000000000000
         H            0.449747389808    -2.570426460940    -1.265807980854     1.007825032230
         H            1.227994389808    -1.049870460940    -1.684448980854     1.007825032230
         H            1.517939389808    -2.619241460940     0.915531019146     1.007825032230
         H            2.765770389808    -2.136602460940    -0.239253980854     1.007825032230
         H            1.240432389808    -0.437081460940     1.780876019146     1.007825032230
         H            2.984386389808    -0.574709460940     1.584663019146     1.007825032230
         H            2.890717389808     1.228626539060     0.167068019146     1.007825032230
         H           -1.764146610192    -2.533026460940    -0.455980980854     1.007825032230
         H           -1.396680610192     2.323341539060     0.478384019146     1.007825032230
         H           -3.762749610192    -1.276608460940     0.291468019146     1.007825032230
         H           -3.596829610192     1.165764539060     0.753896019146     1.007825032230

  Basis Set: AUG-CC-PVTZ
    Blend: AUG-CC-PVTZ
  Basis Set: (AUG-CC-PVTZ AUX)
    Blend: AUG-CC-PVTZ-JKFIT
	 Reference Energy          =    -514.5923978565215293 [Eh]
	 Singles Energy            =      -0.0000000000000000 [Eh]
	 Same-Spin Energy          =      -0.5591662430391912 [Eh]
	 Opposite-Spin Energy      =      -1.7453120390544727 [Eh]
	 Correlation Energy        =      -2.3044782820936640 [Eh]
	 Total Energy              =    -516.8968761386151982 [Eh]

	 ================> DF-SCS-MP2 Energies <==================
	-----------------------------------------------------------
	 SCS Same-Spin Scale       =       0.3333333333333333 [-]
	 SCS Opposite-Spin Scale   =       1.2000000000000000 [-]
	 SCS Same-Spin Energy      =      -0.1863887476797304 [Eh]
	 SCS Opposite-Spin Energy  =      -2.0943744468653671 [Eh]
	 SCS Correlation Energy    =      -2.2807631945450977 [Eh]
	 SCS Total Energy          =    -516.8731610510666314 [Eh]
	-----------------------------------------------------------

  Dipole Moment: [D]
     X:     0.5550      Y:    -3.6501      Z:     1.7740     Total:     4.0962

*** Psi4 exiting successfully. Buy a developer a beer!
