                               Psi4 1.3.2 release

  ==> Input File <==

--------------------------------------------------------------------------
#psi4
#
memory 32 gb

molecule  {
0 1
  O        0.9417500     2.5148810    -0.6596880
  N        1.9069987     0.6567476     0.1278757
  C        0.7564320    -1.5550710    -0.8733250
  C        1.8157710    -1.7711630     0.2163790
  C       -0.4497480    -0.7926040    -0.3845090
  C        2.0266990    -0.4897580     1.0228720
  C       -0.3650830     0.5850230    -0.0943830
  C        0.9119250     1.3593610    -0.2260870
  C       -1.6913630    -1.4231620    -0.2398970
  C       -1.5035900     1.3035830     0.2885800
  C       -2.8212120    -0.7143780     0.1714760
  C       -2.7281430     0.6547360     0.4326570
  H        0.4383490    -2.5216720    -1.2799980
  H        1.2165960    -1.0011160    -1.6986390
  H        1.5065410    -2.5704870     0.9013410
  H        2.7543720    -2.0878480    -0.2534440
  H        1.2290340    -0.3883270     1.7666860
  H        2.9729880    -0.5259550     1.5704730
  H        2.8793190     1.2773810     0.1528780
  H       -1.7755450    -2.4842720    -0.4701710
  H       -1.4080790     2.3720960     0.4641940
  H       -3.7741480    -1.2278540     0.2772780
  H       -3.6082280     1.2145190     0.7397060
units angstrom
no_reorient  #important for SAPT in psi4, default
symmetry c1  #important for SAPT in psi4, default
}

set PROPERTIES_ORIGIN ["COM"]
properties('MP2/aug-cc-pvtz', properties = ['dipole'])
--------------------------------------------------------------------------

    Molecular point group: c1
  Charge       = 0
  Multiplicity = 1
  Basis Set: AUG-CC-PVTZ
    Blend: AUG-CC-PVTZ
  Basis Set: (AUG-CC-PVTZ AUX)
    Blend: AUG-CC-PVTZ-JKFIT

    Orbital Energies [Eh]
    ---------------------

    Doubly Occupied:

       1A    -20.502026     2A    -15.598751     3A    -11.337579
       4A    -11.285576     5A    -11.255188     6A    -11.245473
       7A    -11.241236     8A    -11.241001     9A    -11.239910
      10A    -11.239727    11A    -11.239605    12A    -11.237012
      13A     -1.371642    14A     -1.254582    15A     -1.160718
      16A     -1.086178    17A     -1.037944    18A     -1.021507
      19A     -0.946647    20A     -0.880628    21A     -0.839955
      22A     -0.798936    23A     -0.768343    24A     -0.699571
      25A     -0.687021    26A     -0.668388    27A     -0.661171
      28A     -0.622895    29A     -0.612436    30A     -0.599644
      31A     -0.588713    32A     -0.565412    33A     -0.559626
      34A     -0.538918    35A     -0.518579    36A     -0.499819
      37A     -0.491741    38A     -0.486242    39A     -0.478141
      40A     -0.417088    41A     -0.394169    42A     -0.340116
      43A     -0.333981

  @DF-RHF Final Energy:  -514.56520082539043

   => Energetics <=

    Nuclear Repulsion Energy =            688.5965563202635167
    One-Electron Energy =               -2065.1358440282815536
    Two-Electron Energy =                 861.9740868826276028
    Total Energy =                       -514.5652008253904341
  Basis Set: (AUG-CC-PVTZ AUX)
    Blend: AUG-CC-PVTZ-RI
    Molecular point group: c1

    Geometry (in Angstrom), charge = 0, multiplicity = 1:

       Center              X                  Y                   Z               Mass
    ------------   -----------------  -----------------  -----------------  -----------------
         O            0.968831921801     2.469594690971    -0.642252646204    15.994914619570
         N            1.934080621801     0.611461290971     0.145311053796    14.003074004430
         C            0.783513921801    -1.600357309029    -0.855889646204    12.000000000000
         C            1.842852921801    -1.816449309029     0.233814353796    12.000000000000
         C           -0.422666078199    -0.837890309029    -0.367073646204    12.000000000000
         C            2.053780921801    -0.535044309029     1.040307353796    12.000000000000
         C           -0.338001078199     0.539736690971    -0.076947646204    12.000000000000
         C            0.939006921801     1.314074690971    -0.208651646204    12.000000000000
         C           -1.664281078199    -1.468448309029    -0.222461646204    12.000000000000
         C           -1.476508078199     1.258296690971     0.306015353796    12.000000000000
         C           -2.794130078199    -0.759664309029     0.188911353796    12.000000000000
         C           -2.701061078199     0.609449690971     0.450092353796    12.000000000000
         H            0.465430921801    -2.566958309029    -1.262562646204     1.007825032230
         H            1.243677921801    -1.046402309029    -1.681203646204     1.007825032230
         H            1.533622921801    -2.615773309029     0.918776353796     1.007825032230
         H            2.781453921801    -2.133134309029    -0.236008646204     1.007825032230
         H            1.256115921801    -0.433613309029     1.784121353796     1.007825032230
         H            3.000069921801    -0.571241309029     1.587908353796     1.007825032230
         H            2.906400921801     1.232094690971     0.170313353796     1.007825032230
         H           -1.748463078199    -2.529558309029    -0.452735646204     1.007825032230
         H           -1.380997078199     2.326809690971     0.481629353796     1.007825032230
         H           -3.747066078199    -1.273140309029     0.294713353796     1.007825032230
         H           -3.581146078199     1.169232690971     0.757141353796     1.007825032230

  Basis Set: AUG-CC-PVTZ
    Blend: AUG-CC-PVTZ
  Basis Set: (AUG-CC-PVTZ AUX)
    Blend: AUG-CC-PVTZ-JKFIT
	 Reference Energy          =    -514.5652008253904341 [Eh]
	 Singles Energy            =      -0.0000000000000000 [Eh]
	 Same-Spin Energy          =      -0.5604783719928625 [Eh]
	 Opposite-Spin Energy      =      -1.7470561931551098 [Eh]
	 Correlation Energy        =      -2.3075345651479724 [Eh]
	 Total Energy              =    -516.8727353905384234 [Eh]

	 ================> DF-SCS-MP2 Energies <==================
	-----------------------------------------------------------
	 SCS Same-Spin Scale       =       0.3333333333333333 [-]
	 SCS Opposite-Spin Scale   =       1.2000000000000000 [-]
	 SCS Same-Spin Energy      =      -0.1868261239976208 [Eh]
	 SCS Opposite-Spin Energy  =      -2.0964674317861318 [Eh]
	 SCS Correlation Energy    =      -2.2832935557837528 [Eh]
	 SCS Total Energy          =    -516.8484943811741914 [Eh]
	-----------------------------------------------------------

  Dipole Moment: [D]
     X:     1.1219      Y:    -3.9115      Z:     2.0255     Total:     4.5454

*** Psi4 exiting successfully. Buy a developer a beer!
