                               Psi4 1.3.2 release

  ==> Input File <==

--------------------------------------------------------------------------
#psi4
#
memory 32 gb

molecule  {
0 1
  O        0.9417500     2.5148810    -0.6596880
  N        2.0720687     0.7366468     0.1633888
  C        0.7564320    -1.5550710    -0.8733250
  C        1.8157710    -1.7711630     0.2163790
  C       -0.4497480    -0.7926040    -0.3845090
  C        2.0266990    -0.4897580     1.0228720
  C       -0.3650830     0.5850230    -0.0943830
  C        0.9119250     1.3593610    -0.2260870
  C       -1.6913630    -1.4231620    -0.2398970
  C       -1.5035900     1.3035830     0.2885800
  C       -2.8212120    -0.7143780     0.1714760
  C       -2.7281430     0.6547360     0.4326570
  H        0.4383490    -2.5216720    -1.2799980
  H        1.2165960    -1.0011160    -1.6986390
  H        1.5065410    -2.5704870     0.9013410
  H        2.7543720    -2.0878480    -0.2534440
  H        1.2290340    -0.3883270     1.7666860
  H        2.9729880    -0.5259550     1.5704730
  H        2.8793190     1.2773810     0.1528780
  H       -1.7755450    -2.4842720    -0.4701710
  H       -1.4080790     2.3720960     0.4641940
  H       -3.7741480    -1.2278540     0.2772780
  H       -3.6082280     1.2145190     0.7397060
units angstrom
no_reorient  #important for SAPT in psi4, default
symmetry c1  #important for SAPT in psi4, default
}

set PROPERTIES_ORIGIN ["COM"]
properties('MP2/aug-cc-pvtz', properties = ['dipole'])
--------------------------------------------------------------------------

    Molecular point group: c1
  Charge       = 0
  Multiplicity = 1
  Basis Set: AUG-CC-PVTZ
    Blend: AUG-CC-PVTZ
  Basis Set: (AUG-CC-PVTZ AUX)
    Blend: AUG-CC-PVTZ-JKFIT

    Orbital Energies [Eh]
    ---------------------

    Doubly Occupied:

       1A    -20.512307     2A    -15.578911     3A    -11.350218
       4A    -11.278204     5A    -11.258889     6A    -11.249372
       7A    -11.248656     8A    -11.246392     9A    -11.242221
      10A    -11.240350    11A    -11.240043    12A    -11.239332
      13A     -1.368155    14A     -1.228103    15A     -1.165045
      16A     -1.083658    17A     -1.036559    18A     -1.021302
      19A     -0.938226    20A     -0.881946    21A     -0.841940
      22A     -0.798294    23A     -0.781748    24A     -0.700473
      25A     -0.681160    26A     -0.672112    27A     -0.649463
      28A     -0.623627    29A     -0.619075    30A     -0.599806
      31A     -0.585182    32A     -0.576036    33A     -0.556764
      34A     -0.535571    35A     -0.519125    36A     -0.510565
      37A     -0.493217    38A     -0.490789    39A     -0.478660
      40A     -0.421857    41A     -0.389817    42A     -0.344344
      43A     -0.336639

  @DF-RHF Final Energy:  -514.59508564579994

   => Energetics <=

    Nuclear Repulsion Energy =            684.3153588850158258
    One-Electron Energy =               -2056.5925811421998333
    Two-Electron Energy =                 857.6821366113839531
    Total Energy =                       -514.5950856457999407
  Basis Set: (AUG-CC-PVTZ AUX)
    Blend: AUG-CC-PVTZ-RI
    Molecular point group: c1

    Geometry (in Angstrom), charge = 0, multiplicity = 1:

       Center              X                  Y                   Z               Mass
    ------------   -----------------  -----------------  -----------------  -----------------
         O            0.954482349479     2.462649035498    -0.645339807995    15.994914619570
         N            2.084801049479     0.684414835498     0.177736992005    14.003074004430
         C            0.769164349479    -1.607302964502    -0.858976807995    12.000000000000
         C            1.828503349479    -1.823394964502     0.230727192005    12.000000000000
         C           -0.437015650521    -0.844835964502    -0.370160807995    12.000000000000
         C            2.039431349479    -0.541989964502     1.037220192005    12.000000000000
         C           -0.352350650521     0.532791035498    -0.080034807995    12.000000000000
         C            0.924657349479     1.307129035498    -0.211738807995    12.000000000000
         C           -1.678630650521    -1.475393964502    -0.225548807995    12.000000000000
         C           -1.490857650521     1.251351035498     0.302928192005    12.000000000000
         C           -2.808479650521    -0.766609964502     0.185824192005    12.000000000000
         C           -2.715410650521     0.602504035498     0.447005192005    12.000000000000
         H            0.451081349479    -2.573903964502    -1.265649807995     1.007825032230
         H            1.229328349479    -1.053347964502    -1.684290807995     1.007825032230
         H            1.519273349479    -2.622718964502     0.915689192005     1.007825032230
         H            2.767104349479    -2.140079964502    -0.239095807995     1.007825032230
         H            1.241766349479    -0.440558964502     1.781034192005     1.007825032230
         H            2.985720349479    -0.578186964502     1.584821192005     1.007825032230
         H            2.892051349479     1.225149035498     0.167226192005     1.007825032230
         H           -1.762812650521    -2.536503964502    -0.455822807995     1.007825032230
         H           -1.395346650521     2.319864035498     0.478542192005     1.007825032230
         H           -3.761415650521    -1.280085964502     0.291626192005     1.007825032230
         H           -3.595495650521     1.162287035498     0.754054192005     1.007825032230

  Basis Set: AUG-CC-PVTZ
    Blend: AUG-CC-PVTZ
  Basis Set: (AUG-CC-PVTZ AUX)
    Blend: AUG-CC-PVTZ-JKFIT
	 Reference Energy          =    -514.5950856457999407 [Eh]
	 Singles Energy            =      -0.0000000000000000 [Eh]
	 Same-Spin Energy          =      -0.5579603680139136 [Eh]
	 Opposite-Spin Energy      =      -1.7436542527252592 [Eh]
	 Correlation Energy        =      -2.3016146207391728 [Eh]
	 Total Energy              =    -516.8967002665391419 [Eh]

	 ================> DF-SCS-MP2 Energies <==================
	-----------------------------------------------------------
	 SCS Same-Spin Scale       =       0.3333333333333333 [-]
	 SCS Opposite-Spin Scale   =       1.2000000000000000 [-]
	 SCS Same-Spin Energy      =      -0.1859867893379712 [Eh]
	 SCS Opposite-Spin Energy  =      -2.0923851032703111 [Eh]
	 SCS Correlation Energy    =      -2.2783718926082823 [Eh]
	 SCS Total Energy          =    -516.8734575384082746 [Eh]
	-----------------------------------------------------------

  Dipole Moment: [D]
     X:     0.5643      Y:    -3.6972      Z:     1.7868     Total:     4.1449

*** Psi4 exiting successfully. Buy a developer a beer!
