                               Psi4 1.3.2 release

  ==> Input File <==

--------------------------------------------------------------------------
#psi4
#
memory 32 gb

molecule  {
0 1
  O        0.9417500     2.5148810    -0.6596880
  N        2.0463840     0.6978680     0.1749460
  C        0.6959330    -1.6411571    -0.8769924
  C        1.8157710    -1.7711630     0.2163790
  C       -0.4497480    -0.7926040    -0.3845090
  C        2.0266990    -0.4897580     1.0228720
  C       -0.3650830     0.5850230    -0.0943830
  C        0.9119250     1.3593610    -0.2260870
  C       -1.6913630    -1.4231620    -0.2398970
  C       -1.5035900     1.3035830     0.2885800
  C       -2.8212120    -0.7143780     0.1714760
  C       -2.7281430     0.6547360     0.4326570
  H        0.4383490    -2.5216720    -1.2799980
  H        1.2165960    -1.0011160    -1.6986390
  H        1.5065410    -2.5704870     0.9013410
  H        2.7543720    -2.0878480    -0.2534440
  H        1.2290340    -0.3883270     1.7666860
  H        2.9729880    -0.5259550     1.5704730
  H        2.8793190     1.2773810     0.1528780
  H       -1.7755450    -2.4842720    -0.4701710
  H       -1.4080790     2.3720960     0.4641940
  H       -3.7741480    -1.2278540     0.2772780
  H       -3.6082280     1.2145190     0.7397060
units angstrom
no_reorient  #important for SAPT in psi4, default
symmetry c1  #important for SAPT in psi4, default
}

set PROPERTIES_ORIGIN ["COM"]
properties('MP2/aug-cc-pvtz', properties = ['dipole'])
--------------------------------------------------------------------------

    Molecular point group: c1
  Charge       = 0
  Multiplicity = 1
  Basis Set: AUG-CC-PVTZ
    Blend: AUG-CC-PVTZ
  Basis Set: (AUG-CC-PVTZ AUX)
    Blend: AUG-CC-PVTZ-JKFIT

    Orbital Energies [Eh]
    ---------------------

    Doubly Occupied:

       1A    -20.514876     2A    -15.582764     3A    -11.351333
       4A    -11.277409     5A    -11.259492     6A    -11.248526
       7A    -11.248302     8A    -11.246402     9A    -11.240222
      10A    -11.240046    11A    -11.239696    12A    -11.239324
      13A     -1.368801    14A     -1.234094    15A     -1.164381
      16A     -1.079827    17A     -1.036264    18A     -1.020221
      19A     -0.940491    20A     -0.882405    21A     -0.838913
      22A     -0.802629    23A     -0.776151    24A     -0.695913
      25A     -0.689548    26A     -0.671962    27A     -0.649609
      28A     -0.627664    29A     -0.615447    30A     -0.600068
      31A     -0.585752    32A     -0.574533    33A     -0.564429
      34A     -0.533106    35A     -0.514510    36A     -0.511522
      37A     -0.505438    38A     -0.479178    39A     -0.474318
      40A     -0.422829    41A     -0.389324    42A     -0.344043
      43A     -0.333773

  @DF-RHF Final Energy:  -514.58403731844726

   => Energetics <=

    Nuclear Repulsion Energy =            684.1341943028257901
    One-Electron Energy =               -2056.2053925262312077
    Two-Electron Energy =                 857.4871609049581593
    Total Energy =                       -514.5840373184472583
  Basis Set: (AUG-CC-PVTZ AUX)
    Blend: AUG-CC-PVTZ-RI
    Molecular point group: c1

    Geometry (in Angstrom), charge = 0, multiplicity = 1:

       Center              X                  Y                   Z               Mass
    ------------   -----------------  -----------------  -----------------  -----------------
         O            0.961222015267     2.472433092141    -0.646071274063    15.994914619570
         N            2.065856015267     0.655420092141     0.188562725937    14.003074004430
         C            0.715405015267    -1.683605007859    -0.863375674063    12.000000000000
         C            1.835243015267    -1.813610907859     0.229995725937    12.000000000000
         C           -0.430275984733    -0.835051907859    -0.370892274063    12.000000000000
         C            2.046171015267    -0.532205907859     1.036488725937    12.000000000000
         C           -0.345610984733     0.542575092141    -0.080766274063    12.000000000000
         C            0.931397015267     1.316913092141    -0.212470274063    12.000000000000
         C           -1.671890984733    -1.465609907859    -0.226280274063    12.000000000000
         C           -1.484117984733     1.261135092141     0.302196725937    12.000000000000
         C           -2.801739984733    -0.756825907859     0.185092725937    12.000000000000
         C           -2.708670984733     0.612288092141     0.446273725937    12.000000000000
         H            0.457821015267    -2.564119907859    -1.266381274063     1.007825032230
         H            1.236068015267    -1.043563907859    -1.685022274063     1.007825032230
         H            1.526013015267    -2.612934907859     0.914957725937     1.007825032230
         H            2.773844015267    -2.130295907859    -0.239827274063     1.007825032230
         H            1.248506015267    -0.430774907859     1.780302725937     1.007825032230
         H            2.992460015267    -0.568402907859     1.584089725937     1.007825032230
         H            2.898791015267     1.234933092141     0.166494725937     1.007825032230
         H           -1.756072984733    -2.526719907859    -0.456554274063     1.007825032230
         H           -1.388606984733     2.329648092141     0.477810725937     1.007825032230
         H           -3.754675984733    -1.270301907859     0.290894725937     1.007825032230
         H           -3.588755984733     1.172071092141     0.753322725937     1.007825032230

  Basis Set: AUG-CC-PVTZ
    Blend: AUG-CC-PVTZ
  Basis Set: (AUG-CC-PVTZ AUX)
    Blend: AUG-CC-PVTZ-JKFIT
	 Reference Energy          =    -514.5840373184472583 [Eh]
	 Singles Energy            =      -0.0000000000000000 [Eh]
	 Same-Spin Energy          =      -0.5585573418190068 [Eh]
	 Opposite-Spin Energy      =      -1.7446334090168301 [Eh]
	 Correlation Energy        =      -2.3031907508358369 [Eh]
	 Total Energy              =    -516.8872280692830827 [Eh]

	 ================> DF-SCS-MP2 Energies <==================
	-----------------------------------------------------------
	 SCS Same-Spin Scale       =       0.3333333333333333 [-]
	 SCS Opposite-Spin Scale   =       1.2000000000000000 [-]
	 SCS Same-Spin Energy      =      -0.1861857806063356 [Eh]
	 SCS Opposite-Spin Energy  =      -2.0935600908201959 [Eh]
	 SCS Correlation Energy    =      -2.2797458714265315 [Eh]
	 SCS Total Energy          =    -516.8637831898737431 [Eh]
	-----------------------------------------------------------

  Dipole Moment: [D]
     X:     0.6281      Y:    -3.6569      Z:     1.7807     Total:     4.1156

*** Psi4 exiting successfully. Buy a developer a beer!
