                               Psi4 1.3.2 release

  ==> Input File <==

--------------------------------------------------------------------------
#psi4
#
memory 32 gb

molecule  {
0 1
  O        0.9417500     2.5148810    -0.6596880
  N        2.0463840     0.6978680     0.1749460
  C        0.6723921    -1.6726367    -0.8030949
  C        1.8157710    -1.7711630     0.2163790
  C       -0.4497480    -0.7926040    -0.3845090
  C        2.0266990    -0.4897580     1.0228720
  C       -0.3650830     0.5850230    -0.0943830
  C        0.9119250     1.3593610    -0.2260870
  C       -1.6913630    -1.4231620    -0.2398970
  C       -1.5035900     1.3035830     0.2885800
  C       -2.8212120    -0.7143780     0.1714760
  C       -2.7281430     0.6547360     0.4326570
  H        0.4383490    -2.5216720    -1.2799980
  H        1.2165960    -1.0011160    -1.6986390
  H        1.5065410    -2.5704870     0.9013410
  H        2.7543720    -2.0878480    -0.2534440
  H        1.2290340    -0.3883270     1.7666860
  H        2.9729880    -0.5259550     1.5704730
  H        2.8793190     1.2773810     0.1528780
  H       -1.7755450    -2.4842720    -0.4701710
  H       -1.4080790     2.3720960     0.4641940
  H       -3.7741480    -1.2278540     0.2772780
  H       -3.6082280     1.2145190     0.7397060
units angstrom
no_reorient  #important for SAPT in psi4, default
symmetry c1  #important for SAPT in psi4, default
}

set PROPERTIES_ORIGIN ["COM"]
properties('MP2/aug-cc-pvtz', properties = ['dipole'])
--------------------------------------------------------------------------

    Molecular point group: c1
  Charge       = 0
  Multiplicity = 1
  Basis Set: AUG-CC-PVTZ
    Blend: AUG-CC-PVTZ
  Basis Set: (AUG-CC-PVTZ AUX)
    Blend: AUG-CC-PVTZ-JKFIT

    Orbital Energies [Eh]
    ---------------------

    Doubly Occupied:

       1A    -20.514869     2A    -15.582856     3A    -11.351417
       4A    -11.278239     5A    -11.259930     6A    -11.249307
       7A    -11.248438     8A    -11.246978     9A    -11.244360
      10A    -11.239932    11A    -11.239814    12A    -11.239597
      13A     -1.368783    14A     -1.234517    15A     -1.165926
      16A     -1.085067    17A     -1.036801    18A     -1.022372
      19A     -0.940320    20A     -0.884333    21A     -0.840329
      22A     -0.801696    23A     -0.776250    24A     -0.696208
      25A     -0.690610    26A     -0.674286    27A     -0.647393
      28A     -0.630582    29A     -0.620069    30A     -0.600891
      31A     -0.586924    32A     -0.570352    33A     -0.566204
      34A     -0.531861    35A     -0.516554    36A     -0.512862
      37A     -0.506344    38A     -0.484503    39A     -0.458810
      40A     -0.422502    41A     -0.389316    42A     -0.344438
      43A     -0.332239

  @DF-RHF Final Energy:  -514.57067339967750

   => Energetics <=

    Nuclear Repulsion Energy =            684.7065986369527764
    One-Electron Energy =               -2057.2843890071621900
    Two-Electron Energy =                 858.0071169705319107
    Total Energy =                       -514.5706733996775029
  Basis Set: (AUG-CC-PVTZ AUX)
    Blend: AUG-CC-PVTZ-RI
    Molecular point group: c1

    Geometry (in Angstrom), charge = 0, multiplicity = 1:

       Center              X                  Y                   Z               Mass
    ------------   -----------------  -----------------  -----------------  -----------------
         O            0.962975700846     2.474778173279    -0.651576287893    15.994914619570
         N            2.067609700846     0.657765173279     0.183057712107    14.003074004430
         C            0.693617800846    -1.712739526721    -0.794983187893    12.000000000000
         C            1.836996700846    -1.811265826721     0.224490712107    12.000000000000
         C           -0.428522299154    -0.832706826721    -0.376397287893    12.000000000000
         C            2.047924700846    -0.529860826721     1.030983712107    12.000000000000
         C           -0.343857299154     0.544920173279    -0.086271287893    12.000000000000
         C            0.933150700846     1.319258173279    -0.217975287893    12.000000000000
         C           -1.670137299154    -1.463264826721    -0.231785287893    12.000000000000
         C           -1.482364299154     1.263480173279     0.296691712107    12.000000000000
         C           -2.799986299154    -0.754480826721     0.179587712107    12.000000000000
         C           -2.706917299154     0.614633173279     0.440768712107    12.000000000000
         H            0.459574700846    -2.561774826721    -1.271886287893     1.007825032230
         H            1.237821700846    -1.041218826721    -1.690527287893     1.007825032230
         H            1.527766700846    -2.610589826721     0.909452712107     1.007825032230
         H            2.775597700846    -2.127950826721    -0.245332287893     1.007825032230
         H            1.250259700846    -0.428429826721     1.774797712107     1.007825032230
         H            2.994213700846    -0.566057826721     1.578584712107     1.007825032230
         H            2.900544700846     1.237278173279     0.160989712107     1.007825032230
         H           -1.754319299154    -2.524374826721    -0.462059287893     1.007825032230
         H           -1.386853299154     2.331993173279     0.472305712107     1.007825032230
         H           -3.752922299154    -1.267956826721     0.285389712107     1.007825032230
         H           -3.587002299154     1.174416173279     0.747817712107     1.007825032230

  Basis Set: AUG-CC-PVTZ
    Blend: AUG-CC-PVTZ
  Basis Set: (AUG-CC-PVTZ AUX)
    Blend: AUG-CC-PVTZ-JKFIT
	 Reference Energy          =    -514.5706733996775029 [Eh]
	 Singles Energy            =      -0.0000000000000000 [Eh]
	 Same-Spin Energy          =      -0.5592962094872764 [Eh]
	 Opposite-Spin Energy      =      -1.7458588186874702 [Eh]
	 Correlation Energy        =      -2.3051550281747466 [Eh]
	 Total Energy              =    -516.8758284278522979 [Eh]

	 ================> DF-SCS-MP2 Energies <==================
	-----------------------------------------------------------
	 SCS Same-Spin Scale       =       0.3333333333333333 [-]
	 SCS Opposite-Spin Scale   =       1.2000000000000000 [-]
	 SCS Same-Spin Energy      =      -0.1864320698290921 [Eh]
	 SCS Opposite-Spin Energy  =      -2.0950305824249642 [Eh]
	 SCS Correlation Energy    =      -2.2814626522540564 [Eh]
	 SCS Total Energy          =    -516.8521360519315522 [Eh]
	-----------------------------------------------------------

  Dipole Moment: [D]
     X:     0.6228      Y:    -3.6696      Z:     1.8394     Total:     4.1518

*** Psi4 exiting successfully. Buy a developer a beer!
