                               Psi4 1.3.2 release

  ==> Input File <==

--------------------------------------------------------------------------
#psi4
#
memory 32 gb

molecule  {
0 1
  O        0.9417500     2.5148810    -0.6596880
  N        2.0463840     0.6978680     0.1749460
  C        0.7442795    -1.4040875    -0.8197249
  C        1.8157710    -1.7711630     0.2163790
  C       -0.4497480    -0.7926040    -0.3845090
  C        2.0266990    -0.4897580     1.0228720
  C       -0.3650830     0.5850230    -0.0943830
  C        0.9119250     1.3593610    -0.2260870
  C       -1.6913630    -1.4231620    -0.2398970
  C       -1.5035900     1.3035830     0.2885800
  C       -2.8212120    -0.7143780     0.1714760
  C       -2.7281430     0.6547360     0.4326570
  H        0.4383490    -2.5216720    -1.2799980
  H        1.2165960    -1.0011160    -1.6986390
  H        1.5065410    -2.5704870     0.9013410
  H        2.7543720    -2.0878480    -0.2534440
  H        1.2290340    -0.3883270     1.7666860
  H        2.9729880    -0.5259550     1.5704730
  H        2.8793190     1.2773810     0.1528780
  H       -1.7755450    -2.4842720    -0.4701710
  H       -1.4080790     2.3720960     0.4641940
  H       -3.7741480    -1.2278540     0.2772780
  H       -3.6082280     1.2145190     0.7397060
units angstrom
no_reorient  #important for SAPT in psi4, default
symmetry c1  #important for SAPT in psi4, default
}

set PROPERTIES_ORIGIN ["COM"]
properties('MP2/aug-cc-pvtz', properties = ['dipole'])
--------------------------------------------------------------------------

    Molecular point group: c1
  Charge       = 0
  Multiplicity = 1
  Basis Set: AUG-CC-PVTZ
    Blend: AUG-CC-PVTZ
  Basis Set: (AUG-CC-PVTZ AUX)
    Blend: AUG-CC-PVTZ-JKFIT

    Orbital Energies [Eh]
    ---------------------

    Doubly Occupied:

       1A    -20.516220     2A    -15.583229     3A    -11.352528
       4A    -11.273986     5A    -11.254561     6A    -11.250129
       7A    -11.246829     8A    -11.245480     9A    -11.244690
      10A    -11.244369    11A    -11.241454    12A    -11.240722
      13A     -1.370175    14A     -1.237444    15A     -1.169807
      16A     -1.090095    17A     -1.039482    18A     -1.023590
      19A     -0.935637    20A     -0.884251    21A     -0.848799
      22A     -0.794029    23A     -0.777366    24A     -0.700532
      25A     -0.685088    26A     -0.677468    27A     -0.654369
      28A     -0.623544    29A     -0.620121    30A     -0.601390
      31A     -0.592876    32A     -0.579110    33A     -0.556068
      34A     -0.535259    35A     -0.521883    36A     -0.509918
      37A     -0.494754    38A     -0.490211    39A     -0.450842
      40A     -0.424379    41A     -0.390110    42A     -0.344739
      43A     -0.336275

  @DF-RHF Final Energy:  -514.56769266788945

   => Energetics <=

    Nuclear Repulsion Energy =            687.9694559578651933
    One-Electron Energy =               -2063.7666789966310716
    Two-Electron Energy =                 861.2295303708764322
    Total Energy =                       -514.5676926678894461
  Basis Set: (AUG-CC-PVTZ AUX)
    Blend: AUG-CC-PVTZ-RI
    Molecular point group: c1

    Geometry (in Angstrom), charge = 0, multiplicity = 1:

       Center              X                  Y                   Z               Mass
    ------------   -----------------  -----------------  -----------------  -----------------
         O            0.957620429947     2.454772529515    -0.650337431639    15.994914619570
         N            2.062254429947     0.637759529515     0.184296568361    14.003074004430
         C            0.760149929947    -1.464195970485    -0.810374331639    12.000000000000
         C            1.831641429947    -1.831271470485     0.225729568361    12.000000000000
         C           -0.433877570053    -0.852712470485    -0.375158431639    12.000000000000
         C            2.042569429947    -0.549866470485     1.032222568361    12.000000000000
         C           -0.349212570053     0.524914529515    -0.085032431639    12.000000000000
         C            0.927795429947     1.299252529515    -0.216736431639    12.000000000000
         C           -1.675492570053    -1.483270470485    -0.230546431639    12.000000000000
         C           -1.487719570053     1.243474529515     0.297930568361    12.000000000000
         C           -2.805341570053    -0.774486470485     0.180826568361    12.000000000000
         C           -2.712272570053     0.594627529515     0.442007568361    12.000000000000
         H            0.454219429947    -2.581780470485    -1.270647431639     1.007825032230
         H            1.232466429947    -1.061224470485    -1.689288431639     1.007825032230
         H            1.522411429947    -2.630595470485     0.910691568361     1.007825032230
         H            2.770242429947    -2.147956470485    -0.244093431639     1.007825032230
         H            1.244904429947    -0.448435470485     1.776036568361     1.007825032230
         H            2.988858429947    -0.586063470485     1.579823568361     1.007825032230
         H            2.895189429947     1.217272529515     0.162228568361     1.007825032230
         H           -1.759674570053    -2.544380470485    -0.460820431639     1.007825032230
         H           -1.392208570053     2.311987529515     0.473544568361     1.007825032230
         H           -3.758277570053    -1.287962470485     0.286628568361     1.007825032230
         H           -3.592357570053     1.154410529515     0.749056568361     1.007825032230

  Basis Set: AUG-CC-PVTZ
    Blend: AUG-CC-PVTZ
  Basis Set: (AUG-CC-PVTZ AUX)
    Blend: AUG-CC-PVTZ-JKFIT
	 Reference Energy          =    -514.5676926678894461 [Eh]
	 Singles Energy            =      -0.0000000000000000 [Eh]
	 Same-Spin Energy          =      -0.5609503808108959 [Eh]
	 Opposite-Spin Energy      =      -1.7479006512664450 [Eh]
	 Correlation Energy        =      -2.3088510320773410 [Eh]
	 Total Energy              =    -516.8765436999667600 [Eh]

	 ================> DF-SCS-MP2 Energies <==================
	-----------------------------------------------------------
	 SCS Same-Spin Scale       =       0.3333333333333333 [-]
	 SCS Opposite-Spin Scale   =       1.2000000000000000 [-]
	 SCS Same-Spin Energy      =      -0.1869834602702986 [Eh]
	 SCS Opposite-Spin Energy  =      -2.0974807815197338 [Eh]
	 SCS Correlation Energy    =      -2.2844642417900323 [Eh]
	 SCS Total Energy          =    -516.8521569096794792 [Eh]
	-----------------------------------------------------------

  Dipole Moment: [D]
     X:     0.6258      Y:    -3.4934      Z:     1.8271     Total:     3.9917

*** Psi4 exiting successfully. Buy a developer a beer!
