                               Psi4 1.3.2 release

  ==> Input File <==

--------------------------------------------------------------------------
#psi4
#
memory 32 gb

molecule  {
0 1
  O        0.9417500     2.5148810    -0.6596880
  N        2.0463840     0.6978680     0.1749460
  C        0.7708365    -1.5331293    -0.8712975
  C        1.8157710    -1.7711630     0.2163790
  C       -0.4497480    -0.7926040    -0.3845090
  C        2.0266990    -0.4897580     1.0228720
  C       -0.3650830     0.5850230    -0.0943830
  C        0.9119250     1.3593610    -0.2260870
  C       -1.6913630    -1.4231620    -0.2398970
  C       -1.5035900     1.3035830     0.2885800
  C       -2.8212120    -0.7143780     0.1714760
  C       -2.7281430     0.6547360     0.4326570
  H        0.4383490    -2.5216720    -1.2799980
  H        1.2165960    -1.0011160    -1.6986390
  H        1.5065410    -2.5704870     0.9013410
  H        2.7543720    -2.0878480    -0.2534440
  H        1.2290340    -0.3883270     1.7666860
  H        2.9729880    -0.5259550     1.5704730
  H        2.8793190     1.2773810     0.1528780
  H       -1.7755450    -2.4842720    -0.4701710
  H       -1.4080790     2.3720960     0.4641940
  H       -3.7741480    -1.2278540     0.2772780
  H       -3.6082280     1.2145190     0.7397060
units angstrom
no_reorient  #important for SAPT in psi4, default
symmetry c1  #important for SAPT in psi4, default
}

set PROPERTIES_ORIGIN ["COM"]
properties('MP2/aug-cc-pvtz', properties = ['dipole'])
--------------------------------------------------------------------------

    Molecular point group: c1
  Charge       = 0
  Multiplicity = 1
  Basis Set: AUG-CC-PVTZ
    Blend: AUG-CC-PVTZ
  Basis Set: (AUG-CC-PVTZ AUX)
    Blend: AUG-CC-PVTZ-JKFIT

    Orbital Energies [Eh]
    ---------------------

    Doubly Occupied:

       1A    -20.515282     2A    -15.582791     3A    -11.351562
       4A    -11.275456     5A    -11.258228     6A    -11.248971
       7A    -11.246923     8A    -11.245361     9A    -11.242219
      10A    -11.239976    11A    -11.239652    12A    -11.237705
      13A     -1.369193    14A     -1.235150    15A     -1.164249
      16A     -1.083076    17A     -1.036971    18A     -1.020808
      19A     -0.938110    20A     -0.881420    21A     -0.841988
      22A     -0.797787    23A     -0.776491    24A     -0.697231
      25A     -0.685066    26A     -0.672583    27A     -0.653082
      28A     -0.622711    29A     -0.616678    30A     -0.599996
      31A     -0.587620    32A     -0.576888    33A     -0.555385
      34A     -0.536788    35A     -0.519697    36A     -0.509885
      37A     -0.492933    38A     -0.487071    39A     -0.478740
      40A     -0.423554    41A     -0.389547    42A     -0.343874
      43A     -0.336637

  @DF-RHF Final Energy:  -514.59560023680797

   => Energetics <=

    Nuclear Repulsion Energy =            685.3865219991902222
    One-Electron Energy =               -2058.7335691800039967
    Two-Electron Energy =                 858.7514469440056928
    Total Energy =                       -514.5956002368079680
  Basis Set: (AUG-CC-PVTZ AUX)
    Blend: AUG-CC-PVTZ-RI
    Molecular point group: c1

    Geometry (in Angstrom), charge = 0, multiplicity = 1:

       Center              X                  Y                   Z               Mass
    ------------   -----------------  -----------------  -----------------  -----------------
         O            0.955642059200     2.464385532575    -0.646495517146    15.994914619570
         N            2.060276059200     0.647372532575     0.188138482854    14.003074004430
         C            0.784728559200    -1.583624767425    -0.858105017146    12.000000000000
         C            1.829663059200    -1.821658467425     0.229571482854    12.000000000000
         C           -0.435855940800    -0.843099467425    -0.371316517146    12.000000000000
         C            2.040591059200    -0.540253467425     1.036064482854    12.000000000000
         C           -0.351190940800     0.534527532575    -0.081190517146    12.000000000000
         C            0.925817059200     1.308865532575    -0.212894517146    12.000000000000
         C           -1.677470940800    -1.473657467425    -0.226704517146    12.000000000000
         C           -1.489697940800     1.253087532575     0.301772482854    12.000000000000
         C           -2.807319940800    -0.764873467425     0.184668482854    12.000000000000
         C           -2.714250940800     0.604240532575     0.445849482854    12.000000000000
         H            0.452241059200    -2.572167467425    -1.266805517146     1.007825032230
         H            1.230488059200    -1.051611467425    -1.685446517146     1.007825032230
         H            1.520433059200    -2.620982467425     0.914533482854     1.007825032230
         H            2.768264059200    -2.138343467425    -0.240251517146     1.007825032230
         H            1.242926059200    -0.438822467425     1.779878482854     1.007825032230
         H            2.986880059200    -0.576450467425     1.583665482854     1.007825032230
         H            2.893211059200     1.226885532575     0.166070482854     1.007825032230
         H           -1.761652940800    -2.534767467425    -0.456978517146     1.007825032230
         H           -1.394186940800     2.321600532575     0.477386482854     1.007825032230
         H           -3.760255940800    -1.278349467425     0.290470482854     1.007825032230
         H           -3.594335940800     1.164023532575     0.752898482854     1.007825032230

  Basis Set: AUG-CC-PVTZ
    Blend: AUG-CC-PVTZ
  Basis Set: (AUG-CC-PVTZ AUX)
    Blend: AUG-CC-PVTZ-JKFIT
	 Reference Energy          =    -514.5956002368079680 [Eh]
	 Singles Energy            =      -0.0000000000000000 [Eh]
	 Same-Spin Energy          =      -0.5587658377681344 [Eh]
	 Opposite-Spin Energy      =      -1.7445544475599917 [Eh]
	 Correlation Energy        =      -2.3033202853281258 [Eh]
	 Total Energy              =    -516.8989205221361090 [Eh]

	 ================> DF-SCS-MP2 Energies <==================
	-----------------------------------------------------------
	 SCS Same-Spin Scale       =       0.3333333333333333 [-]
	 SCS Opposite-Spin Scale   =       1.2000000000000000 [-]
	 SCS Same-Spin Energy      =      -0.1862552792560448 [Eh]
	 SCS Opposite-Spin Energy  =      -2.0934653370719900 [Eh]
	 SCS Correlation Energy    =      -2.2797206163280350 [Eh]
	 SCS Total Energy          =    -516.8753208531360315 [Eh]
	-----------------------------------------------------------

  Dipole Moment: [D]
     X:     0.6298      Y:    -3.6002      Z:     1.7722     Total:     4.0618

*** Psi4 exiting successfully. Buy a developer a beer!
