                               Psi4 1.3.2 release

  ==> Input File <==

--------------------------------------------------------------------------
#psi4
#
memory 32 gb

molecule  {
0 1
  O        0.9417500     2.5148810    -0.6596880
  N        2.0463840     0.6978680     0.1749460
  C        0.7709951    -1.6571453    -0.9024566
  C        1.8157710    -1.7711630     0.2163790
  C       -0.4497480    -0.7926040    -0.3845090
  C        2.0266990    -0.4897580     1.0228720
  C       -0.3650830     0.5850230    -0.0943830
  C        0.9119250     1.3593610    -0.2260870
  C       -1.6913630    -1.4231620    -0.2398970
  C       -1.5035900     1.3035830     0.2885800
  C       -2.8212120    -0.7143780     0.1714760
  C       -2.7281430     0.6547360     0.4326570
  H        0.4383490    -2.5216720    -1.2799980
  H        1.2165960    -1.0011160    -1.6986390
  H        1.5065410    -2.5704870     0.9013410
  H        2.7543720    -2.0878480    -0.2534440
  H        1.2290340    -0.3883270     1.7666860
  H        2.9729880    -0.5259550     1.5704730
  H        2.8793190     1.2773810     0.1528780
  H       -1.7755450    -2.4842720    -0.4701710
  H       -1.4080790     2.3720960     0.4641940
  H       -3.7741480    -1.2278540     0.2772780
  H       -3.6082280     1.2145190     0.7397060
units angstrom
no_reorient  #important for SAPT in psi4, default
symmetry c1  #important for SAPT in psi4, default
}

set PROPERTIES_ORIGIN ["COM"]
properties('MP2/aug-cc-pvtz', properties = ['dipole'])
--------------------------------------------------------------------------

    Molecular point group: c1
  Charge       = 0
  Multiplicity = 1
  Basis Set: AUG-CC-PVTZ
    Blend: AUG-CC-PVTZ
  Basis Set: (AUG-CC-PVTZ AUX)
    Blend: AUG-CC-PVTZ-JKFIT

    Orbital Energies [Eh]
    ---------------------

    Doubly Occupied:

       1A    -20.514912     2A    -15.582940     3A    -11.351220
       4A    -11.277874     5A    -11.260965     6A    -11.248036
       7A    -11.247692     8A    -11.245672     9A    -11.240087
      10A    -11.239857    11A    -11.238919    12A    -11.238029
      13A     -1.368819    14A     -1.234201    15A     -1.161542
      16A     -1.078819    17A     -1.035575    18A     -1.018972
      19A     -0.942310    20A     -0.880440    21A     -0.837022
      22A     -0.803409    23A     -0.775937    24A     -0.695324
      25A     -0.690243    26A     -0.668982    27A     -0.651463
      28A     -0.624867    29A     -0.614730    30A     -0.600142
      31A     -0.586088    32A     -0.580245    33A     -0.557907
      34A     -0.533788    35A     -0.517357    36A     -0.511577
      37A     -0.506235    38A     -0.487305    39A     -0.463750
      40A     -0.422621    41A     -0.389505    42A     -0.343457
      43A     -0.335752

  @DF-RHF Final Energy:  -514.58488859407566

   => Energetics <=

    Nuclear Repulsion Energy =            683.2856982214417485
    One-Electron Energy =               -2054.5319988845371881
    Two-Electron Energy =                 856.6614120690198888
    Total Energy =                       -514.5848885940756645
  Basis Set: (AUG-CC-PVTZ AUX)
    Blend: AUG-CC-PVTZ-RI
    Molecular point group: c1

    Geometry (in Angstrom), charge = 0, multiplicity = 1:

       Center              X                  Y                   Z               Mass
    ------------   -----------------  -----------------  -----------------  -----------------
         O            0.955630244251     2.473624137334    -0.644174311741    15.994914619570
         N            2.060264244251     0.656611137334     0.190459688259    14.003074004430
         C            0.784875344251    -1.698402162666    -0.886942911741    12.000000000000
         C            1.829651244251    -1.812419862666     0.231892688259    12.000000000000
         C           -0.435867755749    -0.833860862666    -0.368995311741    12.000000000000
         C            2.040579244251    -0.531014862666     1.038385688259    12.000000000000
         C           -0.351202755749     0.543766137334    -0.078869311741    12.000000000000
         C            0.925805244251     1.318104137334    -0.210573311741    12.000000000000
         C           -1.677482755749    -1.464418862666    -0.224383311741    12.000000000000
         C           -1.489709755749     1.262326137334     0.304093688259    12.000000000000
         C           -2.807331755749    -0.755634862666     0.186989688259    12.000000000000
         C           -2.714262755749     0.613479137334     0.448170688259    12.000000000000
         H            0.452229244251    -2.562928862666    -1.264484311741     1.007825032230
         H            1.230476244251    -1.042372862666    -1.683125311741     1.007825032230
         H            1.520421244251    -2.611743862666     0.916854688259     1.007825032230
         H            2.768252244251    -2.129104862666    -0.237930311741     1.007825032230
         H            1.242914244251    -0.429583862666     1.782199688259     1.007825032230
         H            2.986868244251    -0.567211862666     1.585986688259     1.007825032230
         H            2.893199244251     1.236124137334     0.168391688259     1.007825032230
         H           -1.761664755749    -2.525528862666    -0.454657311741     1.007825032230
         H           -1.394198755749     2.330839137334     0.479707688259     1.007825032230
         H           -3.760267755749    -1.269110862666     0.292791688259     1.007825032230
         H           -3.594347755749     1.173262137334     0.755219688259     1.007825032230

  Basis Set: AUG-CC-PVTZ
    Blend: AUG-CC-PVTZ
  Basis Set: (AUG-CC-PVTZ AUX)
    Blend: AUG-CC-PVTZ-JKFIT
	 Reference Energy          =    -514.5848885940756645 [Eh]
	 Singles Energy            =      -0.0000000000000000 [Eh]
	 Same-Spin Energy          =      -0.5581038052507186 [Eh]
	 Opposite-Spin Energy      =      -1.7441135010941569 [Eh]
	 Correlation Energy        =      -2.3022173063448754 [Eh]
	 Total Energy              =    -516.8871059004205790 [Eh]

	 ================> DF-SCS-MP2 Energies <==================
	-----------------------------------------------------------
	 SCS Same-Spin Scale       =       0.3333333333333333 [-]
	 SCS Opposite-Spin Scale   =       1.2000000000000000 [-]
	 SCS Same-Spin Energy      =      -0.1860346017502395 [Eh]
	 SCS Opposite-Spin Energy  =      -2.0929362013129880 [Eh]
	 SCS Correlation Energy    =      -2.2789708030632276 [Eh]
	 SCS Total Energy          =    -516.8638593971388673 [Eh]
	-----------------------------------------------------------

  Dipole Moment: [D]
     X:     0.6333      Y:    -3.6468      Z:     1.7706     Total:     4.1031

*** Psi4 exiting successfully. Buy a developer a beer!
