                               Psi4 1.3.2 release

  ==> Input File <==

--------------------------------------------------------------------------
#psi4
#
memory 32 gb

molecule  {
0 1
  O        0.9417500     2.5148810    -0.6596880
  N        2.0463840     0.6978680     0.1749460
  C        0.7564320    -1.5550710    -0.8733250
  C        1.8157710    -1.7711630     0.2163790
  C       -0.4497480    -0.7926040    -0.3845090
  C        2.0266990    -0.4897580     1.0228720
  C       -0.3650830     0.5850230    -0.0943830
  C        0.9119250     1.3593610    -0.2260870
  C       -1.6913630    -1.4231620    -0.2398970
  C       -1.5035900     1.3035830     0.2885800
  C       -2.8212120    -0.7143780     0.1714760
  C       -2.7281430     0.6547360     0.4326570
  H        0.4383490    -2.5216720    -1.2799980
  H        1.2165960    -1.0011160    -1.6986390
  H        1.5065410    -2.5704870     0.9013410
  H        2.7543720    -2.0878480    -0.2534440
  H        1.3746781    -0.4068471     1.6308744
  H        2.9729880    -0.5259550     1.5704730
  H        2.8793190     1.2773810     0.1528780
  H       -1.7755450    -2.4842720    -0.4701710
  H       -1.4080790     2.3720960     0.4641940
  H       -3.7741480    -1.2278540     0.2772780
  H       -3.6082280     1.2145190     0.7397060
units angstrom
no_reorient  #important for SAPT in psi4, default
symmetry c1  #important for SAPT in psi4, default
}

set PROPERTIES_ORIGIN ["COM"]
properties('MP2/aug-cc-pvtz', properties = ['dipole'])
--------------------------------------------------------------------------

    Molecular point group: c1
  Charge       = 0
  Multiplicity = 1
  Basis Set: AUG-CC-PVTZ
    Blend: AUG-CC-PVTZ
  Basis Set: (AUG-CC-PVTZ AUX)
    Blend: AUG-CC-PVTZ-JKFIT

    Orbital Energies [Eh]
    ---------------------

    Doubly Occupied:

       1A    -20.514317     2A    -15.581081     3A    -11.351012
       4A    -11.258463     5A    -11.251833     6A    -11.249008
       7A    -11.247393     8A    -11.245723     9A    -11.241983
      10A    -11.240033    11A    -11.239082    12A    -11.236563
      13A     -1.368455    14A     -1.236829    15A     -1.164371
      16A     -1.083430    17A     -1.038675    18A     -1.024264
      19A     -0.950821    20A     -0.881552    21A     -0.847904
      22A     -0.801275    23A     -0.780535    24A     -0.704822
      25A     -0.692155    26A     -0.673217    27A     -0.652064
      28A     -0.626020    29A     -0.616206    30A     -0.599764
      31A     -0.589268    32A     -0.580182    33A     -0.558489
      34A     -0.542802    35A     -0.521658    36A     -0.509698
      37A     -0.492450    38A     -0.490462    39A     -0.480079
      40A     -0.422758    41A     -0.390434    42A     -0.344198
      43A     -0.336668

  @DF-RHF Final Energy:  -514.56404497309109

   => Energetics <=

    Nuclear Repulsion Energy =            686.0970989938755338
    One-Electron Energy =               -2060.0062992394141475
    Two-Electron Energy =                 859.3451552724475278
    Total Energy =                       -514.5640449730910859
  Basis Set: (AUG-CC-PVTZ AUX)
    Blend: AUG-CC-PVTZ-RI
    Molecular point group: c1

    Geometry (in Angstrom), charge = 0, multiplicity = 1:

       Center              X                  Y                   Z               Mass
    ------------   -----------------  -----------------  -----------------  -----------------
         O            0.955803901592     2.466135956630    -0.645494770541    15.994914619570
         N            2.060437901592     0.649122956630     0.189139229459    14.003074004430
         C            0.770485901592    -1.603816043370    -0.859131770541    12.000000000000
         C            1.829824901592    -1.819908043370     0.230572229459    12.000000000000
         C           -0.435694098408    -0.841349043370    -0.370315770541    12.000000000000
         C            2.040752901592    -0.538503043370     1.037065229459    12.000000000000
         C           -0.351029098408     0.536277956630    -0.080189770541    12.000000000000
         C            0.925978901592     1.310615956630    -0.211893770541    12.000000000000
         C           -1.677309098408    -1.471907043370    -0.225703770541    12.000000000000
         C           -1.489536098408     1.254837956630     0.302773229459    12.000000000000
         C           -2.807158098408    -0.763123043370     0.185669229459    12.000000000000
         C           -2.714089098408     0.605990956630     0.446850229459    12.000000000000
         H            0.452402901592    -2.570417043370    -1.265804770541     1.007825032230
         H            1.230649901592    -1.049861043370    -1.684445770541     1.007825032230
         H            1.520594901592    -2.619232043370     0.915534229459     1.007825032230
         H            2.768425901592    -2.136593043370    -0.239250770541     1.007825032230
         H            1.388732001592    -0.455592143370     1.645067629459     1.007825032230
         H            2.987041901592    -0.574700043370     1.584666229459     1.007825032230
         H            2.893372901592     1.228635956630     0.167071229459     1.007825032230
         H           -1.761491098408    -2.533017043370    -0.455977770541     1.007825032230
         H           -1.394025098408     2.323350956630     0.478387229459     1.007825032230
         H           -3.760094098408    -1.276599043370     0.291471229459     1.007825032230
         H           -3.594174098408     1.165773956630     0.753899229459     1.007825032230

  Basis Set: AUG-CC-PVTZ
    Blend: AUG-CC-PVTZ
  Basis Set: (AUG-CC-PVTZ AUX)
    Blend: AUG-CC-PVTZ-JKFIT
	 Reference Energy          =    -514.5640449730910859 [Eh]
	 Singles Energy            =      -0.0000000000000000 [Eh]
	 Same-Spin Energy          =      -0.5583354981422907 [Eh]
	 Opposite-Spin Energy      =      -1.7433214190216415 [Eh]
	 Correlation Energy        =      -2.3016569171639323 [Eh]
	 Total Energy              =    -516.8657018902549680 [Eh]

	 ================> DF-SCS-MP2 Energies <==================
	-----------------------------------------------------------
	 SCS Same-Spin Scale       =       0.3333333333333333 [-]
	 SCS Opposite-Spin Scale   =       1.2000000000000000 [-]
	 SCS Same-Spin Energy      =      -0.1861118327140969 [Eh]
	 SCS Opposite-Spin Energy  =      -2.0919857028259696 [Eh]
	 SCS Correlation Energy    =      -2.2780975355400663 [Eh]
	 SCS Total Energy          =    -516.8421425086311274 [Eh]
	-----------------------------------------------------------

  Dipole Moment: [D]
     X:     0.6143      Y:    -3.6333      Z:     1.8393     Total:     4.1184

*** Psi4 exiting successfully. Buy a developer a beer!
