                               Psi4 1.3.2 release

  ==> Input File <==

--------------------------------------------------------------------------
#psi4
#
memory 32 gb

molecule  {
0 1
  O        0.9203548     2.5143002    -0.6621721
  N        2.0463840     0.6978680     0.1749460
  C        0.7564320    -1.5550710    -0.8733250
  C        1.8157710    -1.7711630     0.2163790
  C       -0.4497480    -0.7926040    -0.3845090
  C        2.0266990    -0.4897580     1.0228720
  C       -0.3650830     0.5850230    -0.0943830
  C        0.9119250     1.3593610    -0.2260870
  C       -1.6913630    -1.4231620    -0.2398970
  C       -1.5035900     1.3035830     0.2885800
  C       -2.8212120    -0.7143780     0.1714760
  C       -2.7281430     0.6547360     0.4326570
  H        0.4383490    -2.5216720    -1.2799980
  H        1.2165960    -1.0011160    -1.6986390
  H        1.5065410    -2.5704870     0.9013410
  H        2.7543720    -2.0878480    -0.2534440
  H        1.2290340    -0.3883270     1.7666860
  H        2.9729880    -0.5259550     1.5704730
  H        2.8793190     1.2773810     0.1528780
  H       -1.7755450    -2.4842720    -0.4701710
  H       -1.4080790     2.3720960     0.4641940
  H       -3.7741480    -1.2278540     0.2772780
  H       -3.6082280     1.2145190     0.7397060
units angstrom
no_reorient  #important for SAPT in psi4, default
symmetry c1  #important for SAPT in psi4, default
}

set PROPERTIES_ORIGIN ["COM"]
properties('MP2/aug-cc-pvtz', properties = ['dipole'])
--------------------------------------------------------------------------

    Molecular point group: c1
  Charge       = 0
  Multiplicity = 1
  Basis Set: AUG-CC-PVTZ
    Blend: AUG-CC-PVTZ
  Basis Set: (AUG-CC-PVTZ AUX)
    Blend: AUG-CC-PVTZ-JKFIT

    Orbital Energies [Eh]
    ---------------------

    Doubly Occupied:

       1A    -20.515522     2A    -15.583910     3A    -11.351648
       4A    -11.276387     5A    -11.257651     6A    -11.248255
       7A    -11.246386     8A    -11.244826     9A    -11.241296
      10A    -11.239347    11A    -11.239287    12A    -11.238100
      13A     -1.369053    14A     -1.236021    15A     -1.163719
      16A     -1.082242    17A     -1.036184    18A     -1.020453
      19A     -0.938487    20A     -0.881317    21A     -0.841134
      22A     -0.798064    23A     -0.776395    24A     -0.696915
      25A     -0.685911    26A     -0.671903    27A     -0.652571
      28A     -0.623084    29A     -0.616360    30A     -0.599616
      31A     -0.587210    32A     -0.576303    33A     -0.556972
      34A     -0.535874    35A     -0.518612    36A     -0.509500
      37A     -0.492751    38A     -0.489771    39A     -0.478221
      40A     -0.423371    41A     -0.390433    42A     -0.343097
      43A     -0.335670

  @DF-RHF Final Energy:  -514.59652196737443

   => Energetics <=

    Nuclear Repulsion Energy =            685.2209213184962664
    One-Electron Energy =               -2058.4152345389447873
    Two-Electron Energy =                 858.5977912530740923
    Total Energy =                       -514.5965219673744286
  Basis Set: (AUG-CC-PVTZ AUX)
    Blend: AUG-CC-PVTZ-RI
    Molecular point group: c1

    Geometry (in Angstrom), charge = 0, multiplicity = 1:

       Center              X                  Y                   Z               Mass
    ------------   -----------------  -----------------  -----------------  -----------------
         O            0.937444372254     2.465496956124    -0.648581918170    15.994914619570
         N            2.063473572254     0.649064756124     0.188536181830    14.003074004430
         C            0.773521572254    -1.603874243876    -0.859734818170    12.000000000000
         C            1.832860572254    -1.819966243876     0.229969181830    12.000000000000
         C           -0.432658427746    -0.841407243876    -0.370918818170    12.000000000000
         C            2.043788572254    -0.538561243876     1.036462181830    12.000000000000
         C           -0.347993427746     0.536219756124    -0.080792818170    12.000000000000
         C            0.929014572254     1.310557756124    -0.212496818170    12.000000000000
         C           -1.674273427746    -1.471965243876    -0.226306818170    12.000000000000
         C           -1.486500427746     1.254779756124     0.302170181830    12.000000000000
         C           -2.804122427746    -0.763181243876     0.185066181830    12.000000000000
         C           -2.711053427746     0.605932756124     0.446247181830    12.000000000000
         H            0.455438572254    -2.570475243876    -1.266407818170     1.007825032230
         H            1.233685572254    -1.049919243876    -1.685048818170     1.007825032230
         H            1.523630572254    -2.619290243876     0.914931181830     1.007825032230
         H            2.771461572254    -2.136651243876    -0.239853818170     1.007825032230
         H            1.246123572254    -0.437130243876     1.780276181830     1.007825032230
         H            2.990077572254    -0.574758243876     1.584063181830     1.007825032230
         H            2.896408572254     1.228577756124     0.166468181830     1.007825032230
         H           -1.758455427746    -2.533075243876    -0.456580818170     1.007825032230
         H           -1.390989427746     2.323292756124     0.477784181830     1.007825032230
         H           -3.757058427746    -1.276657243876     0.290868181830     1.007825032230
         H           -3.591138427746     1.165715756124     0.753296181830     1.007825032230

  Basis Set: AUG-CC-PVTZ
    Blend: AUG-CC-PVTZ
  Basis Set: (AUG-CC-PVTZ AUX)
    Blend: AUG-CC-PVTZ-JKFIT
	 Reference Energy          =    -514.5965219673744286 [Eh]
	 Singles Energy            =      -0.0000000000000000 [Eh]
	 Same-Spin Energy          =      -0.5586766925731190 [Eh]
	 Opposite-Spin Energy      =      -1.7444272455100100 [Eh]
	 Correlation Energy        =      -2.3031039380831291 [Eh]
	 Total Energy              =    -516.8996259054575830 [Eh]

	 ================> DF-SCS-MP2 Energies <==================
	-----------------------------------------------------------
	 SCS Same-Spin Scale       =       0.3333333333333333 [-]
	 SCS Opposite-Spin Scale   =       1.2000000000000000 [-]
	 SCS Same-Spin Energy      =      -0.1862255641910397 [Eh]
	 SCS Opposite-Spin Energy  =      -2.0933126946120120 [Eh]
	 SCS Correlation Energy    =      -2.2795382588030515 [Eh]
	 SCS Total Energy          =    -516.8760602261775148 [Eh]
	-----------------------------------------------------------

  Dipole Moment: [D]
     X:     0.6998      Y:    -3.6017      Z:     1.7749     Total:     4.0758

*** Psi4 exiting successfully. Buy a developer a beer!
