                               Psi4 1.3.2 release

  ==> Input File <==

--------------------------------------------------------------------------
#psi4
#
memory 32 gb

molecule  {
0 1
  O        0.9417500     2.5148810    -0.6596880
  N        2.0463840     0.6978680     0.1749460
  C        0.7564320    -1.5550710    -0.8733250
  C        1.8157710    -1.7711630     0.2163790
  C       -0.4497480    -0.7926040    -0.3845090
  C        2.0266990    -0.4897580     1.0228720
  C       -0.3770889     0.3896688    -0.1355243
  C        0.9119250     1.3593610    -0.2260870
  C       -1.6913630    -1.4231620    -0.2398970
  C       -1.5035900     1.3035830     0.2885800
  C       -2.8212120    -0.7143780     0.1714760
  C       -2.7281430     0.6547360     0.4326570
  H        0.4383490    -2.5216720    -1.2799980
  H        1.2165960    -1.0011160    -1.6986390
  H        1.5065410    -2.5704870     0.9013410
  H        2.7543720    -2.0878480    -0.2534440
  H        1.2290340    -0.3883270     1.7666860
  H        2.9729880    -0.5259550     1.5704730
  H        2.8793190     1.2773810     0.1528780
  H       -1.7755450    -2.4842720    -0.4701710
  H       -1.4080790     2.3720960     0.4641940
  H       -3.7741480    -1.2278540     0.2772780
  H       -3.6082280     1.2145190     0.7397060
units angstrom
no_reorient  #important for SAPT in psi4, default
symmetry c1  #important for SAPT in psi4, default
}

set PROPERTIES_ORIGIN ["COM"]
properties('MP2/aug-cc-pvtz', properties = ['dipole'])
--------------------------------------------------------------------------

    Molecular point group: c1
  Charge       = 0
  Multiplicity = 1
  Basis Set: AUG-CC-PVTZ
    Blend: AUG-CC-PVTZ
  Basis Set: (AUG-CC-PVTZ AUX)
    Blend: AUG-CC-PVTZ-JKFIT

    Orbital Energies [Eh]
    ---------------------

    Doubly Occupied:

       1A    -20.522164     2A    -15.581635     3A    -11.358293
       4A    -11.275778     5A    -11.251640     6A    -11.245382
       7A    -11.242234     8A    -11.241562     9A    -11.238682
      10A    -11.238083    11A    -11.237474    12A    -11.228551
      13A     -1.369587    14A     -1.236144    15A     -1.181897
      16A     -1.084560    17A     -1.041912    18A     -1.007960
      19A     -0.941757    20A     -0.867457    21A     -0.848472
      22A     -0.809456    23A     -0.768479    24A     -0.689473
      25A     -0.686938    26A     -0.671617    27A     -0.654532
      28A     -0.624135    29A     -0.614963    30A     -0.599525
      31A     -0.582441    32A     -0.573488    33A     -0.557757
      34A     -0.539887    35A     -0.518600    36A     -0.515300
      37A     -0.494235    38A     -0.490388    39A     -0.472706
      40A     -0.408223    41A     -0.390651    42A     -0.366185
      43A     -0.327022

  @DF-RHF Final Energy:  -514.53737017324852

   => Energetics <=

    Nuclear Repulsion Energy =            686.4466504094208403
    One-Electron Energy =               -2060.7735838834396418
    Two-Electron Energy =                 859.7895633007703964
    Total Energy =                       -514.5373701732485188
  Basis Set: (AUG-CC-PVTZ AUX)
    Blend: AUG-CC-PVTZ-RI
    Molecular point group: c1

    Geometry (in Angstrom), charge = 0, multiplicity = 1:

       Center              X                  Y                   Z               Mass
    ------------   -----------------  -----------------  -----------------  -----------------
         O            0.957609508942     2.480573048184    -0.643279645960    15.994914619570
         N            2.062243508942     0.663560048184     0.191354354040    14.003074004430
         C            0.772291508942    -1.589378951816    -0.856916645960    12.000000000000
         C            1.831630508942    -1.805470951816     0.232787354040    12.000000000000
         C           -0.433888491058    -0.826911951816    -0.368100645960    12.000000000000
         C            2.042558508942    -0.524065951816     1.039280354040    12.000000000000
         C           -0.361229391058     0.355360848184    -0.119115945960    12.000000000000
         C            0.927784508942     1.325053048184    -0.209678645960    12.000000000000
         C           -1.675503491058    -1.457469951816    -0.223488645960    12.000000000000
         C           -1.487730491058     1.269275048184     0.304988354040    12.000000000000
         C           -2.805352491058    -0.748685951816     0.187884354040    12.000000000000
         C           -2.712283491058     0.620428048184     0.449065354040    12.000000000000
         H            0.454208508942    -2.555979951816    -1.263589645960     1.007825032230
         H            1.232455508942    -1.035423951816    -1.682230645960     1.007825032230
         H            1.522400508942    -2.604794951816     0.917749354040     1.007825032230
         H            2.770231508942    -2.122155951816    -0.237035645960     1.007825032230
         H            1.244893508942    -0.422634951816     1.783094354040     1.007825032230
         H            2.988847508942    -0.560262951816     1.586881354040     1.007825032230
         H            2.895178508942     1.243073048184     0.169286354040     1.007825032230
         H           -1.759685491058    -2.518579951816    -0.453762645960     1.007825032230
         H           -1.392219491058     2.337788048184     0.480602354040     1.007825032230
         H           -3.758288491058    -1.262161951816     0.293686354040     1.007825032230
         H           -3.592368491058     1.180211048184     0.756114354040     1.007825032230

  Basis Set: AUG-CC-PVTZ
    Blend: AUG-CC-PVTZ
  Basis Set: (AUG-CC-PVTZ AUX)
    Blend: AUG-CC-PVTZ-JKFIT
	 Reference Energy          =    -514.5373701732485188 [Eh]
	 Singles Energy            =      -0.0000000000000000 [Eh]
	 Same-Spin Energy          =      -0.5580472652330996 [Eh]
	 Opposite-Spin Energy      =      -1.7461002837528865 [Eh]
	 Correlation Energy        =      -2.3041475489859859 [Eh]
	 Total Energy              =    -516.8415177222344710 [Eh]

	 ================> DF-SCS-MP2 Energies <==================
	-----------------------------------------------------------
	 SCS Same-Spin Scale       =       0.3333333333333333 [-]
	 SCS Opposite-Spin Scale   =       1.2000000000000000 [-]
	 SCS Same-Spin Energy      =      -0.1860157550776999 [Eh]
	 SCS Opposite-Spin Energy  =      -2.0953203405034637 [Eh]
	 SCS Correlation Energy    =      -2.2813360955811635 [Eh]
	 SCS Total Energy          =    -516.8187062688297146 [Eh]
	-----------------------------------------------------------

  Dipole Moment: [D]
     X:     0.7580      Y:    -3.4723      Z:     1.7319     Total:     3.9536

*** Psi4 exiting successfully. Buy a developer a beer!
