                               Psi4 1.3.2 release

  ==> Input File <==

--------------------------------------------------------------------------
#psi4
#
memory 32 gb

molecule  {
0 1
  O        0.9417500     2.5148810    -0.6596880
  N        2.0463840     0.6978680     0.1749460
  C        0.7564320    -1.5550710    -0.8733250
  C        1.7516511    -1.7182155     0.2839444
  C       -0.4497480    -0.7926040    -0.3845090
  C        2.0266990    -0.4897580     1.0228720
  C       -0.3650830     0.5850230    -0.0943830
  C        0.9119250     1.3593610    -0.2260870
  C       -1.6913630    -1.4231620    -0.2398970
  C       -1.5035900     1.3035830     0.2885800
  C       -2.8212120    -0.7143780     0.1714760
  C       -2.7281430     0.6547360     0.4326570
  H        0.4383490    -2.5216720    -1.2799980
  H        1.2165960    -1.0011160    -1.6986390
  H        1.5065410    -2.5704870     0.9013410
  H        2.7543720    -2.0878480    -0.2534440
  H        1.2290340    -0.3883270     1.7666860
  H        2.9729880    -0.5259550     1.5704730
  H        2.8793190     1.2773810     0.1528780
  H       -1.7755450    -2.4842720    -0.4701710
  H       -1.4080790     2.3720960     0.4641940
  H       -3.7741480    -1.2278540     0.2772780
  H       -3.6082280     1.2145190     0.7397060
units angstrom
no_reorient  #important for SAPT in psi4, default
symmetry c1  #important for SAPT in psi4, default
}

set PROPERTIES_ORIGIN ["COM"]
properties('MP2/aug-cc-pvtz', properties = ['dipole'])
--------------------------------------------------------------------------

    Molecular point group: c1
  Charge       = 0
  Multiplicity = 1
  Basis Set: AUG-CC-PVTZ
    Blend: AUG-CC-PVTZ
  Basis Set: (AUG-CC-PVTZ AUX)
    Blend: AUG-CC-PVTZ-JKFIT

    Orbital Energies [Eh]
    ---------------------

    Doubly Occupied:

       1A    -20.515770     2A    -15.583702     3A    -11.352131
       4A    -11.274069     5A    -11.257569     6A    -11.248968
       7A    -11.247178     8A    -11.245758     9A    -11.242733
      10A    -11.241382    11A    -11.241183    12A    -11.239560
      13A     -1.369742    14A     -1.238006    15A     -1.164571
      16A     -1.086963    17A     -1.038504    18A     -1.024210
      19A     -0.942684    20A     -0.881264    21A     -0.837813
      22A     -0.797774    23A     -0.777054    24A     -0.698088
      25A     -0.688177    26A     -0.672725    27A     -0.655590
      28A     -0.626807    29A     -0.614278    30A     -0.603447
      31A     -0.586811    32A     -0.578996    33A     -0.556796
      34A     -0.535494    35A     -0.520039    36A     -0.513026
      37A     -0.498517    38A     -0.492411    39A     -0.456592
      40A     -0.423739    41A     -0.391675    42A     -0.344092
      43A     -0.335736

  @DF-RHF Final Energy:  -514.58448929938118

   => Energetics <=

    Nuclear Repulsion Energy =            686.5561383286302544
    One-Electron Energy =               -2060.9980075604357808
    Two-Electron Energy =                 859.8573799324242373
    Total Energy =                       -514.5844892993811754
  Basis Set: (AUG-CC-PVTZ AUX)
    Blend: AUG-CC-PVTZ-RI
    Molecular point group: c1

    Geometry (in Angstrom), charge = 0, multiplicity = 1:

       Center              X                  Y                   Z               Mass
    ------------   -----------------  -----------------  -----------------  -----------------
         O            0.961491755171     2.462075747294    -0.651377780361    15.994914619570
         N            2.066125755171     0.645062747294     0.183256219639    14.003074004430
         C            0.776173755171    -1.607876252706    -0.865014780361    12.000000000000
         C            1.771392855171    -1.771020752706     0.292254619639    12.000000000000
         C           -0.430006244829    -0.845409252706    -0.376198780361    12.000000000000
         C            2.046440755171    -0.542563252706     1.031182219639    12.000000000000
         C           -0.345341244829     0.532217747294    -0.086072780361    12.000000000000
         C            0.931666755171     1.306555747294    -0.217776780361    12.000000000000
         C           -1.671621244829    -1.475967252706    -0.231586780361    12.000000000000
         C           -1.483848244829     1.250777747294     0.296890219639    12.000000000000
         C           -2.801470244829    -0.767183252706     0.179786219639    12.000000000000
         C           -2.708401244829     0.601930747294     0.440967219639    12.000000000000
         H            0.458090755171    -2.574477252706    -1.271687780361     1.007825032230
         H            1.236337755171    -1.053921252706    -1.690328780361     1.007825032230
         H            1.526282755171    -2.623292252706     0.909651219639     1.007825032230
         H            2.774113755171    -2.140653252706    -0.245133780361     1.007825032230
         H            1.248775755171    -0.441132252706     1.774996219639     1.007825032230
         H            2.992729755171    -0.578760252706     1.578783219639     1.007825032230
         H            2.899060755171     1.224575747294     0.161188219639     1.007825032230
         H           -1.755803244829    -2.537077252706    -0.461860780361     1.007825032230
         H           -1.388337244829     2.319290747294     0.472504219639     1.007825032230
         H           -3.754406244829    -1.280659252706     0.285588219639     1.007825032230
         H           -3.588486244829     1.161713747294     0.748016219639     1.007825032230

  Basis Set: AUG-CC-PVTZ
    Blend: AUG-CC-PVTZ
  Basis Set: (AUG-CC-PVTZ AUX)
    Blend: AUG-CC-PVTZ-JKFIT
	 Reference Energy          =    -514.5844892993811754 [Eh]
	 Singles Energy            =      -0.0000000000000000 [Eh]
	 Same-Spin Energy          =      -0.5593385766859181 [Eh]
	 Opposite-Spin Energy      =      -1.7453777802020956 [Eh]
	 Correlation Energy        =      -2.3047163568880138 [Eh]
	 Total Energy              =    -516.8892056562691550 [Eh]

	 ================> DF-SCS-MP2 Energies <==================
	-----------------------------------------------------------
	 SCS Same-Spin Scale       =       0.3333333333333333 [-]
	 SCS Opposite-Spin Scale   =       1.2000000000000000 [-]
	 SCS Same-Spin Energy      =      -0.1864461922286394 [Eh]
	 SCS Opposite-Spin Energy  =      -2.0944533362425144 [Eh]
	 SCS Correlation Energy    =      -2.2808995284711537 [Eh]
	 SCS Total Energy          =    -516.8653888278523709 [Eh]
	-----------------------------------------------------------

  Dipole Moment: [D]
     X:     0.5619      Y:    -3.6102      Z:     1.7821     Total:     4.0652

*** Psi4 exiting successfully. Buy a developer a beer!
