                               Psi4 1.3.2 release

  ==> Input File <==

--------------------------------------------------------------------------
#psi4
#
memory 32 gb

molecule  {
0 1
  O        0.9417500     2.5148810    -0.6596880
  N        2.0463840     0.6978680     0.1749460
  C        0.7564320    -1.5550710    -0.8733250
  C        1.8157710    -1.7711630     0.2163790
  C       -0.4497480    -0.7926040    -0.3845090
  C        2.0266990    -0.4897580     1.0228720
  C       -0.3650830     0.5850230    -0.0943830
  C        0.8267475     1.3077120    -0.2173022
  C       -1.6913630    -1.4231620    -0.2398970
  C       -1.5035900     1.3035830     0.2885800
  C       -2.8212120    -0.7143780     0.1714760
  C       -2.7281430     0.6547360     0.4326570
  H        0.4383490    -2.5216720    -1.2799980
  H        1.2165960    -1.0011160    -1.6986390
  H        1.5065410    -2.5704870     0.9013410
  H        2.7543720    -2.0878480    -0.2534440
  H        1.2290340    -0.3883270     1.7666860
  H        2.9729880    -0.5259550     1.5704730
  H        2.8793190     1.2773810     0.1528780
  H       -1.7755450    -2.4842720    -0.4701710
  H       -1.4080790     2.3720960     0.4641940
  H       -3.7741480    -1.2278540     0.2772780
  H       -3.6082280     1.2145190     0.7397060
units angstrom
no_reorient  #important for SAPT in psi4, default
symmetry c1  #important for SAPT in psi4, default
}

set PROPERTIES_ORIGIN ["COM"]
properties('MP2/aug-cc-pvtz', properties = ['dipole'])
--------------------------------------------------------------------------

    Molecular point group: c1
  Charge       = 0
  Multiplicity = 1
  Basis Set: AUG-CC-PVTZ
    Blend: AUG-CC-PVTZ
  Basis Set: (AUG-CC-PVTZ AUX)
    Blend: AUG-CC-PVTZ-JKFIT

    Orbital Energies [Eh]
    ---------------------

    Doubly Occupied:

       1A    -20.508881     2A    -15.578486     3A    -11.353972
       4A    -11.270382     5A    -11.266884     6A    -11.257120
       7A    -11.254370     8A    -11.246559     9A    -11.246059
      10A    -11.244650    11A    -11.241471    12A    -11.237175
      13A     -1.335766    14A     -1.217208    15A     -1.171425
      16A     -1.082504    17A     -1.053997    18A     -1.022182
      19A     -0.936050    20A     -0.897264    21A     -0.843392
      22A     -0.801473    23A     -0.776874    24A     -0.703867
      25A     -0.681774    26A     -0.675260    27A     -0.649489
      28A     -0.626406    29A     -0.614329    30A     -0.602236
      31A     -0.582132    32A     -0.571206    33A     -0.552571
      34A     -0.535729    35A     -0.518055    36A     -0.511441
      37A     -0.493357    38A     -0.489165    39A     -0.476504
      40A     -0.419924    41A     -0.378325    42A     -0.349988
      43A     -0.341292

  @DF-RHF Final Energy:  -514.57615844477345

   => Energetics <=

    Nuclear Repulsion Energy =            685.7241358875398873
    One-Electron Energy =               -2059.3661977204401410
    Two-Electron Energy =                 859.0659033881267987
    Total Energy =                       -514.5761584447734549
  Basis Set: (AUG-CC-PVTZ AUX)
    Blend: AUG-CC-PVTZ-RI
    Molecular point group: c1

    Geometry (in Angstrom), charge = 0, multiplicity = 1:

       Center              X                  Y                   Z               Mass
    ------------   -----------------  -----------------  -----------------  -----------------
         O            0.963060446659     2.469867691258    -0.646998903999    15.994914619570
         N            2.067694446659     0.652854691258     0.187635096001    14.003074004430
         C            0.777742446659    -1.600084308742    -0.860635903999    12.000000000000
         C            1.837081446659    -1.816176308742     0.229068096001    12.000000000000
         C           -0.428437553341    -0.837617308742    -0.371819903999    12.000000000000
         C            2.048009446659    -0.534771308742     1.035561096001    12.000000000000
         C           -0.343772553341     0.540009691258    -0.081693903999    12.000000000000
         C            0.848057946659     1.262698691258    -0.204613103999    12.000000000000
         C           -1.670052553341    -1.468175308742    -0.227207903999    12.000000000000
         C           -1.482279553341     1.258569691258     0.301269096001    12.000000000000
         C           -2.799901553341    -0.759391308742     0.184165096001    12.000000000000
         C           -2.706832553341     0.609722691258     0.445346096001    12.000000000000
         H            0.459659446659    -2.566685308742    -1.267308903999     1.007825032230
         H            1.237906446659    -1.046129308742    -1.685949903999     1.007825032230
         H            1.527851446659    -2.615500308742     0.914030096001     1.007825032230
         H            2.775682446659    -2.132861308742    -0.240754903999     1.007825032230
         H            1.250344446659    -0.433340308742     1.779375096001     1.007825032230
         H            2.994298446659    -0.570968308742     1.583162096001     1.007825032230
         H            2.900629446659     1.232367691258     0.165567096001     1.007825032230
         H           -1.754234553341    -2.529285308742    -0.457481903999     1.007825032230
         H           -1.386768553341     2.327082691258     0.476883096001     1.007825032230
         H           -3.752837553341    -1.272867308742     0.289967096001     1.007825032230
         H           -3.586917553341     1.169505691258     0.752395096001     1.007825032230

  Basis Set: AUG-CC-PVTZ
    Blend: AUG-CC-PVTZ
  Basis Set: (AUG-CC-PVTZ AUX)
    Blend: AUG-CC-PVTZ-JKFIT
	 Reference Energy          =    -514.5761584447734549 [Eh]
	 Singles Energy            =      -0.0000000000000000 [Eh]
	 Same-Spin Energy          =      -0.5610253819425992 [Eh]
	 Opposite-Spin Energy      =      -1.7490013660747548 [Eh]
	 Correlation Energy        =      -2.3100267480173540 [Eh]
	 Total Energy              =    -516.8861851927907765 [Eh]

	 ================> DF-SCS-MP2 Energies <==================
	-----------------------------------------------------------
	 SCS Same-Spin Scale       =       0.3333333333333333 [-]
	 SCS Opposite-Spin Scale   =       1.2000000000000000 [-]
	 SCS Same-Spin Energy      =      -0.1870084606475331 [Eh]
	 SCS Opposite-Spin Energy  =      -2.0988016392897055 [Eh]
	 SCS Correlation Energy    =      -2.2858100999372386 [Eh]
	 SCS Total Energy          =    -516.8619685447107486 [Eh]
	-----------------------------------------------------------

  Dipole Moment: [D]
     X:     0.0340      Y:    -3.8766      Z:     1.7774     Total:     4.2648

*** Psi4 exiting successfully. Buy a developer a beer!
