                               Psi4 1.3.2 release

  ==> Input File <==

--------------------------------------------------------------------------
#psi4
#
memory 32 gb

molecule  {
0 1
  O        0.9417500     2.5148810    -0.6596880
  N        2.0463840     0.6978680     0.1749460
  C        0.7564320    -1.5550710    -0.8733250
  C        1.8157710    -1.7711630     0.2163790
  C       -0.4497480    -0.7926040    -0.3845090
  C        2.0266990    -0.4897580     1.0228720
  C       -0.3650830     0.5850230    -0.0943830
  C        0.9119250     1.3593610    -0.2260870
  C       -1.5139950    -1.3330851    -0.2605552
  C       -1.5035900     1.3035830     0.2885800
  C       -2.8212120    -0.7143780     0.1714760
  C       -2.7281430     0.6547360     0.4326570
  H        0.4383490    -2.5216720    -1.2799980
  H        1.2165960    -1.0011160    -1.6986390
  H        1.5065410    -2.5704870     0.9013410
  H        2.7543720    -2.0878480    -0.2534440
  H        1.2290340    -0.3883270     1.7666860
  H        2.9729880    -0.5259550     1.5704730
  H        2.8793190     1.2773810     0.1528780
  H       -1.7755450    -2.4842720    -0.4701710
  H       -1.4080790     2.3720960     0.4641940
  H       -3.7741480    -1.2278540     0.2772780
  H       -3.6082280     1.2145190     0.7397060
units angstrom
no_reorient  #important for SAPT in psi4, default
symmetry c1  #important for SAPT in psi4, default
}

set PROPERTIES_ORIGIN ["COM"]
properties('MP2/aug-cc-pvtz', properties = ['dipole'])
--------------------------------------------------------------------------

    Molecular point group: c1
  Charge       = 0
  Multiplicity = 1
  Basis Set: AUG-CC-PVTZ
    Blend: AUG-CC-PVTZ
  Basis Set: (AUG-CC-PVTZ AUX)
    Blend: AUG-CC-PVTZ-JKFIT

    Orbital Energies [Eh]
    ---------------------

    Doubly Occupied:

       1A    -20.514018     2A    -15.581788     3A    -11.350592
       4A    -11.275581     5A    -11.259726     6A    -11.248562
       7A    -11.247255     8A    -11.242018     9A    -11.236582
      10A    -11.236367    11A    -11.235969    12A    -11.227344
      13A     -1.368082    14A     -1.234898    15A     -1.183318
      16A     -1.086195    17A     -1.038032    18A     -1.022446
      19A     -0.941482    20A     -0.887647    21A     -0.835018
      22A     -0.794498    23A     -0.779183    24A     -0.698240
      25A     -0.682565    26A     -0.672901    27A     -0.653456
      28A     -0.630241    29A     -0.616593    30A     -0.590721
      31A     -0.580133    32A     -0.576389    33A     -0.559210
      34A     -0.537841    35A     -0.527853    36A     -0.507174
      37A     -0.493121    38A     -0.491383    39A     -0.448720
      40A     -0.423252    41A     -0.388652    42A     -0.367602
      43A     -0.329628

  @DF-RHF Final Energy:  -514.53540110103154

   => Energetics <=

    Nuclear Repulsion Energy =            688.7422479768036965
    One-Electron Energy =               -2065.3507477936609575
    Two-Electron Energy =                 862.0730987158256085
    Total Energy =                       -514.5354011010315389
  Basis Set: (AUG-CC-PVTZ AUX)
    Blend: AUG-CC-PVTZ-RI
    Molecular point group: c1

    Geometry (in Angstrom), charge = 0, multiplicity = 1:

       Center              X                  Y                   Z               Mass
    ------------   -----------------  -----------------  -----------------  -----------------
         O            0.943502050116     2.459309782809    -0.644805539918    15.994914619570
         N            2.048136050116     0.642296782809     0.189828460082    14.003074004430
         C            0.758184050116    -1.610642217191    -0.858442539918    12.000000000000
         C            1.817523050116    -1.826734217191     0.231261460082    12.000000000000
         C           -0.447995949884    -0.848175217191    -0.369626539918    12.000000000000
         C            2.028451050116    -0.545329217191     1.037754460082    12.000000000000
         C           -0.363330949884     0.529451782809    -0.079500539918    12.000000000000
         C            0.913677050116     1.303789782809    -0.211204539918    12.000000000000
         C           -1.512242949884    -1.388656317191    -0.245672739918    12.000000000000
         C           -1.501837949884     1.248011782809     0.303462460082    12.000000000000
         C           -2.819459949884    -0.769949217191     0.186358460082    12.000000000000
         C           -2.726390949884     0.599164782809     0.447539460082    12.000000000000
         H            0.440101050116    -2.577243217191    -1.265115539918     1.007825032230
         H            1.218348050116    -1.056687217191    -1.683756539918     1.007825032230
         H            1.508293050116    -2.626058217191     0.916223460082     1.007825032230
         H            2.756124050116    -2.143419217191    -0.238561539918     1.007825032230
         H            1.230786050116    -0.443898217191     1.781568460082     1.007825032230
         H            2.974740050116    -0.581526217191     1.585355460082     1.007825032230
         H            2.881071050116     1.221809782809     0.167760460082     1.007825032230
         H           -1.773792949884    -2.539843217191    -0.455288539918     1.007825032230
         H           -1.406326949884     2.316524782809     0.479076460082     1.007825032230
         H           -3.772395949884    -1.283425217191     0.292160460082     1.007825032230
         H           -3.606475949884     1.158947782809     0.754588460082     1.007825032230

  Basis Set: AUG-CC-PVTZ
    Blend: AUG-CC-PVTZ
  Basis Set: (AUG-CC-PVTZ AUX)
    Blend: AUG-CC-PVTZ-JKFIT
	 Reference Energy          =    -514.5354011010315389 [Eh]
	 Singles Energy            =      -0.0000000000000000 [Eh]
	 Same-Spin Energy          =      -0.5581030172019649 [Eh]
	 Opposite-Spin Energy      =      -1.7461333509216579 [Eh]
	 Correlation Energy        =      -2.3042363681236226 [Eh]
	 Total Energy              =    -516.8396374691551500 [Eh]

	 ================> DF-SCS-MP2 Energies <==================
	-----------------------------------------------------------
	 SCS Same-Spin Scale       =       0.3333333333333333 [-]
	 SCS Opposite-Spin Scale   =       1.2000000000000000 [-]
	 SCS Same-Spin Energy      =      -0.1860343390673216 [Eh]
	 SCS Opposite-Spin Energy  =      -2.0953600211059893 [Eh]
	 SCS Correlation Energy    =      -2.2813943601733109 [Eh]
	 SCS Total Energy          =    -516.8167954612048334 [Eh]
	-----------------------------------------------------------

  Dipole Moment: [D]
     X:     0.5508      Y:    -3.4822      Z:     1.8207     Total:     3.9679

*** Psi4 exiting successfully. Buy a developer a beer!
