                               Psi4 1.4a3.dev225

  ==> Input File <==

--------------------------------------------------------------------------
#psi4
#
memory 32 gb

molecule  {
0 1
  O        0.9417500     2.5148810    -0.6596880
  N        2.0463840     0.6978680     0.1749460
  C        0.7564320    -1.5550710    -0.8733250
  C        1.8157710    -1.7711630     0.2163790
  C       -0.4497480    -0.7926040    -0.3845090
  C        2.0266990    -0.4897580     1.0228720
  C       -0.3650830     0.5850230    -0.0943830
  C        0.9532352     1.3352734    -0.2114838
  C       -1.6913630    -1.4231620    -0.2398970
  C       -1.5035900     1.3035830     0.2885800
  C       -2.8212120    -0.7143780     0.1714760
  C       -2.7281430     0.6547360     0.4326570
  H        0.4383490    -2.5216720    -1.2799980
  H        1.2165960    -1.0011160    -1.6986390
  H        1.5065410    -2.5704870     0.9013410
  H        2.7543720    -2.0878480    -0.2534440
  H        1.2290340    -0.3883270     1.7666860
  H        2.9729880    -0.5259550     1.5704730
  H        2.8793190     1.2773810     0.1528780
  H       -1.7755450    -2.4842720    -0.4701710
  H       -1.4080790     2.3720960     0.4641940
  H       -3.7741480    -1.2278540     0.2772780
  H       -3.6082280     1.2145190     0.7397060
units angstrom
no_reorient  #important for SAPT in psi4, default
symmetry c1  #important for SAPT in psi4, default
}

set PROPERTIES_ORIGIN ["COM"]
properties('MP2/aug-cc-pvtz', properties = ['dipole'])
--------------------------------------------------------------------------

    Molecular point group: c1
  Charge       = 0
  Multiplicity = 1
  Basis Set: AUG-CC-PVTZ
    Blend: AUG-CC-PVTZ
  Basis Set: (AUG-CC-PVTZ AUX)
    Blend: AUG-CC-PVTZ-JKFIT

    Orbital Energies [Eh]
    ---------------------

    Doubly Occupied:

       1A    -20.506676     2A    -15.591946     3A    -11.350006
       4A    -11.281379     5A    -11.256137     6A    -11.247601
       7A    -11.246991     8A    -11.243857     9A    -11.241408
      10A    -11.240628    11A    -11.240483    12A    -11.238743
      13A     -1.355814    14A     -1.246481    15A     -1.163344
      16A     -1.085374    17A     -1.033927    18A     -1.022019
      19A     -0.943510    20A     -0.881284    21A     -0.843432
      22A     -0.798249    23A     -0.782383    24A     -0.697775
      25A     -0.690996    26A     -0.670818    27A     -0.654444
      28A     -0.621867    29A     -0.618167    30A     -0.600258
      31A     -0.583672    32A     -0.573742    33A     -0.556988
      34A     -0.537046    35A     -0.518002    36A     -0.506464
      37A     -0.493640    38A     -0.490540    39A     -0.478051
      40A     -0.417485    41A     -0.392208    42A     -0.341184
      43A     -0.335035

  @DF-RHF Final Energy:  -514.59244471736235

   => Energetics <=

    Nuclear Repulsion Energy =            685.1947213836998571
    One-Electron Energy =               -2058.3342247786417829
    Two-Electron Energy =                 858.5470586775796846
    Total Energy =                       -514.5924447173623548
  Basis Set: (AUG-CC-PVTZ AUX)
    Blend: AUG-CC-PVTZ-RI
    Molecular point group: c1

    Geometry (in Angstrom), charge = 0, multiplicity = 1:

       Center              X                  Y                   Z               Mass
    ------------   -----------------  -----------------  -----------------  -----------------
         O            0.953637711954     2.467814497467    -0.647432347248    15.994914619570
         N            2.058271711954     0.650801497467     0.187201652752    14.003074004430
         C            0.768319711954    -1.602137502533    -0.861069347248    12.000000000000
         C            1.827658711954    -1.818229502533     0.228634652752    12.000000000000
         C           -0.437860288046    -0.839670502533    -0.372253347248    12.000000000000
         C            2.038586711954    -0.536824502533     1.035127652752    12.000000000000
         C           -0.353195288046     0.537956497467    -0.082127347248    12.000000000000
         C            0.965122911954     1.288206897467    -0.199228147248    12.000000000000
         C           -1.679475288046    -1.470228502533    -0.227641347248    12.000000000000
         C           -1.491702288046     1.256516497467     0.300835652752    12.000000000000
         C           -2.809324288046    -0.761444502533     0.183731652752    12.000000000000
         C           -2.716255288046     0.607669497467     0.444912652752    12.000000000000
         H            0.450236711954    -2.568738502533    -1.267742347248     1.007825032230
         H            1.228483711954    -1.048182502533    -1.686383347248     1.007825032230
         H            1.518428711954    -2.617553502533     0.913596652752     1.007825032230
         H            2.766259711954    -2.134914502533    -0.241188347248     1.007825032230
         H            1.240921711954    -0.435393502533     1.778941652752     1.007825032230
         H            2.984875711954    -0.573021502533     1.582728652752     1.007825032230
         H            2.891206711954     1.230314497467     0.165133652752     1.007825032230
         H           -1.763657288046    -2.531338502533    -0.457915347248     1.007825032230
         H           -1.396191288046     2.325029497467     0.476449652752     1.007825032230
         H           -3.762260288046    -1.274920502533     0.289533652752     1.007825032230
         H           -3.596340288046     1.167452497467     0.751961652752     1.007825032230

  Basis Set: AUG-CC-PVTZ
    Blend: AUG-CC-PVTZ
  Basis Set: (AUG-CC-PVTZ AUX)
    Blend: AUG-CC-PVTZ-JKFIT
	 Reference Energy          =    -514.5924447173623548 [Eh]
	 Singles Energy            =      -0.0000000000000000 [Eh]
	 Same-Spin Energy          =      -0.5589871706479839 [Eh]
	 Opposite-Spin Energy      =      -1.7449384399711589 [Eh]
	 Correlation Energy        =      -2.3039256106191428 [Eh]
	 Total Energy              =    -516.8963703279814581 [Eh]

	 ================> DF-SCS-MP2 Energies <==================
	-----------------------------------------------------------
	 SCS Same-Spin Scale       =       0.3333333333333333 [-]
	 SCS Opposite-Spin Scale   =       1.2000000000000000 [-]
	 SCS Same-Spin Energy      =      -0.1863290568826613 [Eh]
	 SCS Opposite-Spin Energy  =      -2.0939261279653905 [Eh]
	 SCS Correlation Energy    =      -2.2802551848480519 [Eh]
	 SCS Total Energy          =    -516.8726999022104565 [Eh]
	-----------------------------------------------------------

  Dipole Moment: [D]
     X:     0.9502      Y:    -3.8668      Z:     1.9171     Total:     4.4193

*** Psi4 exiting successfully. Buy a developer a beer!
