                               Psi4 1.3.2 release

  ==> Input File <==

--------------------------------------------------------------------------
#psi4
#
memory 32 gb

molecule  {
0 1
  O        0.9417500     2.5148810    -0.6596880
  N        2.0463840     0.6978680     0.1749460
  C        0.7564320    -1.5550710    -0.8733250
  C        1.8157710    -1.7711630     0.2163790
  C       -0.4497480    -0.7926040    -0.3845090
  C        2.0266990    -0.4897580     1.0228720
  C       -0.5091041     0.5792428    -0.0624678
  C        0.9119250     1.3593610    -0.2260870
  C       -1.6913630    -1.4231620    -0.2398970
  C       -1.5035900     1.3035830     0.2885800
  C       -2.8212120    -0.7143780     0.1714760
  C       -2.7281430     0.6547360     0.4326570
  H        0.4383490    -2.5216720    -1.2799980
  H        1.2165960    -1.0011160    -1.6986390
  H        1.5065410    -2.5704870     0.9013410
  H        2.7543720    -2.0878480    -0.2534440
  H        1.2290340    -0.3883270     1.7666860
  H        2.9729880    -0.5259550     1.5704730
  H        2.8793190     1.2773810     0.1528780
  H       -1.7755450    -2.4842720    -0.4701710
  H       -1.4080790     2.3720960     0.4641940
  H       -3.7741480    -1.2278540     0.2772780
  H       -3.6082280     1.2145190     0.7397060
units angstrom
no_reorient  #important for SAPT in psi4, default
symmetry c1  #important for SAPT in psi4, default
}

set PROPERTIES_ORIGIN ["COM"]
properties('MP2/aug-cc-pvtz', properties = ['dipole'])
--------------------------------------------------------------------------

    Molecular point group: c1
  Charge       = 0
  Multiplicity = 1
  Basis Set: AUG-CC-PVTZ
    Blend: AUG-CC-PVTZ
  Basis Set: (AUG-CC-PVTZ AUX)
    Blend: AUG-CC-PVTZ-JKFIT

    Orbital Energies [Eh]
    ---------------------

    Doubly Occupied:

       1A    -20.515630     2A    -15.584064     3A    -11.353477
       4A    -11.276490     5A    -11.254476     6A    -11.244248
       7A    -11.242949     8A    -11.242911     9A    -11.240578
      10A    -11.239645    11A    -11.238556    12A    -11.227903
      13A     -1.365952    14A     -1.233055    15A     -1.176186
      16A     -1.085248    17A     -1.037620    18A     -1.022148
      19A     -0.939861    20A     -0.864562    21A     -0.842843
      22A     -0.802697    23A     -0.776543    24A     -0.694720
      25A     -0.687123    26A     -0.664096    27A     -0.652640
      28A     -0.621785    29A     -0.615889    30A     -0.611709
      31A     -0.580069    32A     -0.576161    33A     -0.555547
      34A     -0.537901    35A     -0.520173    36A     -0.502993
      37A     -0.497551    38A     -0.496447    39A     -0.483027
      40A     -0.407146    41A     -0.389286    42A     -0.356251
      43A     -0.331063

  @DF-RHF Final Energy:  -514.57230601361937

   => Energetics <=

    Nuclear Repulsion Energy =            684.9520914868397767
    One-Electron Energy =               -2057.8703480767617293
    Two-Electron Energy =                 858.3459505763024708
    Total Energy =                       -514.5723060136193681
  Basis Set: (AUG-CC-PVTZ AUX)
    Blend: AUG-CC-PVTZ-RI
    Molecular point group: c1

    Geometry (in Angstrom), charge = 0, multiplicity = 1:

       Center              X                  Y                   Z               Mass
    ------------   -----------------  -----------------  -----------------  -----------------
         O            0.967444016222     2.466450682856    -0.648722009272    15.994914619570
         N            2.072078016222     0.649437682856     0.185911990728    14.003074004430
         C            0.782126016222    -1.603501317144    -0.862359009272    12.000000000000
         C            1.841465016222    -1.819593317144     0.227344990728    12.000000000000
         C           -0.424053983778    -0.841034317144    -0.373543009272    12.000000000000
         C            2.052393016222    -0.538188317144     1.033837990728    12.000000000000
         C           -0.483410083778     0.530812482856    -0.051501809272    12.000000000000
         C            0.937619016222     1.310930682856    -0.215121009272    12.000000000000
         C           -1.665668983778    -1.471592317144    -0.228931009272    12.000000000000
         C           -1.477895983778     1.255152682856     0.299545990728    12.000000000000
         C           -2.795517983778    -0.762808317144     0.182441990728    12.000000000000
         C           -2.702448983778     0.606305682856     0.443622990728    12.000000000000
         H            0.464043016222    -2.570102317144    -1.269032009272     1.007825032230
         H            1.242290016222    -1.049546317144    -1.687673009272     1.007825032230
         H            1.532235016222    -2.618917317144     0.912306990728     1.007825032230
         H            2.780066016222    -2.136278317144    -0.242478009272     1.007825032230
         H            1.254728016222    -0.436757317144     1.777651990728     1.007825032230
         H            2.998682016222    -0.574385317144     1.581438990728     1.007825032230
         H            2.905013016222     1.228950682856     0.163843990728     1.007825032230
         H           -1.749850983778    -2.532702317144    -0.459205009272     1.007825032230
         H           -1.382384983778     2.323665682856     0.475159990728     1.007825032230
         H           -3.748453983778    -1.276284317144     0.288243990728     1.007825032230
         H           -3.582533983778     1.166088682856     0.750671990728     1.007825032230

  Basis Set: AUG-CC-PVTZ
    Blend: AUG-CC-PVTZ
  Basis Set: (AUG-CC-PVTZ AUX)
    Blend: AUG-CC-PVTZ-JKFIT
	 Reference Energy          =    -514.5723060136193681 [Eh]
	 Singles Energy            =      -0.0000000000000000 [Eh]
	 Same-Spin Energy          =      -0.5581538947558805 [Eh]
	 Opposite-Spin Energy      =      -1.7440297495152874 [Eh]
	 Correlation Energy        =      -2.3021836442711678 [Eh]
	 Total Energy              =    -516.8744896578905355 [Eh]

	 ================> DF-SCS-MP2 Energies <==================
	-----------------------------------------------------------
	 SCS Same-Spin Scale       =       0.3333333333333333 [-]
	 SCS Opposite-Spin Scale   =       1.2000000000000000 [-]
	 SCS Same-Spin Energy      =      -0.1860512982519602 [Eh]
	 SCS Opposite-Spin Energy  =      -2.0928356994183450 [Eh]
	 SCS Correlation Energy    =      -2.2788869976703050 [Eh]
	 SCS Total Energy          =    -516.8511930112896380 [Eh]
	-----------------------------------------------------------

  Dipole Moment: [D]
     X:     0.7984      Y:    -3.5414      Z:     1.7548     Total:     4.0321

*** Psi4 exiting successfully. Buy a developer a beer!
