                               Psi4 1.3.2 release

  ==> Input File <==

--------------------------------------------------------------------------
#psi4
#
memory 32 gb

molecule  {
0 1
  O        0.9417500     2.5148810    -0.6596880
  N        2.0463840     0.6978680     0.1749460
  C        0.7564320    -1.5550710    -0.8733250
  C        1.8157710    -1.7711630     0.2163790
  C       -0.4497480    -0.7926040    -0.3845090
  C        1.9991032    -0.6574045     0.9173584
  C       -0.3650830     0.5850230    -0.0943830
  C        0.9119250     1.3593610    -0.2260870
  C       -1.6913630    -1.4231620    -0.2398970
  C       -1.5035900     1.3035830     0.2885800
  C       -2.8212120    -0.7143780     0.1714760
  C       -2.7281430     0.6547360     0.4326570
  H        0.4383490    -2.5216720    -1.2799980
  H        1.2165960    -1.0011160    -1.6986390
  H        1.5065410    -2.5704870     0.9013410
  H        2.7543720    -2.0878480    -0.2534440
  H        1.2290340    -0.3883270     1.7666860
  H        2.9729880    -0.5259550     1.5704730
  H        2.8793190     1.2773810     0.1528780
  H       -1.7755450    -2.4842720    -0.4701710
  H       -1.4080790     2.3720960     0.4641940
  H       -3.7741480    -1.2278540     0.2772780
  H       -3.6082280     1.2145190     0.7397060
units angstrom
no_reorient  #important for SAPT in psi4, default
symmetry c1  #important for SAPT in psi4, default
}

set PROPERTIES_ORIGIN ["COM"]
properties('MP2/aug-cc-pvtz', properties = ['dipole'])
--------------------------------------------------------------------------

    Molecular point group: c1
  Charge       = 0
  Multiplicity = 1
  Basis Set: AUG-CC-PVTZ
    Blend: AUG-CC-PVTZ
  Basis Set: (AUG-CC-PVTZ AUX)
    Blend: AUG-CC-PVTZ-JKFIT

    Orbital Energies [Eh]
    ---------------------

    Doubly Occupied:

       1A    -20.510057     2A    -15.580182     3A    -11.346756
       4A    -11.289406     5A    -11.258455     6A    -11.248283
       7A    -11.246693     8A    -11.244555     9A    -11.244253
      10A    -11.242439    11A    -11.239877    12A    -11.233261
      13A     -1.363773    14A     -1.223656    15A     -1.162770
      16A     -1.110121    17A     -1.043442    18A     -1.029020
      19A     -0.940527    20A     -0.876453    21A     -0.837736
      22A     -0.798566    23A     -0.772381    24A     -0.694781
      25A     -0.683759    26A     -0.676749    27A     -0.647803
      28A     -0.633093    29A     -0.622684    30A     -0.606608
      31A     -0.587307    32A     -0.574548    33A     -0.556490
      34A     -0.536315    35A     -0.517197    36A     -0.505767
      37A     -0.495236    38A     -0.489111    39A     -0.461470
      40A     -0.417309    41A     -0.389028    42A     -0.342704
      43A     -0.336582

  @DF-RHF Final Energy:  -514.54623261556071

   => Energetics <=

    Nuclear Repulsion Energy =            686.4875429821629496
    One-Electron Energy =               -2060.8331426184918200
    Two-Electron Energy =                 859.7993670207681589
    Total Energy =                       -514.5462326155607116
  Basis Set: (AUG-CC-PVTZ AUX)
    Blend: AUG-CC-PVTZ-RI
    Molecular point group: c1

    Geometry (in Angstrom), charge = 0, multiplicity = 1:

       Center              X                  Y                   Z               Mass
    ------------   -----------------  -----------------  -----------------  -----------------
         O            0.958770882670     2.478508955736    -0.638484214426    15.994914619570
         N            2.063404882670     0.661495955736     0.196149785574    14.003074004430
         C            0.773452882670    -1.591443044264    -0.852121214426    12.000000000000
         C            1.832791882670    -1.807535044264     0.237582785574    12.000000000000
         C           -0.432727117330    -0.828976044264    -0.363305214426    12.000000000000
         C            2.016124082670    -0.693776544264     0.938562185574    12.000000000000
         C           -0.348062117330     0.548650955736    -0.073179214426    12.000000000000
         C            0.928945882670     1.322988955736    -0.204883214426    12.000000000000
         C           -1.674342117330    -1.459534044264    -0.218693214426    12.000000000000
         C           -1.486569117330     1.267210955736     0.309783785574    12.000000000000
         C           -2.804191117330    -0.750750044264     0.192679785574    12.000000000000
         C           -2.711122117330     0.618363955736     0.453860785574    12.000000000000
         H            0.455369882670    -2.558044044264    -1.258794214426     1.007825032230
         H            1.233616882670    -1.037488044264    -1.677435214426     1.007825032230
         H            1.523561882670    -2.606859044264     0.922544785574     1.007825032230
         H            2.771392882670    -2.124220044264    -0.232240214426     1.007825032230
         H            1.246054882670    -0.424699044264     1.787889785574     1.007825032230
         H            2.990008882670    -0.562327044264     1.591676785574     1.007825032230
         H            2.896339882670     1.241008955736     0.174081785574     1.007825032230
         H           -1.758524117330    -2.520644044264    -0.448967214426     1.007825032230
         H           -1.391058117330     2.335723955736     0.485397785574     1.007825032230
         H           -3.757127117330    -1.264226044264     0.298481785574     1.007825032230
         H           -3.591207117330     1.178146955736     0.760909785574     1.007825032230

  Basis Set: AUG-CC-PVTZ
    Blend: AUG-CC-PVTZ
  Basis Set: (AUG-CC-PVTZ AUX)
    Blend: AUG-CC-PVTZ-JKFIT
	 Reference Energy          =    -514.5462326155607116 [Eh]
	 Singles Energy            =      -0.0000000000000000 [Eh]
	 Same-Spin Energy          =      -0.5616803915790274 [Eh]
	 Opposite-Spin Energy      =      -1.7488919687454443 [Eh]
	 Correlation Energy        =      -2.3105723603244717 [Eh]
	 Total Energy              =    -516.8568049758852112 [Eh]

	 ================> DF-SCS-MP2 Energies <==================
	-----------------------------------------------------------
	 SCS Same-Spin Scale       =       0.3333333333333333 [-]
	 SCS Opposite-Spin Scale   =       1.2000000000000000 [-]
	 SCS Same-Spin Energy      =      -0.1872267971930091 [Eh]
	 SCS Opposite-Spin Energy  =      -2.0986703624945329 [Eh]
	 SCS Correlation Energy    =      -2.2858971596875421 [Eh]
	 SCS Total Energy          =    -516.8321297752482906 [Eh]
	-----------------------------------------------------------

  Dipole Moment: [D]
     X:     0.6290      Y:    -4.0218      Z:     1.6947     Total:     4.4094

*** Psi4 exiting successfully. Buy a developer a beer!
