                               Psi4 1.4a3.dev225

  ==> Input File <==

--------------------------------------------------------------------------
#psi4
#
memory 32 gb

molecule  {
0 1
  O        0.9417500     2.5148810    -0.6596880
  N        2.0463840     0.6978680     0.1749460
  C        0.7564320    -1.5550710    -0.8733250
  C        1.8157710    -1.7711630     0.2163790
  C       -0.4497480    -0.7926040    -0.3845090
  C        2.0266990    -0.4897580     1.0228720
  C       -0.3680845     0.5361845    -0.1046683
  C        0.9119250     1.3593610    -0.2260870
  C       -1.6913630    -1.4231620    -0.2398970
  C       -1.5035900     1.3035830     0.2885800
  C       -2.8212120    -0.7143780     0.1714760
  C       -2.7281430     0.6547360     0.4326570
  H        0.4383490    -2.5216720    -1.2799980
  H        1.2165960    -1.0011160    -1.6986390
  H        1.5065410    -2.5704870     0.9013410
  H        2.7543720    -2.0878480    -0.2534440
  H        1.2290340    -0.3883270     1.7666860
  H        2.9729880    -0.5259550     1.5704730
  H        2.8793190     1.2773810     0.1528780
  H       -1.7755450    -2.4842720    -0.4701710
  H       -1.4080790     2.3720960     0.4641940
  H       -3.7741480    -1.2278540     0.2772780
  H       -3.6082280     1.2145190     0.7397060
units angstrom
no_reorient  #important for SAPT in psi4, default
symmetry c1  #important for SAPT in psi4, default
}

set PROPERTIES_ORIGIN ["COM"]
properties('MP2/aug-cc-pvtz', properties = ['dipole'])
--------------------------------------------------------------------------

    Molecular point group: c1
  Charge       = 0
  Multiplicity = 1
  Basis Set: AUG-CC-PVTZ
    Blend: AUG-CC-PVTZ
  Basis Set: (AUG-CC-PVTZ AUX)
    Blend: AUG-CC-PVTZ-JKFIT

    Orbital Energies [Eh]
    ---------------------

    Doubly Occupied:

       1A    -20.516840     2A    -15.582408     3A    -11.353343
       4A    -11.275733     5A    -11.252173     6A    -11.247877
       7A    -11.247661     8A    -11.246059     9A    -11.241809
      10A    -11.239577    11A    -11.238945    12A    -11.237813
      13A     -1.369011    14A     -1.235059    15A     -1.167211
      16A     -1.082504    17A     -1.036101    18A     -1.019091
      19A     -0.938832    20A     -0.878042    21A     -0.842561
      22A     -0.801308    23A     -0.775376    24A     -0.694266
      25A     -0.685854    26A     -0.672124    27A     -0.653255
      28A     -0.623874    29A     -0.615234    30A     -0.597577
      31A     -0.588609    32A     -0.575604    33A     -0.556853
      34A     -0.536350    35A     -0.518017    36A     -0.511040
      37A     -0.493938    38A     -0.490333    39A     -0.477697
      40A     -0.421691    41A     -0.389694    42A     -0.344562
      43A     -0.337391

  @DF-RHF Final Energy:  -514.59368861629207

   => Energetics <=

    Nuclear Repulsion Energy =            685.3889172271869938
    One-Electron Energy =               -2058.7466089534373168
    Two-Electron Energy =                 858.7640031099582529
    Total Energy =                       -514.5936886162920700
  Basis Set: (AUG-CC-PVTZ AUX)
    Blend: AUG-CC-PVTZ-RI
    Molecular point group: c1

    Geometry (in Angstrom), charge = 0, multiplicity = 1:

       Center              X                  Y                   Z               Mass
    ------------   -----------------  -----------------  -----------------  -----------------
         O            0.956938723779     2.469658322316    -0.645578271850    15.994914619570
         N            2.061572723779     0.652645322316     0.189055728150    14.003074004430
         C            0.771620723779    -1.600293677684    -0.859215271850    12.000000000000
         C            1.830959723779    -1.816385677684     0.230488728150    12.000000000000
         C           -0.434559276221    -0.837826677684    -0.370399271850    12.000000000000
         C            2.041887723779    -0.534980677684     1.036981728150    12.000000000000
         C           -0.352895776221     0.490961822316    -0.090558571850    12.000000000000
         C            0.927113723779     1.314138322316    -0.211977271850    12.000000000000
         C           -1.676174276221    -1.468384677684    -0.225787271850    12.000000000000
         C           -1.488401276221     1.258360322316     0.302689728150    12.000000000000
         C           -2.806023276221    -0.759600677684     0.185585728150    12.000000000000
         C           -2.712954276221     0.609513322316     0.446766728150    12.000000000000
         H            0.453537723779    -2.566894677684    -1.265888271850     1.007825032230
         H            1.231784723779    -1.046338677684    -1.684529271850     1.007825032230
         H            1.521729723779    -2.615709677684     0.915450728150     1.007825032230
         H            2.769560723779    -2.133070677684    -0.239334271850     1.007825032230
         H            1.244222723779    -0.433549677684     1.780795728150     1.007825032230
         H            2.988176723779    -0.571177677684     1.584582728150     1.007825032230
         H            2.894507723779     1.232158322316     0.166987728150     1.007825032230
         H           -1.760356276221    -2.529494677684    -0.456061271850     1.007825032230
         H           -1.392890276221     2.326873322316     0.478303728150     1.007825032230
         H           -3.758959276221    -1.273076677684     0.291387728150     1.007825032230
         H           -3.593039276221     1.169296322316     0.753815728150     1.007825032230

  Basis Set: AUG-CC-PVTZ
    Blend: AUG-CC-PVTZ
  Basis Set: (AUG-CC-PVTZ AUX)
    Blend: AUG-CC-PVTZ-JKFIT
	 Reference Energy          =    -514.5936886162920700 [Eh]
	 Singles Energy            =      -0.0000000000000000 [Eh]
	 Same-Spin Energy          =      -0.5585531784327586 [Eh]
	 Opposite-Spin Energy      =      -1.7444100023735196 [Eh]
	 Correlation Energy        =      -2.3029631808062785 [Eh]
	 Total Energy              =    -516.8966517970983432 [Eh]

	 ================> DF-SCS-MP2 Energies <==================
	-----------------------------------------------------------
	 SCS Same-Spin Scale       =       0.3333333333333333 [-]
	 SCS Opposite-Spin Scale   =       1.2000000000000000 [-]
	 SCS Same-Spin Energy      =      -0.1861843928109195 [Eh]
	 SCS Opposite-Spin Energy  =      -2.0932920028482234 [Eh]
	 SCS Correlation Energy    =      -2.2794763956591431 [Eh]
	 SCS Total Energy          =    -516.8731650119511869 [Eh]
	-----------------------------------------------------------

  Dipole Moment: [D]
     X:     0.6576      Y:    -3.5837      Z:     1.7604     Total:     4.0465

*** Psi4 exiting successfully. Buy a developer a beer!
