                               Psi4 1.4a3.dev225

  ==> Input File <==

--------------------------------------------------------------------------
#psi4
#
memory 32 gb

molecule  {
0 1
  O        0.9417500     2.5148810    -0.6596880
  N        2.0463840     0.6978680     0.1749460
  C        0.7564320    -1.5550710    -0.8733250
  C        1.8157710    -1.7711630     0.2163790
  C       -0.4497480    -0.7926040    -0.3845090
  C        2.0266990    -0.4897580     1.0228720
  C       -0.3638824     0.6045584    -0.0902689
  C        0.9119250     1.3593610    -0.2260870
  C       -1.6913630    -1.4231620    -0.2398970
  C       -1.5035900     1.3035830     0.2885800
  C       -2.8212120    -0.7143780     0.1714760
  C       -2.7281430     0.6547360     0.4326570
  H        0.4383490    -2.5216720    -1.2799980
  H        1.2165960    -1.0011160    -1.6986390
  H        1.5065410    -2.5704870     0.9013410
  H        2.7543720    -2.0878480    -0.2534440
  H        1.2290340    -0.3883270     1.7666860
  H        2.9729880    -0.5259550     1.5704730
  H        2.8793190     1.2773810     0.1528780
  H       -1.7755450    -2.4842720    -0.4701710
  H       -1.4080790     2.3720960     0.4641940
  H       -3.7741480    -1.2278540     0.2772780
  H       -3.6082280     1.2145190     0.7397060
units angstrom
no_reorient  #important for SAPT in psi4, default
symmetry c1  #important for SAPT in psi4, default
}

set PROPERTIES_ORIGIN ["COM"]
properties('MP2/aug-cc-pvtz', properties = ['dipole'])
--------------------------------------------------------------------------

    Molecular point group: c1
  Charge       = 0
  Multiplicity = 1
  Basis Set: AUG-CC-PVTZ
    Blend: AUG-CC-PVTZ
  Basis Set: (AUG-CC-PVTZ AUX)
    Blend: AUG-CC-PVTZ-JKFIT

    Orbital Energies [Eh]
    ---------------------

    Doubly Occupied:

       1A    -20.514525     2A    -15.582887     3A    -11.350736
       4A    -11.275825     5A    -11.260505     6A    -11.249184
       7A    -11.247259     8A    -11.244911     9A    -11.241715
      10A    -11.239905    11A    -11.239532    12A    -11.237991
      13A     -1.369156    14A     -1.234784    15A     -1.163208
      16A     -1.082225    17A     -1.037527    18A     -1.020821
      19A     -0.938239    20A     -0.882987    21A     -0.840954
      22A     -0.797307    23A     -0.776377    24A     -0.697951
      25A     -0.685679    26A     -0.672104    27A     -0.652202
      28A     -0.623150    29A     -0.616594    30A     -0.600867
      31A     -0.586420    32A     -0.576597    33A     -0.557132
      34A     -0.535729    35A     -0.518972    36A     -0.509622
      37A     -0.492090    38A     -0.489748    39A     -0.478403
      40A     -0.423777    41A     -0.389381    42A     -0.345216
      43A     -0.334221

  @DF-RHF Final Energy:  -514.59611003871430

   => Energetics <=

    Nuclear Repulsion Energy =            685.0240195950087809
    One-Electron Energy =               -2058.0114275565724711
    Two-Electron Energy =                 858.3912979228495033
    Total Energy =                       -514.5961100387143006
  Basis Set: (AUG-CC-PVTZ AUX)
    Blend: AUG-CC-PVTZ-RI
    Molecular point group: c1

    Geometry (in Angstrom), charge = 0, multiplicity = 1:

       Center              X                  Y                   Z               Mass
    ------------   -----------------  -----------------  -----------------  -----------------
         O            0.956625687227     2.464564790531    -0.646650958966    15.994914619570
         N            2.061259687227     0.647551790531     0.187983041034    14.003074004430
         C            0.771307687227    -1.605387209469    -0.860287958966    12.000000000000
         C            1.830646687227    -1.821479209469     0.229416041034    12.000000000000
         C           -0.434872312773    -0.842920209469    -0.371471958966    12.000000000000
         C            2.041574687227    -0.540074209469     1.035909041034    12.000000000000
         C           -0.349006712773     0.554242190531    -0.077231858966    12.000000000000
         C            0.926800687227     1.309044790531    -0.213049958966    12.000000000000
         C           -1.676487312773    -1.473478209469    -0.226859958966    12.000000000000
         C           -1.488714312773     1.253266790531     0.301617041034    12.000000000000
         C           -2.806336312773    -0.764694209469     0.184513041034    12.000000000000
         C           -2.713267312773     0.604419790531     0.445694041034    12.000000000000
         H            0.453224687227    -2.571988209469    -1.266960958966     1.007825032230
         H            1.231471687227    -1.051432209469    -1.685601958966     1.007825032230
         H            1.521416687227    -2.620803209469     0.914378041034     1.007825032230
         H            2.769247687227    -2.138164209469    -0.240406958966     1.007825032230
         H            1.243909687227    -0.438643209469     1.779723041034     1.007825032230
         H            2.987863687227    -0.576271209469     1.583510041034     1.007825032230
         H            2.894194687227     1.227064790531     0.165915041034     1.007825032230
         H           -1.760669312773    -2.534588209469    -0.457133958966     1.007825032230
         H           -1.393203312773     2.321779790531     0.477231041034     1.007825032230
         H           -3.759272312773    -1.278170209469     0.290315041034     1.007825032230
         H           -3.593352312773     1.164202790531     0.752743041034     1.007825032230

  Basis Set: AUG-CC-PVTZ
    Blend: AUG-CC-PVTZ
  Basis Set: (AUG-CC-PVTZ AUX)
    Blend: AUG-CC-PVTZ-JKFIT
	 Reference Energy          =    -514.5961100387143006 [Eh]
	 Singles Energy            =      -0.0000000000000000 [Eh]
	 Same-Spin Energy          =      -0.5586699826539716 [Eh]
	 Opposite-Spin Energy      =      -1.7444429234658738 [Eh]
	 Correlation Energy        =      -2.3031129061198454 [Eh]
	 Total Energy              =    -516.8992229448341504 [Eh]

	 ================> DF-SCS-MP2 Energies <==================
	-----------------------------------------------------------
	 SCS Same-Spin Scale       =       0.3333333333333333 [-]
	 SCS Opposite-Spin Scale   =       1.2000000000000000 [-]
	 SCS Same-Spin Energy      =      -0.1862233275513239 [Eh]
	 SCS Opposite-Spin Energy  =      -2.0933315081590487 [Eh]
	 SCS Correlation Energy    =      -2.2795548357103725 [Eh]
	 SCS Total Energy          =    -516.8756648744247286 [Eh]
	-----------------------------------------------------------

  Dipole Moment: [D]
     X:     0.6196      Y:    -3.6270      Z:     1.7722     Total:     4.0841

*** Psi4 exiting successfully. Buy a developer a beer!
