                               Psi4 1.3.2 release

  ==> Input File <==

--------------------------------------------------------------------------
#psi4
#
memory 32 gb

molecule  {
0 1
  O        0.9417500     2.5148810    -0.6596880
  N        2.0463840     0.6978680     0.1749460
  C        0.7564320    -1.5550710    -0.8733250
  C        1.8157710    -1.7711630     0.2163790
  C       -0.4497480    -0.7926040    -0.3845090
  C        1.9758488    -0.4869789     1.0240538
  C       -0.3650830     0.5850230    -0.0943830
  C        0.9119250     1.3593610    -0.2260870
  C       -1.6913630    -1.4231620    -0.2398970
  C       -1.5035900     1.3035830     0.2885800
  C       -2.8212120    -0.7143780     0.1714760
  C       -2.7281430     0.6547360     0.4326570
  H        0.4383490    -2.5216720    -1.2799980
  H        1.2165960    -1.0011160    -1.6986390
  H        1.5065410    -2.5704870     0.9013410
  H        2.7543720    -2.0878480    -0.2534440
  H        1.2290340    -0.3883270     1.7666860
  H        2.9729880    -0.5259550     1.5704730
  H        2.8793190     1.2773810     0.1528780
  H       -1.7755450    -2.4842720    -0.4701710
  H       -1.4080790     2.3720960     0.4641940
  H       -3.7741480    -1.2278540     0.2772780
  H       -3.6082280     1.2145190     0.7397060
units angstrom
no_reorient  #important for SAPT in psi4, default
symmetry c1  #important for SAPT in psi4, default
}

set PROPERTIES_ORIGIN ["COM"]
properties('MP2/aug-cc-pvtz', properties = ['dipole'])
--------------------------------------------------------------------------

    Molecular point group: c1
  Charge       = 0
  Multiplicity = 1
  Basis Set: AUG-CC-PVTZ
    Blend: AUG-CC-PVTZ
  Basis Set: (AUG-CC-PVTZ AUX)
    Blend: AUG-CC-PVTZ-JKFIT

    Orbital Energies [Eh]
    ---------------------

    Doubly Occupied:

       1A    -20.514961     2A    -15.582995     3A    -11.350595
       4A    -11.276112     5A    -11.258391     6A    -11.248978
       7A    -11.247378     8A    -11.245730     9A    -11.241972
      10A    -11.240051    11A    -11.238806    12A    -11.238032
      13A     -1.369049    14A     -1.235617    15A     -1.164382
      16A     -1.083034    17A     -1.036585    18A     -1.020770
      19A     -0.937848    20A     -0.880737    21A     -0.842536
      22A     -0.798589    23A     -0.777267    24A     -0.697344
      25A     -0.687842    26A     -0.672408    27A     -0.649665
      28A     -0.624759    29A     -0.614828    30A     -0.600355
      31A     -0.586451    32A     -0.578238    33A     -0.556683
      34A     -0.535663    35A     -0.520887    36A     -0.509283
      37A     -0.490972    38A     -0.488059    39A     -0.478451
      40A     -0.422684    41A     -0.391203    42A     -0.344027
      43A     -0.336391

  @DF-RHF Final Energy:  -514.59327074485600

   => Energetics <=

    Nuclear Repulsion Energy =            685.7182912212649626
    One-Electron Energy =               -2059.3899033584243625
    Two-Electron Energy =                 859.0783413923034004
    Total Energy =                       -514.5932707448559995
  Basis Set: (AUG-CC-PVTZ AUX)
    Blend: AUG-CC-PVTZ-RI
    Molecular point group: c1

    Geometry (in Angstrom), charge = 0, multiplicity = 1:

       Center              X                  Y                   Z               Mass
    ------------   -----------------  -----------------  -----------------  -----------------
         O            0.960503225356     2.465813055536    -0.646432516501    15.994914619570
         N            2.065137225356     0.648800055536     0.188201483499    14.003074004430
         C            0.775185225356    -1.604138944464    -0.860069516501    12.000000000000
         C            1.834524225356    -1.820230944464     0.229634483499    12.000000000000
         C           -0.430994774644    -0.841671944464    -0.371253516501    12.000000000000
         C            1.994602025356    -0.536046844464     1.037309283499    12.000000000000
         C           -0.346329774644     0.535955055536    -0.081127516501    12.000000000000
         C            0.930678225356     1.310293055536    -0.212831516501    12.000000000000
         C           -1.672609774644    -1.472229944464    -0.226641516501    12.000000000000
         C           -1.484836774644     1.254515055536     0.301835483499    12.000000000000
         C           -2.802458774644    -0.763445944464     0.184731483499    12.000000000000
         C           -2.709389774644     0.605668055536     0.445912483499    12.000000000000
         H            0.457102225356    -2.570739944464    -1.266742516501     1.007825032230
         H            1.235349225356    -1.050183944464    -1.685383516501     1.007825032230
         H            1.525294225356    -2.619554944464     0.914596483499     1.007825032230
         H            2.773125225356    -2.136915944464    -0.240188516501     1.007825032230
         H            1.247787225356    -0.437394944464     1.779941483499     1.007825032230
         H            2.991741225356    -0.575022944464     1.583728483499     1.007825032230
         H            2.898072225356     1.228313055536     0.166133483499     1.007825032230
         H           -1.756791774644    -2.533339944464    -0.456915516501     1.007825032230
         H           -1.389325774644     2.323028055536     0.477449483499     1.007825032230
         H           -3.755394774644    -1.276921944464     0.290533483499     1.007825032230
         H           -3.589474774644     1.165451055536     0.752961483499     1.007825032230

  Basis Set: AUG-CC-PVTZ
    Blend: AUG-CC-PVTZ
  Basis Set: (AUG-CC-PVTZ AUX)
    Blend: AUG-CC-PVTZ-JKFIT
	 Reference Energy          =    -514.5932707448559995 [Eh]
	 Singles Energy            =      -0.0000000000000000 [Eh]
	 Same-Spin Energy          =      -0.5588357166763924 [Eh]
	 Opposite-Spin Energy      =      -1.7447359876568633 [Eh]
	 Correlation Energy        =      -2.3035717043332555 [Eh]
	 Total Energy              =    -516.8968424491893074 [Eh]

	 ================> DF-SCS-MP2 Energies <==================
	-----------------------------------------------------------
	 SCS Same-Spin Scale       =       0.3333333333333333 [-]
	 SCS Opposite-Spin Scale   =       1.2000000000000000 [-]
	 SCS Same-Spin Energy      =      -0.1862785722254641 [Eh]
	 SCS Opposite-Spin Energy  =      -2.0936831851882358 [Eh]
	 SCS Correlation Energy    =      -2.2799617574136999 [Eh]
	 SCS Total Energy          =    -516.8732325022697296 [Eh]
	-----------------------------------------------------------

  Dipole Moment: [D]
     X:     0.5906      Y:    -3.6154      Z:     1.7703     Total:     4.0686

*** Psi4 exiting successfully. Buy a developer a beer!
