                               Psi4 1.3.2 release

  ==> Input File <==

--------------------------------------------------------------------------
#psi4
#
memory 32 gb

molecule  {
0 1
  O        0.9417500     2.5148810    -0.6596880
  N        2.0330213     0.6787779     0.1805422
  C        0.7564320    -1.5550710    -0.8733250
  C        1.8157710    -1.7711630     0.2163790
  C       -0.4497480    -0.7926040    -0.3845090
  C        2.0266990    -0.4897580     1.0228720
  C       -0.3650830     0.5850230    -0.0943830
  C        0.9119250     1.3593610    -0.2260870
  C       -1.6913630    -1.4231620    -0.2398970
  C       -1.5035900     1.3035830     0.2885800
  C       -2.8212120    -0.7143780     0.1714760
  C       -2.7281430     0.6547360     0.4326570
  H        0.4383490    -2.5216720    -1.2799980
  H        1.2165960    -1.0011160    -1.6986390
  H        1.5065410    -2.5704870     0.9013410
  H        2.7543720    -2.0878480    -0.2534440
  H        1.2290340    -0.3883270     1.7666860
  H        2.9729880    -0.5259550     1.5704730
  H        2.8793190     1.2773810     0.1528780
  H       -1.7755450    -2.4842720    -0.4701710
  H       -1.4080790     2.3720960     0.4641940
  H       -3.7741480    -1.2278540     0.2772780
  H       -3.6082280     1.2145190     0.7397060
units angstrom
no_reorient  #important for SAPT in psi4, default
symmetry c1  #important for SAPT in psi4, default
}

set PROPERTIES_ORIGIN ["COM"]
properties('MP2/aug-cc-pvtz', properties = ['dipole'])
--------------------------------------------------------------------------

    Molecular point group: c1
  Charge       = 0
  Multiplicity = 1
  Basis Set: AUG-CC-PVTZ
    Blend: AUG-CC-PVTZ
  Basis Set: (AUG-CC-PVTZ AUX)
    Blend: AUG-CC-PVTZ-JKFIT

    Orbital Energies [Eh]
    ---------------------

    Doubly Occupied:

       1A    -20.516619     2A    -15.584589     3A    -11.352264
       4A    -11.274589     5A    -11.258009     6A    -11.248543
       7A    -11.246513     8A    -11.245094     9A    -11.241529
      10A    -11.239570    11A    -11.239076    12A    -11.237217
      13A     -1.369624    14A     -1.238620    15A     -1.163840
      16A     -1.081617    17A     -1.037014    18A     -1.020304
      19A     -0.938595    20A     -0.881636    21A     -0.840936
      22A     -0.798379    23A     -0.773927    24A     -0.695208
      25A     -0.688123    26A     -0.671997    27A     -0.653960
      28A     -0.623959    29A     -0.614108    30A     -0.599967
      31A     -0.588453    32A     -0.575743    33A     -0.557119
      34A     -0.535988    35A     -0.518360    36A     -0.509459
      37A     -0.492559    38A     -0.489473    39A     -0.478252
      40A     -0.424017    41A     -0.389149    42A     -0.343643
      43A     -0.335876

  @DF-RHF Final Energy:  -514.59492210927544

   => Energetics <=

    Nuclear Repulsion Energy =            685.5403557815924387
    One-Electron Energy =               -2059.0435205342614609
    Two-Electron Energy =                 858.9082426433934643
    Total Energy =                       -514.5949221092754442
  Basis Set: (AUG-CC-PVTZ AUX)
    Blend: AUG-CC-PVTZ-RI
    Molecular point group: c1

    Geometry (in Angstrom), charge = 0, multiplicity = 1:

       Center              X                  Y                   Z               Mass
    ------------   -----------------  -----------------  -----------------  -----------------
         O            0.957876748766     2.467679592024    -0.646830956925    15.994914619570
         N            2.049148048766     0.631576492024     0.193399243075    14.003074004430
         C            0.772558748766    -1.602272407976    -0.860467956925    12.000000000000
         C            1.831897748766    -1.818364407976     0.229236043075    12.000000000000
         C           -0.433621251234    -0.839805407976    -0.371651956925    12.000000000000
         C            2.042825748766    -0.536959407976     1.035729043075    12.000000000000
         C           -0.348956251234     0.537821592024    -0.081525956925    12.000000000000
         C            0.928051748766     1.312159592024    -0.213229956925    12.000000000000
         C           -1.675236251234    -1.470363407976    -0.227039956925    12.000000000000
         C           -1.487463251234     1.256381592024     0.301437043075    12.000000000000
         C           -2.805085251234    -0.761579407976     0.184333043075    12.000000000000
         C           -2.712016251234     0.607534592024     0.445514043075    12.000000000000
         H            0.454475748766    -2.568873407976    -1.267140956925     1.007825032230
         H            1.232722748766    -1.048317407976    -1.685781956925     1.007825032230
         H            1.522667748766    -2.617688407976     0.914198043075     1.007825032230
         H            2.770498748766    -2.135049407976    -0.240586956925     1.007825032230
         H            1.245160748766    -0.435528407976     1.779543043075     1.007825032230
         H            2.989114748766    -0.573156407976     1.583330043075     1.007825032230
         H            2.895445748766     1.230179592024     0.165735043075     1.007825032230
         H           -1.759418251234    -2.531473407976    -0.457313956925     1.007825032230
         H           -1.391952251234     2.324894592024     0.477051043075     1.007825032230
         H           -3.758021251234    -1.275055407976     0.290135043075     1.007825032230
         H           -3.592101251234     1.167317592024     0.752563043075     1.007825032230

  Basis Set: AUG-CC-PVTZ
    Blend: AUG-CC-PVTZ
  Basis Set: (AUG-CC-PVTZ AUX)
    Blend: AUG-CC-PVTZ-JKFIT
	 Reference Energy          =    -514.5949221092754442 [Eh]
	 Singles Energy            =      -0.0000000000000000 [Eh]
	 Same-Spin Energy          =      -0.5590561130653668 [Eh]
	 Opposite-Spin Energy      =      -1.7448994913443510 [Eh]
	 Correlation Energy        =      -2.3039556044097180 [Eh]
	 Total Energy              =    -516.8988777136851240 [Eh]

	 ================> DF-SCS-MP2 Energies <==================
	-----------------------------------------------------------
	 SCS Same-Spin Scale       =       0.3333333333333333 [-]
	 SCS Opposite-Spin Scale   =       1.2000000000000000 [-]
	 SCS Same-Spin Energy      =      -0.1863520376884556 [Eh]
	 SCS Opposite-Spin Energy  =      -2.0938793896132211 [Eh]
	 SCS Correlation Energy    =      -2.2802314273016768 [Eh]
	 SCS Total Energy          =    -516.8751535365771588 [Eh]
	-----------------------------------------------------------

  Dipole Moment: [D]
     X:     0.6596      Y:    -3.5754      Z:     1.7597     Total:     4.0392

*** Psi4 exiting successfully. Buy a developer a beer!
