                               Psi4 1.3.2 release

  ==> Input File <==

--------------------------------------------------------------------------
#psi4
#
memory 32 gb

molecule  {
0 1
  O        0.9417500     2.5148810    -0.6596880
  N        2.0463840     0.6978680     0.1749460
  C        0.7265253    -1.5982510    -0.8769328
  C        1.8157710    -1.7711630     0.2163790
  C       -0.4497480    -0.7926040    -0.3845090
  C        2.0266990    -0.4897580     1.0228720
  C       -0.3650830     0.5850230    -0.0943830
  C        0.9119250     1.3593610    -0.2260870
  C       -1.6913630    -1.4231620    -0.2398970
  C       -1.5035900     1.3035830     0.2885800
  C       -2.8212120    -0.7143780     0.1714760
  C       -2.7281430     0.6547360     0.4326570
  H        0.4383490    -2.5216720    -1.2799980
  H        1.2165960    -1.0011160    -1.6986390
  H        1.5065410    -2.5704870     0.9013410
  H        2.7543720    -2.0878480    -0.2534440
  H        1.2290340    -0.3883270     1.7666860
  H        2.9729880    -0.5259550     1.5704730
  H        2.8793190     1.2773810     0.1528780
  H       -1.7755450    -2.4842720    -0.4701710
  H       -1.4080790     2.3720960     0.4641940
  H       -3.7741480    -1.2278540     0.2772780
  H       -3.6082280     1.2145190     0.7397060
units angstrom
no_reorient  #important for SAPT in psi4, default
symmetry c1  #important for SAPT in psi4, default
}

set PROPERTIES_ORIGIN ["COM"]
properties('MP2/aug-cc-pvtz', properties = ['dipole'])
--------------------------------------------------------------------------

    Molecular point group: c1
  Charge       = 0
  Multiplicity = 1
  Basis Set: AUG-CC-PVTZ
    Blend: AUG-CC-PVTZ
  Basis Set: (AUG-CC-PVTZ AUX)
    Blend: AUG-CC-PVTZ-JKFIT

    Orbital Energies [Eh]
    ---------------------

    Doubly Occupied:

       1A    -20.514975     2A    -15.582705     3A    -11.351360
       4A    -11.276545     5A    -11.258694     6A    -11.248525
       7A    -11.247796     8A    -11.245931     9A    -11.240855
      10A    -11.239541    11A    -11.239379    12A    -11.238679
      13A     -1.368893    14A     -1.234380    15A     -1.164220
      16A     -1.080810    17A     -1.036438    18A     -1.020362
      19A     -0.939183    20A     -0.881952    21A     -0.840018
      22A     -0.799999    23A     -0.776195    24A     -0.696193
      25A     -0.687343    26A     -0.671681    27A     -0.651211
      28A     -0.625191    29A     -0.615378    30A     -0.599882
      31A     -0.586378    32A     -0.575262    33A     -0.560966
      34A     -0.534267    35A     -0.516446    36A     -0.510216
      37A     -0.500409    38A     -0.485157    39A     -0.476994
      40A     -0.423091    41A     -0.389346    42A     -0.343915
      43A     -0.334996

  @DF-RHF Final Energy:  -514.59389722998799

   => Energetics <=

    Nuclear Repulsion Energy =            684.6053259582182591
    One-Electron Energy =               -2057.1749317317007808
    Two-Electron Energy =                 857.9757085434946475
    Total Energy =                       -514.5938972299879879
  Basis Set: (AUG-CC-PVTZ AUX)
    Blend: AUG-CC-PVTZ-RI
    Molecular point group: c1

    Geometry (in Angstrom), charge = 0, multiplicity = 1:

       Center              X                  Y                   Z               Mass
    ------------   -----------------  -----------------  -----------------  -----------------
         O            0.958943033778     2.469236790860    -0.646075713981    15.994914619570
         N            2.063577033778     0.652223790860     0.188558286019    14.003074004430
         C            0.743718333778    -1.643895209140    -0.863320513981    12.000000000000
         C            1.832964033778    -1.816807209140     0.229991286019    12.000000000000
         C           -0.432554966222    -0.838248209140    -0.370896713981    12.000000000000
         C            2.043892033778    -0.535402209140     1.036484286019    12.000000000000
         C           -0.347889966222     0.539378790860    -0.080770713981    12.000000000000
         C            0.929118033778     1.313716790860    -0.212474713981    12.000000000000
         C           -1.674169966222    -1.468806209140    -0.226284713981    12.000000000000
         C           -1.486396966222     1.257938790860     0.302192286019    12.000000000000
         C           -2.804018966222    -0.760022209140     0.185088286019    12.000000000000
         C           -2.710949966222     0.609091790860     0.446269286019    12.000000000000
         H            0.455542033778    -2.567316209140    -1.266385713981     1.007825032230
         H            1.233789033778    -1.046760209140    -1.685026713981     1.007825032230
         H            1.523734033778    -2.616131209140     0.914953286019     1.007825032230
         H            2.771565033778    -2.133492209140    -0.239831713981     1.007825032230
         H            1.246227033778    -0.433971209140     1.780298286019     1.007825032230
         H            2.990181033778    -0.571599209140     1.584085286019     1.007825032230
         H            2.896512033778     1.231736790860     0.166490286019     1.007825032230
         H           -1.758351966222    -2.529916209140    -0.456558713981     1.007825032230
         H           -1.390885966222     2.326451790860     0.477806286019     1.007825032230
         H           -3.756954966222    -1.273498209140     0.290890286019     1.007825032230
         H           -3.591034966222     1.168874790860     0.753318286019     1.007825032230

  Basis Set: AUG-CC-PVTZ
    Blend: AUG-CC-PVTZ
  Basis Set: (AUG-CC-PVTZ AUX)
    Blend: AUG-CC-PVTZ-JKFIT
	 Reference Energy          =    -514.5938972299879879 [Eh]
	 Singles Energy            =      -0.0000000000000000 [Eh]
	 Same-Spin Energy          =      -0.5585190329220023 [Eh]
	 Opposite-Spin Energy      =      -1.7443039806026166 [Eh]
	 Correlation Energy        =      -2.3028230135246188 [Eh]
	 Total Energy              =    -516.8967202435126183 [Eh]

	 ================> DF-SCS-MP2 Energies <==================
	-----------------------------------------------------------
	 SCS Same-Spin Scale       =       0.3333333333333333 [-]
	 SCS Opposite-Spin Scale   =       1.2000000000000000 [-]
	 SCS Same-Spin Energy      =      -0.1861730109740008 [Eh]
	 SCS Opposite-Spin Energy  =      -2.0931647767231398 [Eh]
	 SCS Correlation Energy    =      -2.2793377876971408 [Eh]
	 SCS Total Energy          =    -516.8732350176851469 [Eh]
	-----------------------------------------------------------

  Dipole Moment: [D]
     X:     0.6293      Y:    -3.6403      Z:     1.7694     Total:     4.0961

*** Psi4 exiting successfully. Buy a developer a beer!
