                               Psi4 1.3.2 release

  ==> Input File <==

--------------------------------------------------------------------------
#psi4
#
memory 32 gb

molecule  {
0 1
  O        0.9417500     2.5148810    -0.6596880
  N        2.0463840     0.6978680     0.1749460
  C        0.7564320    -1.5550710    -0.8733250
  C        1.8157710    -1.7711630     0.2163790
  C       -0.4497480    -0.7926040    -0.3845090
  C        2.0266990    -0.4897580     1.0228720
  C       -0.3650830     0.5850230    -0.0943830
  C        0.9383508     1.3987388    -0.2330248
  C       -1.6913630    -1.4231620    -0.2398970
  C       -1.5035900     1.3035830     0.2885800
  C       -2.8212120    -0.7143780     0.1714760
  C       -2.7281430     0.6547360     0.4326570
  H        0.4383490    -2.5216720    -1.2799980
  H        1.2165960    -1.0011160    -1.6986390
  H        1.5065410    -2.5704870     0.9013410
  H        2.7543720    -2.0878480    -0.2534440
  H        1.2290340    -0.3883270     1.7666860
  H        2.9729880    -0.5259550     1.5704730
  H        2.8793190     1.2773810     0.1528780
  H       -1.7755450    -2.4842720    -0.4701710
  H       -1.4080790     2.3720960     0.4641940
  H       -3.7741480    -1.2278540     0.2772780
  H       -3.6082280     1.2145190     0.7397060
units angstrom
no_reorient  #important for SAPT in psi4, default
symmetry c1  #important for SAPT in psi4, default
}

set PROPERTIES_ORIGIN ["COM"]
properties('MP2/aug-cc-pvtz', properties = ['dipole'])
--------------------------------------------------------------------------

    Molecular point group: c1
  Charge       = 0
  Multiplicity = 1
  Basis Set: AUG-CC-PVTZ
    Blend: AUG-CC-PVTZ
  Basis Set: (AUG-CC-PVTZ AUX)
    Blend: AUG-CC-PVTZ-JKFIT

    Orbital Energies [Eh]
    ---------------------

    Doubly Occupied:

       1A    -20.522157     2A    -15.580969     3A    -11.350763
       4A    -11.276152     5A    -11.254929     6A    -11.245624
       7A    -11.245543     8A    -11.242232     9A    -11.239719
      10A    -11.237752    11A    -11.237669    12A    -11.236844
      13A     -1.395653    14A     -1.237915    15A     -1.160810
      16A     -1.081016    17A     -1.030587    18A     -1.018865
      19A     -0.937498    20A     -0.874345    21A     -0.839183
      22A     -0.796260    23A     -0.773460    24A     -0.693000
      25A     -0.687329    26A     -0.671344    27A     -0.653429
      28A     -0.626239    29A     -0.615574    30A     -0.598875
      31A     -0.592611    32A     -0.575805    33A     -0.561585
      34A     -0.535037    35A     -0.520831    36A     -0.510877
      37A     -0.491869    38A     -0.488832    39A     -0.478265
      40A     -0.422353    41A     -0.393572    42A     -0.341373
      43A     -0.333727

  @DF-RHF Final Energy:  -514.59695460494299

   => Energetics <=

    Nuclear Repulsion Energy =            684.8253545899823393
    One-Electron Energy =               -2057.6276732565993370
    Two-Electron Energy =                 858.2053640616738903
    Total Energy =                       -514.5969546049429937
  Basis Set: (AUG-CC-PVTZ AUX)
    Blend: AUG-CC-PVTZ-RI
    Molecular point group: c1

    Geometry (in Angstrom), charge = 0, multiplicity = 1:

       Center              X                  Y                   Z               Mass
    ------------   -----------------  -----------------  -----------------  -----------------
         O            0.954746529274     2.463086625689    -0.645827644749    15.994914619570
         N            2.059380529274     0.646073625689     0.188806355251    14.003074004430
         C            0.769428529274    -1.606865374311    -0.859464644749    12.000000000000
         C            1.828767529274    -1.822957374311     0.230239355251    12.000000000000
         C           -0.436751470726    -0.844398374311    -0.370648644749    12.000000000000
         C            2.039695529274    -0.541552374311     1.036732355251    12.000000000000
         C           -0.352086470726     0.533228625689    -0.080522644749    12.000000000000
         C            0.951347329274     1.346944425689    -0.219164444749    12.000000000000
         C           -1.678366470726    -1.474956374311    -0.226036644749    12.000000000000
         C           -1.490593470726     1.251788625689     0.302440355251    12.000000000000
         C           -2.808215470726    -0.766172374311     0.185336355251    12.000000000000
         C           -2.715146470726     0.602941625689     0.446517355251    12.000000000000
         H            0.451345529274    -2.573466374311    -1.266137644749     1.007825032230
         H            1.229592529274    -1.052910374311    -1.684778644749     1.007825032230
         H            1.519537529274    -2.622281374311     0.915201355251     1.007825032230
         H            2.767368529274    -2.139642374311    -0.239583644749     1.007825032230
         H            1.242030529274    -0.440121374311     1.780546355251     1.007825032230
         H            2.985984529274    -0.577749374311     1.584333355251     1.007825032230
         H            2.892315529274     1.225586625689     0.166738355251     1.007825032230
         H           -1.762548470726    -2.536066374311    -0.456310644749     1.007825032230
         H           -1.395082470726     2.320301625689     0.478054355251     1.007825032230
         H           -3.761151470726    -1.279648374311     0.291138355251     1.007825032230
         H           -3.595231470726     1.162724625689     0.753566355251     1.007825032230

  Basis Set: AUG-CC-PVTZ
    Blend: AUG-CC-PVTZ
  Basis Set: (AUG-CC-PVTZ AUX)
    Blend: AUG-CC-PVTZ-JKFIT
	 Reference Energy          =    -514.5969546049429937 [Eh]
	 Singles Energy            =      -0.0000000000000000 [Eh]
	 Same-Spin Energy          =      -0.5576690549300720 [Eh]
	 Opposite-Spin Energy      =      -1.7424485106607723 [Eh]
	 Correlation Energy        =      -2.3001175655908446 [Eh]
	 Total Energy              =    -516.8970721705338747 [Eh]

	 ================> DF-SCS-MP2 Energies <==================
	-----------------------------------------------------------
	 SCS Same-Spin Scale       =       0.3333333333333333 [-]
	 SCS Opposite-Spin Scale   =       1.2000000000000000 [-]
	 SCS Same-Spin Energy      =      -0.1858896849766907 [Eh]
	 SCS Opposite-Spin Energy  =      -2.0909382127929268 [Eh]
	 SCS Correlation Energy    =      -2.2768278977696177 [Eh]
	 SCS Total Energy          =    -516.8737825027126291 [Eh]
	-----------------------------------------------------------

  Dipole Moment: [D]
     X:     0.8040      Y:    -3.3464      Z:     1.6960     Total:     3.8368

*** Psi4 exiting successfully. Buy a developer a beer!
