                               Psi4 1.3.2 release

  ==> Input File <==

--------------------------------------------------------------------------
#psi4
#
memory 32 gb

molecule  {
0 1
  O        0.9417500     2.5148810    -0.6596880
  N        2.0463840     0.6978680     0.1749460
  C        0.7564320    -1.5550710    -0.8733250
  C        1.8157710    -1.7711630     0.2163790
  C       -0.4497480    -0.7926040    -0.3845090
  C        2.0266990    -0.4897580     1.0228720
  C       -0.3650830     0.5850230    -0.0943830
  C        0.9119250     1.3593610    -0.2260870
  C       -1.6913630    -1.4231620    -0.2398970
  C       -1.5035900     1.3035830     0.2885800
  C       -2.8212120    -0.7143780     0.1714760
  C       -2.7281430     0.6547360     0.4326570
  H        0.4383490    -2.5216720    -1.2799980
  H        1.2165960    -1.0011160    -1.6986390
  H        1.5629112    -2.4247764     0.7764777
  H        2.7543720    -2.0878480    -0.2534440
  H        1.2290340    -0.3883270     1.7666860
  H        2.9729880    -0.5259550     1.5704730
  H        2.8793190     1.2773810     0.1528780
  H       -1.7755450    -2.4842720    -0.4701710
  H       -1.4080790     2.3720960     0.4641940
  H       -3.7741480    -1.2278540     0.2772780
  H       -3.6082280     1.2145190     0.7397060
units angstrom
no_reorient  #important for SAPT in psi4, default
symmetry c1  #important for SAPT in psi4, default
}

set PROPERTIES_ORIGIN ["COM"]
properties('MP2/aug-cc-pvtz', properties = ['dipole'])
--------------------------------------------------------------------------

    Molecular point group: c1
  Charge       = 0
  Multiplicity = 1
  Basis Set: AUG-CC-PVTZ
    Blend: AUG-CC-PVTZ
  Basis Set: (AUG-CC-PVTZ AUX)
    Blend: AUG-CC-PVTZ-JKFIT

    Orbital Energies [Eh]
    ---------------------

    Doubly Occupied:

       1A    -20.514411     2A    -15.581634     3A    -11.350756
       4A    -11.274595     5A    -11.257931     6A    -11.248612
       7A    -11.246758     8A    -11.245246     9A    -11.241467
      10A    -11.239519    11A    -11.237808    12A    -11.212856
      13A     -1.368332    14A     -1.234127    15A     -1.163956
      16A     -1.089094    17A     -1.037955    18A     -1.024444
      19A     -0.937537    20A     -0.886694    21A     -0.850768
      22A     -0.805566    23A     -0.775831    24A     -0.698425
      25A     -0.687482    26A     -0.674174    27A     -0.655328
      28A     -0.625100    29A     -0.616887    30A     -0.601857
      31A     -0.588566    32A     -0.577708    33A     -0.558576
      34A     -0.540104    35A     -0.524196    36A     -0.509646
      37A     -0.495501    38A     -0.491821    39A     -0.477996
      40A     -0.422839    41A     -0.388380    42A     -0.343636
      43A     -0.335669

  @DF-RHF Final Energy:  -514.56380591974391

   => Energetics <=

    Nuclear Repulsion Energy =            686.2591088827576868
    One-Electron Energy =               -2060.3662515652495131
    Two-Electron Energy =                 859.5433367627480266
    Total Energy =                       -514.5638059197439134
  Basis Set: (AUG-CC-PVTZ AUX)
    Blend: AUG-CC-PVTZ-RI
    Molecular point group: c1

    Geometry (in Angstrom), charge = 0, multiplicity = 1:

       Center              X                  Y                   Z               Mass
    ------------   -----------------  -----------------  -----------------  -----------------
         O            0.956362445181     2.465108444618    -0.645563268756    15.994914619570
         N            2.060996445181     0.648095444618     0.189070731244    14.003074004430
         C            0.771044445181    -1.604843555382    -0.859200268756    12.000000000000
         C            1.830383445181    -1.820935555382     0.230503731244    12.000000000000
         C           -0.435135554819    -0.842376555382    -0.370384268756    12.000000000000
         C            2.041311445181    -0.539530555382     1.036996731244    12.000000000000
         C           -0.350470554819     0.535250444618    -0.080258268756    12.000000000000
         C            0.926537445181     1.309588444618    -0.211962268756    12.000000000000
         C           -1.676750554819    -1.472934555382    -0.225772268756    12.000000000000
         C           -1.488977554819     1.253810444618     0.302704731244    12.000000000000
         C           -2.806599554819    -0.764150555382     0.185600731244    12.000000000000
         C           -2.713530554819     0.604963444618     0.446781731244    12.000000000000
         H            0.452961445181    -2.571444555382    -1.265873268756     1.007825032230
         H            1.231208445181    -1.050888555382    -1.684514268756     1.007825032230
         H            1.577523645181    -2.474548955382     0.790602431244     1.007825032230
         H            2.768984445181    -2.137620555382    -0.239319268756     1.007825032230
         H            1.243646445181    -0.438099555382     1.780810731244     1.007825032230
         H            2.987600445181    -0.575727555382     1.584597731244     1.007825032230
         H            2.893931445181     1.227608444619     0.167002731244     1.007825032230
         H           -1.760932554819    -2.534044555382    -0.456046268756     1.007825032230
         H           -1.393466554819     2.322323444618     0.478318731244     1.007825032230
         H           -3.759535554819    -1.277626555382     0.291402731244     1.007825032230
         H           -3.593615554819     1.164746444619     0.753830731244     1.007825032230

  Basis Set: AUG-CC-PVTZ
    Blend: AUG-CC-PVTZ
  Basis Set: (AUG-CC-PVTZ AUX)
    Blend: AUG-CC-PVTZ-JKFIT
	 Reference Energy          =    -514.5638059197439134 [Eh]
	 Singles Energy            =      -0.0000000000000000 [Eh]
	 Same-Spin Energy          =      -0.5586657983682813 [Eh]
	 Opposite-Spin Energy      =      -1.7436252723730901 [Eh]
	 Correlation Energy        =      -2.3022910707413713 [Eh]
	 Total Energy              =    -516.8660969904852891 [Eh]

	 ================> DF-SCS-MP2 Energies <==================
	-----------------------------------------------------------
	 SCS Same-Spin Scale       =       0.3333333333333333 [-]
	 SCS Opposite-Spin Scale   =       1.2000000000000000 [-]
	 SCS Same-Spin Energy      =      -0.1862219327894271 [Eh]
	 SCS Opposite-Spin Energy  =      -2.0923503268477082 [Eh]
	 SCS Correlation Energy    =      -2.2785722596371354 [Eh]
	 SCS Total Energy          =    -516.8423781793810576 [Eh]
	-----------------------------------------------------------

  Dipole Moment: [D]
     X:     0.6501      Y:    -3.6994      Z:     1.8290     Total:     4.1778

*** Psi4 exiting successfully. Buy a developer a beer!
