                               Psi4 1.4a3.dev225

  ==> Input File <==

--------------------------------------------------------------------------
#psi4
#
memory 32 gb

molecule  {
0 1
  O        0.9417500     2.5148810    -0.6596880
  N        2.0463840     0.6978680     0.1749460
  C        0.7564320    -1.5550710    -0.8733250
  C        1.8157710    -1.7711630     0.2163790
  C       -0.4497480    -0.7926040    -0.3845090
  C        2.0266990    -0.4897580     1.0228720
  C       -0.3650830     0.5850230    -0.0943830
  C        0.9119250     1.3593610    -0.2260870
  C       -1.6736262    -1.4141543    -0.2419628
  C       -1.5035900     1.3035830     0.2885800
  C       -2.8212120    -0.7143780     0.1714760
  C       -2.7281430     0.6547360     0.4326570
  H        0.4383490    -2.5216720    -1.2799980
  H        1.2165960    -1.0011160    -1.6986390
  H        1.5065410    -2.5704870     0.9013410
  H        2.7543720    -2.0878480    -0.2534440
  H        1.2290340    -0.3883270     1.7666860
  H        2.9729880    -0.5259550     1.5704730
  H        2.8793190     1.2773810     0.1528780
  H       -1.7755450    -2.4842720    -0.4701710
  H       -1.4080790     2.3720960     0.4641940
  H       -3.7741480    -1.2278540     0.2772780
  H       -3.6082280     1.2145190     0.7397060
units angstrom
no_reorient  #important for SAPT in psi4, default
symmetry c1  #important for SAPT in psi4, default
}

set PROPERTIES_ORIGIN ["COM"]
properties('MP2/aug-cc-pvtz', properties = ['dipole'])
--------------------------------------------------------------------------

    Molecular point group: c1
  Charge       = 0
  Multiplicity = 1
  Basis Set: AUG-CC-PVTZ
    Blend: AUG-CC-PVTZ
  Basis Set: (AUG-CC-PVTZ AUX)
    Blend: AUG-CC-PVTZ-JKFIT

    Orbital Energies [Eh]
    ---------------------

    Doubly Occupied:

       1A    -20.515047     2A    -15.582639     3A    -11.351385
       4A    -11.275747     5A    -11.255760     6A    -11.249977
       7A    -11.247271     8A    -11.245636     9A    -11.241432
      10A    -11.240032    11A    -11.239020    12A    -11.237723
      13A     -1.368971    14A     -1.234814    15A     -1.165468
      16A     -1.082404    17A     -1.035606    18A     -1.021749
      19A     -0.938489    20A     -0.882285    21A     -0.840621
      22A     -0.798203    23A     -0.776629    24A     -0.696686
      25A     -0.685364    26A     -0.672210    27A     -0.652598
      28A     -0.623676    29A     -0.616581    30A     -0.597704
      31A     -0.587372    32A     -0.576421    33A     -0.557130
      34A     -0.535638    35A     -0.518956    36A     -0.510334
      37A     -0.492793    38A     -0.490112    39A     -0.477124
      40A     -0.423486    41A     -0.389358    42A     -0.342656
      43A     -0.338255

  @DF-RHF Final Energy:  -514.59624819783915

   => Energetics <=

    Nuclear Repulsion Energy =            685.4478775684650600
    One-Electron Energy =               -2058.8655281338014902
    Two-Electron Energy =                 858.8214023674971713
    Total Energy =                       -514.5962481978391452
  Basis Set: (AUG-CC-PVTZ AUX)
    Blend: AUG-CC-PVTZ-RI
    Molecular point group: c1

    Geometry (in Angstrom), charge = 0, multiplicity = 1:

       Center              X                  Y                   Z               Mass
    ------------   -----------------  -----------------  -----------------  -----------------
         O            0.955393818629     2.465349054330    -0.646190585679    15.994914619570
         N            2.060027818629     0.648336054330     0.188443414321    14.003074004430
         C            0.770075818629    -1.604602945670    -0.859827585679    12.000000000000
         C            1.829414818629    -1.820694945670     0.229876414321    12.000000000000
         C           -0.436104181371    -0.842135945670    -0.371011585679    12.000000000000
         C            2.040342818629    -0.539289945670     1.036369414321    12.000000000000
         C           -0.351439181371     0.535491054330    -0.080885585679    12.000000000000
         C            0.925568818629     1.309829054330    -0.212589585679    12.000000000000
         C           -1.659982381371    -1.463686245670    -0.228465385679    12.000000000000
         C           -1.489946181371     1.254051054330     0.302077414321    12.000000000000
         C           -2.807568181371    -0.763909945670     0.184973414321    12.000000000000
         C           -2.714499181371     0.605204054330     0.446154414321    12.000000000000
         H            0.451992818629    -2.571203945670    -1.266500585679     1.007825032230
         H            1.230239818629    -1.050647945670    -1.685141585679     1.007825032230
         H            1.520184818629    -2.620018945670     0.914838414321     1.007825032230
         H            2.768015818629    -2.137379945670    -0.239946585679     1.007825032230
         H            1.242677818629    -0.437858945670     1.780183414321     1.007825032230
         H            2.986631818629    -0.575486945670     1.583970414321     1.007825032230
         H            2.892962818629     1.227849054330     0.166375414321     1.007825032230
         H           -1.761901181371    -2.533803945670    -0.456673585679     1.007825032230
         H           -1.394435181371     2.322564054330     0.477691414321     1.007825032230
         H           -3.760504181371    -1.277385945670     0.290775414321     1.007825032230
         H           -3.594584181371     1.164987054330     0.753203414321     1.007825032230

  Basis Set: AUG-CC-PVTZ
    Blend: AUG-CC-PVTZ
  Basis Set: (AUG-CC-PVTZ AUX)
    Blend: AUG-CC-PVTZ-JKFIT
	 Reference Energy          =    -514.5962481978391452 [Eh]
	 Singles Energy            =      -0.0000000000000000 [Eh]
	 Same-Spin Energy          =      -0.5586439745985740 [Eh]
	 Opposite-Spin Energy      =      -1.7443903802775205 [Eh]
	 Correlation Energy        =      -2.3030343548760945 [Eh]
	 Total Energy              =    -516.8992825527152490 [Eh]

	 ================> DF-SCS-MP2 Energies <==================
	-----------------------------------------------------------
	 SCS Same-Spin Scale       =       0.3333333333333333 [-]
	 SCS Opposite-Spin Scale   =       1.2000000000000000 [-]
	 SCS Same-Spin Energy      =      -0.1862146581995247 [Eh]
	 SCS Opposite-Spin Energy  =      -2.0932684563330244 [Eh]
	 SCS Correlation Energy    =      -2.2794831145325491 [Eh]
	 SCS Total Energy          =    -516.8757313123717267 [Eh]
	-----------------------------------------------------------

  Dipole Moment: [D]
     X:     0.6209      Y:    -3.6076      Z:     1.7729     Total:     4.0674

*** Psi4 exiting successfully. Buy a developer a beer!
