                               Psi4 1.3.2 release

  ==> Input File <==

--------------------------------------------------------------------------
#psi4
#
memory 32 gb

molecule  {
0 1
  O        0.9417500     2.5148810    -0.6596880
  N        2.0463840     0.6978680     0.1749460
  C        0.7510824    -1.5043977    -0.8567585
  C        1.8157710    -1.7711630     0.2163790
  C       -0.4497480    -0.7926040    -0.3845090
  C        2.0266990    -0.4897580     1.0228720
  C       -0.3650830     0.5850230    -0.0943830
  C        0.9119250     1.3593610    -0.2260870
  C       -1.6913630    -1.4231620    -0.2398970
  C       -1.5035900     1.3035830     0.2885800
  C       -2.8212120    -0.7143780     0.1714760
  C       -2.7281430     0.6547360     0.4326570
  H        0.4383490    -2.5216720    -1.2799980
  H        1.2165960    -1.0011160    -1.6986390
  H        1.5065410    -2.5704870     0.9013410
  H        2.7543720    -2.0878480    -0.2534440
  H        1.2290340    -0.3883270     1.7666860
  H        2.9729880    -0.5259550     1.5704730
  H        2.8793190     1.2773810     0.1528780
  H       -1.7755450    -2.4842720    -0.4701710
  H       -1.4080790     2.3720960     0.4641940
  H       -3.7741480    -1.2278540     0.2772780
  H       -3.6082280     1.2145190     0.7397060
units angstrom
no_reorient  #important for SAPT in psi4, default
symmetry c1  #important for SAPT in psi4, default
}

set PROPERTIES_ORIGIN ["COM"]
properties('MP2/aug-cc-pvtz', properties = ['dipole'])
--------------------------------------------------------------------------

    Molecular point group: c1
  Charge       = 0
  Multiplicity = 1
  Basis Set: AUG-CC-PVTZ
    Blend: AUG-CC-PVTZ
  Basis Set: (AUG-CC-PVTZ AUX)
    Blend: AUG-CC-PVTZ-JKFIT

    Orbital Energies [Eh]
    ---------------------

    Doubly Occupied:

       1A    -20.515408     2A    -15.582784     3A    -11.351721
       4A    -11.275007     5A    -11.256948     6A    -11.249218
       7A    -11.246989     8A    -11.245474     9A    -11.242672
      10A    -11.240322    11A    -11.240258    12A    -11.238518
      13A     -1.369328    14A     -1.235469    15A     -1.165829
      16A     -1.084577    17A     -1.037510    18A     -1.021573
      19A     -0.937088    20A     -0.882359    21A     -0.843698
      22A     -0.796545    23A     -0.776663    24A     -0.697863
      25A     -0.684493    26A     -0.674024    27A     -0.653061
      28A     -0.623049    29A     -0.617411    30A     -0.600032
      31A     -0.588661    32A     -0.576729    33A     -0.555904
      34A     -0.536314    35A     -0.519689    36A     -0.509805
      37A     -0.491889    38A     -0.483910    39A     -0.480145
      40A     -0.423746    41A     -0.389557    42A     -0.344112
      43A     -0.336234

  @DF-RHF Final Energy:  -514.59258297055874

   => Energetics <=

    Nuclear Repulsion Energy =            686.0625082231948682
    One-Electron Energy =               -2060.0650031272621163
    Two-Electron Energy =                 859.4099119335083969
    Total Energy =                       -514.5925829705587375
  Basis Set: (AUG-CC-PVTZ AUX)
    Blend: AUG-CC-PVTZ-RI
    Molecular point group: c1

    Geometry (in Angstrom), charge = 0, multiplicity = 1:

       Center              X                  Y                   Z               Mass
    ------------   -----------------  -----------------  -----------------  -----------------
         O            0.957113646110     2.462245164425    -0.647578603801    15.994914619570
         N            2.061747646110     0.645232164425     0.187055396199    14.003074004430
         C            0.766446046110    -1.557033535575    -0.844649103801    12.000000000000
         C            1.831134646110    -1.823798835575     0.228488396199    12.000000000000
         C           -0.434384353890    -0.845239835575    -0.372399603801    12.000000000000
         C            2.042062646110    -0.542393835575     1.034981396199    12.000000000000
         C           -0.349719353890     0.532387164425    -0.082273603801    12.000000000000
         C            0.927288646110     1.306725164425    -0.213977603801    12.000000000000
         C           -1.675999353890    -1.475797835575    -0.227787603801    12.000000000000
         C           -1.488226353890     1.250947164425     0.300689396199    12.000000000000
         C           -2.805848353890    -0.767013835575     0.183585396199    12.000000000000
         C           -2.712779353890     0.602100164425     0.444766396199    12.000000000000
         H            0.453712646110    -2.574307835575    -1.267888603801     1.007825032230
         H            1.231959646110    -1.053751835575    -1.686529603801     1.007825032230
         H            1.521904646110    -2.623122835575     0.913450396199     1.007825032230
         H            2.769735646110    -2.140483835575    -0.241334603801     1.007825032230
         H            1.244397646110    -0.440962835575     1.778795396199     1.007825032230
         H            2.988351646110    -0.578590835575     1.582582396199     1.007825032230
         H            2.894682646110     1.224745164425     0.164987396199     1.007825032230
         H           -1.760181353890    -2.536907835575    -0.458061603801     1.007825032230
         H           -1.392715353890     2.319460164425     0.476303396199     1.007825032230
         H           -3.758784353890    -1.280489835575     0.289387396199     1.007825032230
         H           -3.592864353890     1.161883164425     0.751815396199     1.007825032230

  Basis Set: AUG-CC-PVTZ
    Blend: AUG-CC-PVTZ
  Basis Set: (AUG-CC-PVTZ AUX)
    Blend: AUG-CC-PVTZ-JKFIT
	 Reference Energy          =    -514.5925829705587375 [Eh]
	 Singles Energy            =      -0.0000000000000000 [Eh]
	 Same-Spin Energy          =      -0.5592156914956450 [Eh]
	 Opposite-Spin Energy      =      -1.7451454289766557 [Eh]
	 Correlation Energy        =      -2.3043611204723007 [Eh]
	 Total Energy              =    -516.8969440910310595 [Eh]

	 ================> DF-SCS-MP2 Energies <==================
	-----------------------------------------------------------
	 SCS Same-Spin Scale       =       0.3333333333333333 [-]
	 SCS Opposite-Spin Scale   =       1.2000000000000000 [-]
	 SCS Same-Spin Energy      =      -0.1864052304985483 [Eh]
	 SCS Opposite-Spin Energy  =      -2.0941745147719866 [Eh]
	 SCS Correlation Energy    =      -2.2805797452705350 [Eh]
	 SCS Total Energy          =    -516.8731627158292667 [Eh]
	-----------------------------------------------------------

  Dipole Moment: [D]
     X:     0.6286      Y:    -3.5855      Z:     1.7805     Total:     4.0523

*** Psi4 exiting successfully. Buy a developer a beer!
