                               Psi4 1.3.2 release

  ==> Input File <==

--------------------------------------------------------------------------
#psi4
#
memory 32 gb

molecule  {
0 1
  O        0.9417500     2.5148810    -0.6596880
  N        2.0463840     0.6978680     0.1749460
  C        0.7564320    -1.5550710    -0.8733250
  C        1.8157710    -1.7711630     0.2163790
  C       -0.4497480    -0.7926040    -0.3845090
  C        2.0266990    -0.4897580     1.0228720
  C       -0.2694871     0.5804882    -0.1174488
  C        0.9119250     1.3593610    -0.2260870
  C       -1.6913630    -1.4231620    -0.2398970
  C       -1.5035900     1.3035830     0.2885800
  C       -2.8212120    -0.7143780     0.1714760
  C       -2.7281430     0.6547360     0.4326570
  H        0.4383490    -2.5216720    -1.2799980
  H        1.2165960    -1.0011160    -1.6986390
  H        1.5065410    -2.5704870     0.9013410
  H        2.7543720    -2.0878480    -0.2534440
  H        1.2290340    -0.3883270     1.7666860
  H        2.9729880    -0.5259550     1.5704730
  H        2.8793190     1.2773810     0.1528780
  H       -1.7755450    -2.4842720    -0.4701710
  H       -1.4080790     2.3720960     0.4641940
  H       -3.7741480    -1.2278540     0.2772780
  H       -3.6082280     1.2145190     0.7397060
units angstrom
no_reorient  #important for SAPT in psi4, default
symmetry c1  #important for SAPT in psi4, default
}

set PROPERTIES_ORIGIN ["COM"]
properties('MP2/aug-cc-pvtz', properties = ['dipole'])
--------------------------------------------------------------------------

    Molecular point group: c1
  Charge       = 0
  Multiplicity = 1
  Basis Set: AUG-CC-PVTZ
    Blend: AUG-CC-PVTZ
  Basis Set: (AUG-CC-PVTZ AUX)
    Blend: AUG-CC-PVTZ-JKFIT

    Orbital Energies [Eh]
    ---------------------

    Doubly Occupied:

       1A    -20.513438     2A    -15.580446     3A    -11.346574
       4A    -11.274859     5A    -11.262888     6A    -11.257161
       7A    -11.253906     8A    -11.248423     9A    -11.243298
      10A    -11.240904    11A    -11.237711    12A    -11.237034
      13A     -1.369983    14A     -1.235683    15A     -1.159617
      16A     -1.081853    17A     -1.042286    18A     -1.017006
      19A     -0.937106    20A     -0.894723    21A     -0.840103
      22A     -0.796917    23A     -0.774652    24A     -0.700404
      25A     -0.684560    26A     -0.677745    27A     -0.652627
      28A     -0.624274    29A     -0.616352    30A     -0.592966
      31A     -0.588167    32A     -0.575939    33A     -0.557695
      34A     -0.534898    35A     -0.520633    36A     -0.514460
      37A     -0.488898    38A     -0.487052    39A     -0.469134
      40A     -0.428007    41A     -0.388460    42A     -0.340993
      43A     -0.336330

  @DF-RHF Final Energy:  -514.58225910865963

   => Energetics <=

    Nuclear Repulsion Energy =            685.4559425265898653
    One-Electron Energy =               -2058.8240660401766036
    Two-Electron Energy =                 858.7858644049272243
    Total Energy =                       -514.5822591086596276
  Basis Set: (AUG-CC-PVTZ AUX)
    Blend: AUG-CC-PVTZ-RI
    Molecular point group: c1

    Geometry (in Angstrom), charge = 0, multiplicity = 1:

       Center              X                  Y                   Z               Mass
    ------------   -----------------  -----------------  -----------------  -----------------
         O            0.949593684358     2.466357906453    -0.644626185118    15.994914619570
         N            2.054227684358     0.649344906453     0.190007814882    14.003074004430
         C            0.764275684358    -1.603594093547    -0.858263185118    12.000000000000
         C            1.823614684358    -1.819686093547     0.231440814882    12.000000000000
         C           -0.441904315642    -0.841127093547    -0.369447185118    12.000000000000
         C            2.034542684358    -0.538281093547     1.037933814882    12.000000000000
         C           -0.261643415642     0.531965106453    -0.102386985118    12.000000000000
         C            0.919768684358     1.310837906453    -0.211025185118    12.000000000000
         C           -1.683519315642    -1.471685093547    -0.224835185118    12.000000000000
         C           -1.495746315642     1.255059906453     0.303641814882    12.000000000000
         C           -2.813368315642    -0.762901093547     0.186537814882    12.000000000000
         C           -2.720299315642     0.606212906453     0.447718814882    12.000000000000
         H            0.446192684358    -2.570195093547    -1.264936185118     1.007825032230
         H            1.224439684358    -1.049639093547    -1.683577185118     1.007825032230
         H            1.514384684358    -2.619010093547     0.916402814882     1.007825032230
         H            2.762215684358    -2.136371093547    -0.238382185118     1.007825032230
         H            1.236877684358    -0.436850093547     1.781747814882     1.007825032230
         H            2.980831684358    -0.574478093547     1.585534814882     1.007825032230
         H            2.887162684358     1.228857906453     0.167939814882     1.007825032230
         H           -1.767701315642    -2.532795093547    -0.455109185118     1.007825032230
         H           -1.400235315642     2.323572906453     0.479255814882     1.007825032230
         H           -3.766304315642    -1.276377093547     0.292339814882     1.007825032230
         H           -3.600384315642     1.165995906453     0.754767814882     1.007825032230

  Basis Set: AUG-CC-PVTZ
    Blend: AUG-CC-PVTZ
  Basis Set: (AUG-CC-PVTZ AUX)
    Blend: AUG-CC-PVTZ-JKFIT
	 Reference Energy          =    -514.5822591086596276 [Eh]
	 Singles Energy            =      -0.0000000000000000 [Eh]
	 Same-Spin Energy          =      -0.5598556376388195 [Eh]
	 Opposite-Spin Energy      =      -1.7466458218519660 [Eh]
	 Correlation Energy        =      -2.3065014594907858 [Eh]
	 Total Energy              =    -516.8887605681503601 [Eh]

	 ================> DF-SCS-MP2 Energies <==================
	-----------------------------------------------------------
	 SCS Same-Spin Scale       =       0.3333333333333333 [-]
	 SCS Opposite-Spin Scale   =       1.2000000000000000 [-]
	 SCS Same-Spin Energy      =      -0.1866185458796065 [Eh]
	 SCS Opposite-Spin Energy  =      -2.0959749862223593 [Eh]
	 SCS Correlation Energy    =      -2.2825935321019659 [Eh]
	 SCS Total Energy          =    -516.8648526407615691 [Eh]
	-----------------------------------------------------------

  Dipole Moment: [D]
     X:     0.4752      Y:    -3.6881      Z:     1.7796     Total:     4.1225

*** Psi4 exiting successfully. Buy a developer a beer!
