                               Psi4 1.3.2 release

  ==> Input File <==

--------------------------------------------------------------------------
#psi4
#
memory 32 gb

molecule  {
0 1
  O        0.9417500     2.5148810    -0.6596880
  N        2.0463840     0.6978680     0.1749460
  C        0.7564320    -1.5550710    -0.8733250
  C        1.8157710    -1.7711630     0.2163790
  C       -0.4497480    -0.7926040    -0.3845090
  C        2.0266990    -0.4897580     1.0228720
  C       -0.3650830     0.5850230    -0.0943830
  C        0.9119250     1.3593610    -0.2260870
  C       -1.6913630    -1.4231620    -0.2398970
  C       -1.4222512     1.2522466     0.2612198
  C       -2.8212120    -0.7143780     0.1714760
  C       -2.7281430     0.6547360     0.4326570
  H        0.4383490    -2.5216720    -1.2799980
  H        1.2165960    -1.0011160    -1.6986390
  H        1.5065410    -2.5704870     0.9013410
  H        2.7543720    -2.0878480    -0.2534440
  H        1.2290340    -0.3883270     1.7666860
  H        2.9729880    -0.5259550     1.5704730
  H        2.8793190     1.2773810     0.1528780
  H       -1.7755450    -2.4842720    -0.4701710
  H       -1.4080790     2.3720960     0.4641940
  H       -3.7741480    -1.2278540     0.2772780
  H       -3.6082280     1.2145190     0.7397060
units angstrom
no_reorient  #important for SAPT in psi4, default
symmetry c1  #important for SAPT in psi4, default
}

set PROPERTIES_ORIGIN ["COM"]
properties('MP2/aug-cc-pvtz', properties = ['dipole'])
--------------------------------------------------------------------------

    Molecular point group: c1
  Charge       = 0
  Multiplicity = 1
  Basis Set: AUG-CC-PVTZ
    Blend: AUG-CC-PVTZ
  Basis Set: (AUG-CC-PVTZ AUX)
    Blend: AUG-CC-PVTZ-JKFIT

    Orbital Energies [Eh]
    ---------------------

    Doubly Occupied:

       1A    -20.515658     2A    -15.583176     3A    -11.351770
       4A    -11.276453     5A    -11.257661     6A    -11.247117
       7A    -11.244469     8A    -11.243188     9A    -11.240254
      10A    -11.239164    11A    -11.237946    12A    -11.236413
      13A     -1.369785    14A     -1.235557    15A     -1.170539
      16A     -1.081227    17A     -1.047433    18A     -1.016630
      19A     -0.938031    20A     -0.877599    21A     -0.843264
      22A     -0.800116    23A     -0.777618    24A     -0.698461
      25A     -0.686726    26A     -0.666977    27A     -0.653486
      28A     -0.622208    29A     -0.616529    30A     -0.603286
      31A     -0.587289    32A     -0.573181    33A     -0.557547
      34A     -0.537755    35A     -0.521379    36A     -0.500308
      37A     -0.491717    38A     -0.487625    39A     -0.481137
      40A     -0.423575    41A     -0.389650    42A     -0.357231
      43A     -0.327951

  @DF-RHF Final Energy:  -514.58364152805439

   => Energetics <=

    Nuclear Repulsion Energy =            686.9066354958752072
    One-Electron Energy =               -2061.7503801545494753
    Two-Electron Energy =                 860.2601031306198820
    Total Energy =                       -514.5836415280543861
  Basis Set: (AUG-CC-PVTZ AUX)
    Blend: AUG-CC-PVTZ-RI
    Molecular point group: c1

    Geometry (in Angstrom), charge = 0, multiplicity = 1:

       Center              X                  Y                   Z               Mass
    ------------   -----------------  -----------------  -----------------  -----------------
         O            0.950655770798     2.469844404038    -0.644306272653    15.994914619570
         N            2.055289770798     0.652831404038     0.190327727347    14.003074004430
         C            0.765337770798    -1.600107595962    -0.857943272653    12.000000000000
         C            1.824676770798    -1.816199595962     0.231760727347    12.000000000000
         C           -0.440842229202    -0.837640595962    -0.369127272653    12.000000000000
         C            2.035604770798    -0.534794595962     1.038253727347    12.000000000000
         C           -0.356177229202     0.539986404038    -0.079001272653    12.000000000000
         C            0.920830770798     1.314324404038    -0.210705272653    12.000000000000
         C           -1.682457229202    -1.468198595962    -0.224515272653    12.000000000000
         C           -1.413345429202     1.207210004038     0.276601527347    12.000000000000
         C           -2.812306229202    -0.759414595962     0.186857727347    12.000000000000
         C           -2.719237229202     0.609699404038     0.448038727347    12.000000000000
         H            0.447254770798    -2.566708595962    -1.264616272653     1.007825032230
         H            1.225501770798    -1.046152595962    -1.683257272653     1.007825032230
         H            1.515446770798    -2.615523595962     0.916722727347     1.007825032230
         H            2.763277770798    -2.132884595962    -0.238062272653     1.007825032230
         H            1.237939770798    -0.433363595962     1.782067727347     1.007825032230
         H            2.981893770798    -0.570991595962     1.585854727347     1.007825032230
         H            2.888224770798     1.232344404038     0.168259727347     1.007825032230
         H           -1.766639229202    -2.529308595962    -0.454789272653     1.007825032230
         H           -1.399173229202     2.327059404038     0.479575727347     1.007825032230
         H           -3.765242229202    -1.272890595962     0.292659727347     1.007825032230
         H           -3.599322229202     1.169482404038     0.755087727347     1.007825032230

  Basis Set: AUG-CC-PVTZ
    Blend: AUG-CC-PVTZ
  Basis Set: (AUG-CC-PVTZ AUX)
    Blend: AUG-CC-PVTZ-JKFIT
	 Reference Energy          =    -514.5836415280543861 [Eh]
	 Singles Energy            =      -0.0000000000000000 [Eh]
	 Same-Spin Energy          =      -0.5584103366916646 [Eh]
	 Opposite-Spin Energy      =      -1.7447255924963980 [Eh]
	 Correlation Energy        =      -2.3031359291880626 [Eh]
	 Total Energy              =    -516.8867774572424878 [Eh]

	 ================> DF-SCS-MP2 Energies <==================
	-----------------------------------------------------------
	 SCS Same-Spin Scale       =       0.3333333333333333 [-]
	 SCS Opposite-Spin Scale   =       1.2000000000000000 [-]
	 SCS Same-Spin Energy      =      -0.1861367788972215 [Eh]
	 SCS Opposite-Spin Energy  =      -2.0936707109956774 [Eh]
	 SCS Correlation Energy    =      -2.2798074898928991 [Eh]
	 SCS Total Energy          =    -516.8634490179472323 [Eh]
	-----------------------------------------------------------

  Dipole Moment: [D]
     X:     0.6302      Y:    -3.5999      Z:     1.7716     Total:     4.0614

*** Psi4 exiting successfully. Buy a developer a beer!
