                               Psi4 1.3.2 release

  ==> Input File <==

--------------------------------------------------------------------------
#psi4
#
memory 32 gb

molecule  {
0 1
  O        0.9417500     2.5148810    -0.6596880
  N        2.0463840     0.6978680     0.1749460
  C        0.7564320    -1.5550710    -0.8733250
  C        1.8157710    -1.7711630     0.2163790
  C       -0.4497480    -0.7926040    -0.3845090
  C        2.0266990    -0.4897580     1.0228720
  C       -0.3890647     0.5851081    -0.0888332
  C        0.9119250     1.3593610    -0.2260870
  C       -1.6913630    -1.4231620    -0.2398970
  C       -1.5035900     1.3035830     0.2885800
  C       -2.8212120    -0.7143780     0.1714760
  C       -2.7281430     0.6547360     0.4326570
  H        0.4383490    -2.5216720    -1.2799980
  H        1.2165960    -1.0011160    -1.6986390
  H        1.5065410    -2.5704870     0.9013410
  H        2.7543720    -2.0878480    -0.2534440
  H        1.2290340    -0.3883270     1.7666860
  H        2.9729880    -0.5259550     1.5704730
  H        2.8793190     1.2773810     0.1528780
  H       -1.7755450    -2.4842720    -0.4701710
  H       -1.4080790     2.3720960     0.4641940
  H       -3.7741480    -1.2278540     0.2772780
  H       -3.6082280     1.2145190     0.7397060
units angstrom
no_reorient  #important for SAPT in psi4, default
symmetry c1  #important for SAPT in psi4, default
}

set PROPERTIES_ORIGIN ["COM"]
properties('MP2/aug-cc-pvtz', properties = ['dipole'])
--------------------------------------------------------------------------

    Molecular point group: c1
  Charge       = 0
  Multiplicity = 1
  Basis Set: AUG-CC-PVTZ
    Blend: AUG-CC-PVTZ
  Basis Set: (AUG-CC-PVTZ AUX)
    Blend: AUG-CC-PVTZ-JKFIT

    Orbital Energies [Eh]
    ---------------------

    Doubly Occupied:

       1A    -20.515414     2A    -15.583155     3A    -11.352303
       4A    -11.275979     5A    -11.257384     6A    -11.247662
       7A    -11.246593     8A    -11.242751     9A    -11.241448
      10A    -11.239920    11A    -11.239590    12A    -11.238070
      13A     -1.368703    14A     -1.234624    15A     -1.165735
      16A     -1.082562    17A     -1.035917    18A     -1.021505
      19A     -0.938651    20A     -0.878380    21A     -0.841664
      22A     -0.798878    23A     -0.776575    24A     -0.696178
      25A     -0.685950    26A     -0.670641    27A     -0.652532
      28A     -0.623147    29A     -0.615914    30A     -0.602288
      31A     -0.586194    32A     -0.576327    33A     -0.556790
      34A     -0.536120    35A     -0.518725    36A     -0.508229
      37A     -0.493980    38A     -0.490953    39A     -0.479778
      40A     -0.421525    41A     -0.389589    42A     -0.345780
      43A     -0.335155

  @DF-RHF Final Energy:  -514.59652642520825

   => Energetics <=

    Nuclear Repulsion Energy =            685.0654184269734515
    One-Electron Energy =               -2058.1053745409949443
    Two-Electron Energy =                 858.4434296888133531
    Total Energy =                       -514.5965264252082534
  Basis Set: (AUG-CC-PVTZ AUX)
    Blend: AUG-CC-PVTZ-RI
    Molecular point group: c1

    Geometry (in Angstrom), charge = 0, multiplicity = 1:

       Center              X                  Y                   Z               Mass
    ------------   -----------------  -----------------  -----------------  -----------------
         O            0.958501649334     2.466013745780    -0.646757911818    15.994914619570
         N            2.063135649334     0.649000745780     0.187876088182    14.003074004430
         C            0.773183649334    -1.603938254220    -0.860394911818    12.000000000000
         C            1.832522649334    -1.820030254220     0.229309088182    12.000000000000
         C           -0.432996350666    -0.841471254220    -0.371578911818    12.000000000000
         C            2.043450649334    -0.538625254220     1.035802088182    12.000000000000
         C           -0.372313050666     0.536240845780    -0.075903111818    12.000000000000
         C            0.928676649334     1.310493745780    -0.213156911818    12.000000000000
         C           -1.674611350666    -1.472029254220    -0.226966911818    12.000000000000
         C           -1.486838350666     1.254715745780     0.301510088182    12.000000000000
         C           -2.804460350666    -0.763245254220     0.184406088182    12.000000000000
         C           -2.711391350666     0.605868745780     0.445587088182    12.000000000000
         H            0.455100649334    -2.570539254220    -1.267067911818     1.007825032230
         H            1.233347649334    -1.049983254220    -1.685708911818     1.007825032230
         H            1.523292649334    -2.619354254220     0.914271088182     1.007825032230
         H            2.771123649334    -2.136715254220    -0.240513911818     1.007825032230
         H            1.245785649334    -0.437194254220     1.779616088182     1.007825032230
         H            2.989739649334    -0.574822254220     1.583403088182     1.007825032230
         H            2.896070649334     1.228513745780     0.165808088182     1.007825032230
         H           -1.758793350666    -2.533139254220    -0.457240911818     1.007825032230
         H           -1.391327350666     2.323228745780     0.477124088182     1.007825032230
         H           -3.757396350666    -1.276721254220     0.290208088182     1.007825032230
         H           -3.591476350666     1.165651745780     0.752636088182     1.007825032230

  Basis Set: AUG-CC-PVTZ
    Blend: AUG-CC-PVTZ
  Basis Set: (AUG-CC-PVTZ AUX)
    Blend: AUG-CC-PVTZ-JKFIT
	 Reference Energy          =    -514.5965264252082534 [Eh]
	 Singles Energy            =      -0.0000000000000000 [Eh]
	 Same-Spin Energy          =      -0.5584507608179741 [Eh]
	 Opposite-Spin Energy      =      -1.7440631663115473 [Eh]
	 Correlation Energy        =      -2.3025139271295214 [Eh]
	 Total Energy              =    -516.8990403523378063 [Eh]

	 ================> DF-SCS-MP2 Energies <==================
	-----------------------------------------------------------
	 SCS Same-Spin Scale       =       0.3333333333333333 [-]
	 SCS Opposite-Spin Scale   =       1.2000000000000000 [-]
	 SCS Same-Spin Energy      =      -0.1861502536059914 [Eh]
	 SCS Opposite-Spin Energy  =      -2.0928757995738567 [Eh]
	 SCS Correlation Energy    =      -2.2790260531798481 [Eh]
	 SCS Total Energy          =    -516.8755524783880446 [Eh]
	-----------------------------------------------------------

  Dipole Moment: [D]
     X:     0.6644      Y:    -3.5999      Z:     1.7665     Total:     4.0646

*** Psi4 exiting successfully. Buy a developer a beer!
