                               Psi4 1.3.2 release

  ==> Input File <==

--------------------------------------------------------------------------
#psi4
#
memory 32 gb

molecule  {
0 1
  O        0.9417500     2.5148810    -0.6596880
  N        2.0463840     0.6978680     0.1749460
  C        0.7564320    -1.5550710    -0.8733250
  C        1.8157710    -1.7711630     0.2163790
  C       -0.4497480    -0.7926040    -0.3845090
  C        2.0266990    -0.4897580     1.0228720
  C       -0.3650830     0.5850230    -0.0943830
  C        0.9119250     1.3593610    -0.2260870
  C       -1.6913630    -1.4231620    -0.2398970
  C       -1.5035900     1.3035830     0.2885800
  C       -2.8212120    -0.7143780     0.1714760
  C       -2.7281430     0.6547360     0.4326570
  H        0.4383490    -2.5216720    -1.2799980
  H        1.2165960    -1.0011160    -1.6986390
  H        1.5065410    -2.5704870     0.9013410
  H        2.7543720    -2.0878480    -0.2534440
  H        1.3018561    -0.3975870     1.6987802
  H        2.9729880    -0.5259550     1.5704730
  H        2.8793190     1.2773810     0.1528780
  H       -1.7755450    -2.4842720    -0.4701710
  H       -1.4080790     2.3720960     0.4641940
  H       -3.7741480    -1.2278540     0.2772780
  H       -3.6082280     1.2145190     0.7397060
units angstrom
no_reorient  #important for SAPT in psi4, default
symmetry c1  #important for SAPT in psi4, default
}

set PROPERTIES_ORIGIN ["COM"]
properties('MP2/aug-cc-pvtz', properties = ['dipole'])
--------------------------------------------------------------------------

    Molecular point group: c1
  Charge       = 0
  Multiplicity = 1
  Basis Set: AUG-CC-PVTZ
    Blend: AUG-CC-PVTZ
  Basis Set: (AUG-CC-PVTZ AUX)
    Blend: AUG-CC-PVTZ-JKFIT

    Orbital Energies [Eh]
    ---------------------

    Doubly Occupied:

       1A    -20.514662     2A    -15.581735     3A    -11.351171
       4A    -11.263809     5A    -11.258378     6A    -11.248923
       7A    -11.247288     8A    -11.245640     9A    -11.241877
      10A    -11.239938    11A    -11.239176    12A    -11.237118
      13A     -1.368684    14A     -1.235460    15A     -1.164286
      16A     -1.082635    17A     -1.037396    18A     -1.022098
      19A     -0.943549    20A     -0.881495    21A     -0.844117
      22A     -0.799461    23A     -0.778404    24A     -0.699157
      25A     -0.689974    26A     -0.672830    27A     -0.652239
      28A     -0.624636    29A     -0.616141    30A     -0.599804
      31A     -0.587917    32A     -0.578361    33A     -0.557691
      34A     -0.539682    35A     -0.520612    36A     -0.509746
      37A     -0.492572    38A     -0.490240    39A     -0.479401
      40A     -0.423009    41A     -0.389946    42A     -0.344063
      43A     -0.336431

  @DF-RHF Final Energy:  -514.59118209989583

   => Energetics <=

    Nuclear Repulsion Energy =            685.5773460398603447
    One-Electron Energy =               -2059.0735464466029043
    Two-Electron Energy =                 858.9050183068466140
    Total Energy =                       -514.5911820998958319
  Basis Set: (AUG-CC-PVTZ AUX)
    Blend: AUG-CC-PVTZ-RI
    Molecular point group: c1

    Geometry (in Angstrom), charge = 0, multiplicity = 1:

       Center              X                  Y                   Z               Mass
    ------------   -----------------  -----------------  -----------------  -----------------
         O            0.956259513604     2.466078020665    -0.645919624269    15.994914619570
         N            2.060893513604     0.649065020665     0.188714375731    14.003074004430
         C            0.770941513604    -1.603873979335    -0.859556624269    12.000000000000
         C            1.830280513604    -1.819965979335     0.230147375731    12.000000000000
         C           -0.435238486396    -0.841406979335    -0.370740624269    12.000000000000
         C            2.041208513604    -0.538560979335     1.036640375731    12.000000000000
         C           -0.350573486396     0.536220020665    -0.080614624269    12.000000000000
         C            0.926434513604     1.310558020665    -0.212318624269    12.000000000000
         C           -1.676853486396    -1.471964979335    -0.226128624269    12.000000000000
         C           -1.489080486396     1.254780020665     0.302348375731    12.000000000000
         C           -2.806702486396    -0.763180979335     0.185244375731    12.000000000000
         C           -2.713633486396     0.605933020665     0.446425375731    12.000000000000
         H            0.452858513604    -2.570474979335    -1.266229624269     1.007825032230
         H            1.231105513604    -1.049918979335    -1.684870624269     1.007825032230
         H            1.521050513604    -2.619289979335     0.915109375731     1.007825032230
         H            2.768881513604    -2.136650979335    -0.239675624269     1.007825032230
         H            1.316365613604    -0.446389979335     1.712548575731     1.007825032230
         H            2.987497513604    -0.574757979335     1.584241375731     1.007825032230
         H            2.893828513604     1.228578020665     0.166646375731     1.007825032230
         H           -1.761035486396    -2.533074979335    -0.456402624269     1.007825032230
         H           -1.393569486396     2.323293020665     0.477962375731     1.007825032230
         H           -3.759638486396    -1.276656979335     0.291046375731     1.007825032230
         H           -3.593718486396     1.165716020665     0.753474375731     1.007825032230

  Basis Set: AUG-CC-PVTZ
    Blend: AUG-CC-PVTZ
  Basis Set: (AUG-CC-PVTZ AUX)
    Blend: AUG-CC-PVTZ-JKFIT
	 Reference Energy          =    -514.5911820998958319 [Eh]
	 Singles Energy            =      -0.0000000000000000 [Eh]
	 Same-Spin Energy          =      -0.5584517458178874 [Eh]
	 Opposite-Spin Energy      =      -1.7436700625302808 [Eh]
	 Correlation Energy        =      -2.3021218083481680 [Eh]
	 Total Energy              =    -516.8933039082439791 [Eh]

	 ================> DF-SCS-MP2 Energies <==================
	-----------------------------------------------------------
	 SCS Same-Spin Scale       =       0.3333333333333333 [-]
	 SCS Opposite-Spin Scale   =       1.2000000000000000 [-]
	 SCS Same-Spin Energy      =      -0.1861505819392958 [Eh]
	 SCS Opposite-Spin Energy  =      -2.0924040750363369 [Eh]
	 SCS Correlation Energy    =      -2.2785546569756328 [Eh]
	 SCS Total Energy          =    -516.8697367568714753 [Eh]
	-----------------------------------------------------------

  Dipole Moment: [D]
     X:     0.6180      Y:    -3.6252      Z:     1.8123     Total:     4.0998

*** Psi4 exiting successfully. Buy a developer a beer!
