                               Psi4 1.3.2 release

  ==> Input File <==

--------------------------------------------------------------------------
#psi4
#
memory 32 gb

molecule  {
0 1
  O        0.9417500     2.5148810    -0.6596880
  N        2.0463840     0.6978680     0.1749460
  C        0.6624508    -1.6816150    -0.8823449
  C        1.8157710    -1.7711630     0.2163790
  C       -0.4497480    -0.7926040    -0.3845090
  C        2.0266990    -0.4897580     1.0228720
  C       -0.3650830     0.5850230    -0.0943830
  C        0.9119250     1.3593610    -0.2260870
  C       -1.6913630    -1.4231620    -0.2398970
  C       -1.5035900     1.3035830     0.2885800
  C       -2.8212120    -0.7143780     0.1714760
  C       -2.7281430     0.6547360     0.4326570
  H        0.4383490    -2.5216720    -1.2799980
  H        1.2165960    -1.0011160    -1.6986390
  H        1.5065410    -2.5704870     0.9013410
  H        2.7543720    -2.0878480    -0.2534440
  H        1.2290340    -0.3883270     1.7666860
  H        2.9729880    -0.5259550     1.5704730
  H        2.8793190     1.2773810     0.1528780
  H       -1.7755450    -2.4842720    -0.4701710
  H       -1.4080790     2.3720960     0.4641940
  H       -3.7741480    -1.2278540     0.2772780
  H       -3.6082280     1.2145190     0.7397060
units angstrom
no_reorient  #important for SAPT in psi4, default
symmetry c1  #important for SAPT in psi4, default
}

set PROPERTIES_ORIGIN ["COM"]
properties('MP2/aug-cc-pvtz', properties = ['dipole'])
--------------------------------------------------------------------------

    Molecular point group: c1
  Charge       = 0
  Multiplicity = 1
  Basis Set: AUG-CC-PVTZ
    Blend: AUG-CC-PVTZ
  Basis Set: (AUG-CC-PVTZ AUX)
    Blend: AUG-CC-PVTZ-JKFIT

    Orbital Energies [Eh]
    ---------------------

    Doubly Occupied:

       1A    -20.514839     2A    -15.582890     3A    -11.351369
       4A    -11.278308     5A    -11.260661     6A    -11.249343
       7A    -11.248123     8A    -11.246934     9A    -11.241662
      10A    -11.241092    11A    -11.239306    12A    -11.239122
      13A     -1.368777    14A     -1.233897    15A     -1.164650
      16A     -1.078723    17A     -1.036177    18A     -1.019991
      19A     -0.942465    20A     -0.882791    21A     -0.837829
      22A     -0.806502    23A     -0.776299    24A     -0.696823
      25A     -0.691508    26A     -0.672622    27A     -0.648072
      28A     -0.630721    29A     -0.615595    30A     -0.600334
      31A     -0.585280    32A     -0.575474    33A     -0.565744
      34A     -0.532503    35A     -0.514253    36A     -0.512365
      37A     -0.507660    38A     -0.474133    39A     -0.469287
      40A     -0.422589    41A     -0.389367    42A     -0.344239
      43A     -0.332308

  @DF-RHF Final Energy:  -514.56643314763198

   => Energetics <=

    Nuclear Repulsion Energy =            683.6355419579089130
    One-Electron Energy =               -2055.1586951609906464
    Two-Electron Energy =                 856.9567200554496367
    Total Energy =                       -514.5664331476319830
  Basis Set: (AUG-CC-PVTZ AUX)
    Blend: AUG-CC-PVTZ-RI
    Molecular point group: c1

    Geometry (in Angstrom), charge = 0, multiplicity = 1:

       Center              X                  Y                   Z               Mass
    ------------   -----------------  -----------------  -----------------  -----------------
         O            0.963716280622     2.475447014115    -0.645672538158    15.994914619570
         N            2.068350280622     0.658434014115     0.188961461842    14.003074004430
         C            0.684417080622    -1.721048985885    -0.868329438158    12.000000000000
         C            1.837737280622    -1.810596985885     0.230394461842    12.000000000000
         C           -0.427781719378    -0.832037985885    -0.370493538158    12.000000000000
         C            2.048665280622    -0.529191985885     1.036887461842    12.000000000000
         C           -0.343116719378     0.545589014115    -0.080367538158    12.000000000000
         C            0.933891280622     1.319927014115    -0.212071538158    12.000000000000
         C           -1.669396719378    -1.462595985885    -0.225881538158    12.000000000000
         C           -1.481623719378     1.264149014115     0.302595461842    12.000000000000
         C           -2.799245719378    -0.753811985885     0.185491461842    12.000000000000
         C           -2.706176719378     0.615302014115     0.446672461842    12.000000000000
         H            0.460315280622    -2.561105985885    -1.265982538158     1.007825032230
         H            1.238562280622    -1.040549985885    -1.684623538158     1.007825032230
         H            1.528507280622    -2.609920985885     0.915356461842     1.007825032230
         H            2.776338280622    -2.127281985885    -0.239428538158     1.007825032230
         H            1.251000280622    -0.427760985885     1.780701461842     1.007825032230
         H            2.994954280622    -0.565388985885     1.584488461842     1.007825032230
         H            2.901285280622     1.237947014115     0.166893461842     1.007825032230
         H           -1.753578719378    -2.523705985885    -0.456155538158     1.007825032230
         H           -1.386112719378     2.332662014115     0.478209461842     1.007825032230
         H           -3.752181719378    -1.267287985885     0.291293461842     1.007825032230
         H           -3.586261719378     1.175085014115     0.753721461842     1.007825032230

  Basis Set: AUG-CC-PVTZ
    Blend: AUG-CC-PVTZ
  Basis Set: (AUG-CC-PVTZ AUX)
    Blend: AUG-CC-PVTZ-JKFIT
	 Reference Energy          =    -514.5664331476319830 [Eh]
	 Singles Energy            =      -0.0000000000000000 [Eh]
	 Same-Spin Energy          =      -0.5587288739311868 [Eh]
	 Opposite-Spin Energy      =      -1.7453504201104328 [Eh]
	 Correlation Energy        =      -2.3040792940416197 [Eh]
	 Total Energy              =    -516.8705124416735543 [Eh]

	 ================> DF-SCS-MP2 Energies <==================
	-----------------------------------------------------------
	 SCS Same-Spin Scale       =       0.3333333333333333 [-]
	 SCS Opposite-Spin Scale   =       1.2000000000000000 [-]
	 SCS Same-Spin Energy      =      -0.1862429579770623 [Eh]
	 SCS Opposite-Spin Energy  =      -2.0944205041325192 [Eh]
	 SCS Correlation Energy    =      -2.2806634621095814 [Eh]
	 SCS Total Energy          =    -516.8470966097415840 [Eh]
	-----------------------------------------------------------

  Dipole Moment: [D]
     X:     0.6265      Y:    -3.6660      Z:     1.7969     Total:     4.1304

*** Psi4 exiting successfully. Buy a developer a beer!
