                               Psi4 1.3.2 release

  ==> Input File <==

--------------------------------------------------------------------------
#psi4
#
memory 32 gb

molecule  {
0 1
  O        0.9417500     2.5148810    -0.6596880
  N        2.0463840     0.6978680     0.1749460
  C        0.8189687    -1.4779306    -0.9135545
  C        1.8157710    -1.7711630     0.2163790
  C       -0.4497480    -0.7926040    -0.3845090
  C        2.0266990    -0.4897580     1.0228720
  C       -0.3650830     0.5850230    -0.0943830
  C        0.9119250     1.3593610    -0.2260870
  C       -1.6913630    -1.4231620    -0.2398970
  C       -1.5035900     1.3035830     0.2885800
  C       -2.8212120    -0.7143780     0.1714760
  C       -2.7281430     0.6547360     0.4326570
  H        0.4383490    -2.5216720    -1.2799980
  H        1.2165960    -1.0011160    -1.6986390
  H        1.5065410    -2.5704870     0.9013410
  H        2.7543720    -2.0878480    -0.2534440
  H        1.2290340    -0.3883270     1.7666860
  H        2.9729880    -0.5259550     1.5704730
  H        2.8793190     1.2773810     0.1528780
  H       -1.7755450    -2.4842720    -0.4701710
  H       -1.4080790     2.3720960     0.4641940
  H       -3.7741480    -1.2278540     0.2772780
  H       -3.6082280     1.2145190     0.7397060
units angstrom
no_reorient  #important for SAPT in psi4, default
symmetry c1  #important for SAPT in psi4, default
}

set PROPERTIES_ORIGIN ["COM"]
properties('MP2/aug-cc-pvtz', properties = ['dipole'])
--------------------------------------------------------------------------

    Molecular point group: c1
  Charge       = 0
  Multiplicity = 1
  Basis Set: AUG-CC-PVTZ
    Blend: AUG-CC-PVTZ
  Basis Set: (AUG-CC-PVTZ AUX)
    Blend: AUG-CC-PVTZ-JKFIT

    Orbital Energies [Eh]
    ---------------------

    Doubly Occupied:

       1A    -20.515610     2A    -15.583035     3A    -11.351747
       4A    -11.274732     5A    -11.259406     6A    -11.249316
       7A    -11.246128     8A    -11.244786     9A    -11.243292
      10A    -11.240092    11A    -11.240045    12A    -11.238627
      13A     -1.369524    14A     -1.235581    15A     -1.163295
      16A     -1.081283    17A     -1.037018    18A     -1.019954
      19A     -0.939543    20A     -0.880037    21A     -0.842211
      22A     -0.801131    23A     -0.776587    24A     -0.698409
      25A     -0.683748    26A     -0.674686    27A     -0.654647
      28A     -0.621128    29A     -0.617015    30A     -0.599944
      31A     -0.586907    32A     -0.580311    33A     -0.552608
      34A     -0.540614    35A     -0.521633    36A     -0.510581
      37A     -0.498918    38A     -0.477205    39A     -0.471737
      40A     -0.423966    41A     -0.389950    42A     -0.343774
      43A     -0.337597

  @DF-RHF Final Energy:  -514.58265306547094

   => Energetics <=

    Nuclear Repulsion Energy =            685.3247422726238938
    One-Electron Energy =               -2058.5780759468657379
    Two-Electron Energy =                 858.6706806087707946
    Total Energy =                       -514.5826530654709359
  Basis Set: (AUG-CC-PVTZ AUX)
    Blend: AUG-CC-PVTZ-RI
    Molecular point group: c1

    Geometry (in Angstrom), charge = 0, multiplicity = 1:

       Center              X                  Y                   Z               Mass
    ------------   -----------------  -----------------  -----------------  -----------------
         O            0.952056438216     2.460273490802    -0.643347570742    15.994914619570
         N            2.056690438216     0.643260490802     0.191286429258    14.003074004430
         C            0.829275138216    -1.532538109198    -0.897214070742    12.000000000000
         C            1.826077438216    -1.825770509198     0.232719429258    12.000000000000
         C           -0.439441561784    -0.847211509198    -0.368168570742    12.000000000000
         C            2.037005438216    -0.544365509198     1.039212429258    12.000000000000
         C           -0.354776561784     0.530415490802    -0.078042570742    12.000000000000
         C            0.922231438216     1.304753490802    -0.209746570742    12.000000000000
         C           -1.681056561784    -1.477769509198    -0.223556570742    12.000000000000
         C           -1.493283561784     1.248975490802     0.304920429258    12.000000000000
         C           -2.810905561784    -0.768985509198     0.187816429258    12.000000000000
         C           -2.717836561784     0.600128490802     0.448997429258    12.000000000000
         H            0.448655438216    -2.576279509198    -1.263657570742     1.007825032230
         H            1.226902438216    -1.055723509198    -1.682298570742     1.007825032230
         H            1.516847438216    -2.625094509198     0.917681429258     1.007825032230
         H            2.764678438216    -2.142455509198    -0.237103570742     1.007825032230
         H            1.239340438216    -0.442934509198     1.783026429258     1.007825032230
         H            2.983294438216    -0.580562509198     1.586813429258     1.007825032230
         H            2.889625438216     1.222773490802     0.169218429258     1.007825032230
         H           -1.765238561784    -2.538879509198    -0.453830570742     1.007825032230
         H           -1.397772561784     2.317488490802     0.480534429258     1.007825032230
         H           -3.763841561784    -1.282461509198     0.293618429258     1.007825032230
         H           -3.597921561784     1.159911490802     0.756046429258     1.007825032230

  Basis Set: AUG-CC-PVTZ
    Blend: AUG-CC-PVTZ
  Basis Set: (AUG-CC-PVTZ AUX)
    Blend: AUG-CC-PVTZ-JKFIT
	 Reference Energy          =    -514.5826530654709359 [Eh]
	 Singles Energy            =      -0.0000000000000000 [Eh]
	 Same-Spin Energy          =      -0.5588332069029621 [Eh]
	 Opposite-Spin Energy      =      -1.7451354599252151 [Eh]
	 Correlation Energy        =      -2.3039686668281774 [Eh]
	 Total Energy              =    -516.8866217322990906 [Eh]

	 ================> DF-SCS-MP2 Energies <==================
	-----------------------------------------------------------
	 SCS Same-Spin Scale       =       0.3333333333333333 [-]
	 SCS Opposite-Spin Scale   =       1.2000000000000000 [-]
	 SCS Same-Spin Energy      =      -0.1862777356343207 [Eh]
	 SCS Opposite-Spin Energy  =      -2.0941625519102582 [Eh]
	 SCS Correlation Energy    =      -2.2804402875445788 [Eh]
	 SCS Total Energy          =    -516.8630933530155289 [Eh]
	-----------------------------------------------------------

  Dipole Moment: [D]
     X:     0.6297      Y:    -3.5605      Z:     1.7722     Total:     4.0267

*** Psi4 exiting successfully. Buy a developer a beer!
