                               Psi4 1.3.2 release

  ==> Input File <==

--------------------------------------------------------------------------
#psi4
#
memory 32 gb

molecule  {
0 1
  O        0.9417500     2.5148810    -0.6596880
  N        2.0463840     0.6978680     0.1749460
  C        0.7564320    -1.5550710    -0.8733250
  C        1.8157710    -1.7711630     0.2163790
  C       -0.4497480    -0.7926040    -0.3845090
  C        2.0266990    -0.4897580     1.0228720
  C       -0.3650830     0.5850230    -0.0943830
  C        0.8868814     1.3191773    -0.2186606
  C       -1.6913630    -1.4231620    -0.2398970
  C       -1.5035900     1.3035830     0.2885800
  C       -2.8212120    -0.7143780     0.1714760
  C       -2.7281430     0.6547360     0.4326570
  H        0.4383490    -2.5216720    -1.2799980
  H        1.2165960    -1.0011160    -1.6986390
  H        1.5065410    -2.5704870     0.9013410
  H        2.7543720    -2.0878480    -0.2534440
  H        1.2290340    -0.3883270     1.7666860
  H        2.9729880    -0.5259550     1.5704730
  H        2.8793190     1.2773810     0.1528780
  H       -1.7755450    -2.4842720    -0.4701710
  H       -1.4080790     2.3720960     0.4641940
  H       -3.7741480    -1.2278540     0.2772780
  H       -3.6082280     1.2145190     0.7397060
units angstrom
no_reorient  #important for SAPT in psi4, default
symmetry c1  #important for SAPT in psi4, default
}

set PROPERTIES_ORIGIN ["COM"]
properties('MP2/aug-cc-pvtz', properties = ['dipole'])
--------------------------------------------------------------------------

    Molecular point group: c1
  Charge       = 0
  Multiplicity = 1
  Basis Set: AUG-CC-PVTZ
    Blend: AUG-CC-PVTZ
  Basis Set: (AUG-CC-PVTZ AUX)
    Blend: AUG-CC-PVTZ-JKFIT

    Orbital Energies [Eh]
    ---------------------

    Doubly Occupied:

       1A    -20.508088     2A    -15.584934     3A    -11.352141
       4A    -11.275536     5A    -11.261549     6A    -11.252094
       7A    -11.249399     8A    -11.247165     9A    -11.243655
      10A    -11.241791    11A    -11.241086    12A    -11.239052
      13A     -1.345663    14A     -1.230154    15A     -1.167637
      16A     -1.083541    17A     -1.043306    18A     -1.022323
      19A     -0.939325    20A     -0.889028    21A     -0.843238
      22A     -0.800224    23A     -0.779195    24A     -0.701663
      25A     -0.684772    26A     -0.673714    27A     -0.652047
      28A     -0.624283    29A     -0.615528    30A     -0.601186
      31A     -0.582733    32A     -0.573275    33A     -0.554368
      34A     -0.536630    35A     -0.517201    36A     -0.509487
      37A     -0.493277    38A     -0.490575    39A     -0.477677
      40A     -0.420598    41A     -0.384935    42A     -0.345891
      43A     -0.338324

  @DF-RHF Final Energy:  -514.58944630610779

   => Energetics <=

    Nuclear Repulsion Energy =            685.4614420921276405
    One-Electron Energy =               -2058.8651977234326296
    Two-Electron Energy =                 858.8143093251973141
    Total Energy =                       -514.5894463061077886
  Basis Set: (AUG-CC-PVTZ AUX)
    Blend: AUG-CC-PVTZ-RI
    Molecular point group: c1

    Geometry (in Angstrom), charge = 0, multiplicity = 1:

       Center              X                  Y                   Z               Mass
    ------------   -----------------  -----------------  -----------------  -----------------
         O            0.958580755855     2.469013580698    -0.646897709631    15.994914619570
         N            2.063214755855     0.652000580698     0.187736290369    14.003074004430
         C            0.773262755855    -1.600938419302    -0.860534709631    12.000000000000
         C            1.832601755855    -1.817030419302     0.229169290369    12.000000000000
         C           -0.432917244145    -0.838471419302    -0.371718709631    12.000000000000
         C            2.043529755855    -0.535625419302     1.035662290369    12.000000000000
         C           -0.348252244145     0.539155580698    -0.081592709631    12.000000000000
         C            0.903712155855     1.273309880698    -0.205870309631    12.000000000000
         C           -1.674532244145    -1.469029419302    -0.227106709631    12.000000000000
         C           -1.486759244145     1.257715580698     0.301370290369    12.000000000000
         C           -2.804381244145    -0.760245419302     0.184266290369    12.000000000000
         C           -2.711312244145     0.608868580698     0.445447290369    12.000000000000
         H            0.455179755855    -2.567539419302    -1.267207709631     1.007825032230
         H            1.233426755855    -1.046983419302    -1.685848709631     1.007825032230
         H            1.523371755855    -2.616354419302     0.914131290369     1.007825032230
         H            2.771202755855    -2.133715419302    -0.240653709631     1.007825032230
         H            1.245864755855    -0.434194419302     1.779476290369     1.007825032230
         H            2.989818755855    -0.571822419302     1.583263290369     1.007825032230
         H            2.896149755855     1.231513580698     0.165668290369     1.007825032230
         H           -1.758714244145    -2.530139419302    -0.457380709631     1.007825032230
         H           -1.391248244145     2.326228580698     0.476984290369     1.007825032230
         H           -3.757317244145    -1.273721419302     0.290068290369     1.007825032230
         H           -3.591397244145     1.168651580698     0.752496290369     1.007825032230

  Basis Set: AUG-CC-PVTZ
    Blend: AUG-CC-PVTZ
  Basis Set: (AUG-CC-PVTZ AUX)
    Blend: AUG-CC-PVTZ-JKFIT
	 Reference Energy          =    -514.5894463061077886 [Eh]
	 Singles Energy            =      -0.0000000000000000 [Eh]
	 Same-Spin Energy          =      -0.5598468298135312 [Eh]
	 Opposite-Spin Energy      =      -1.7466852299191007 [Eh]
	 Correlation Energy        =      -2.3065320597326320 [Eh]
	 Total Energy              =    -516.8959783658403921 [Eh]

	 ================> DF-SCS-MP2 Energies <==================
	-----------------------------------------------------------
	 SCS Same-Spin Scale       =       0.3333333333333333 [-]
	 SCS Opposite-Spin Scale   =       1.2000000000000000 [-]
	 SCS Same-Spin Energy      =      -0.1866156099378437 [Eh]
	 SCS Opposite-Spin Energy  =      -2.0960222759029206 [Eh]
	 SCS Correlation Energy    =      -2.2826378858407641 [Eh]
	 SCS Total Energy          =    -516.8720841919486020 [Eh]
	-----------------------------------------------------------

  Dipole Moment: [D]
     X:     0.4742      Y:    -3.8681      Z:     1.8394     Total:     4.3093

*** Psi4 exiting successfully. Buy a developer a beer!
