                               Psi4 1.3.2 release

  ==> Input File <==

--------------------------------------------------------------------------
#psi4
#
memory 32 gb

molecule  {
0 1
  O        0.9417500     2.5148810    -0.6596880
  N        2.0463840     0.6978680     0.1749460
  C        0.7564320    -1.5550710    -0.8733250
  C        1.8157710    -1.7711630     0.2163790
  C       -0.4497480    -0.7926040    -0.3845090
  C        2.0266990    -0.4897580     1.0228720
  C       -0.3650830     0.5850230    -0.0943830
  C        0.9119250     1.3593610    -0.2260870
  C       -1.6913630    -1.4231620    -0.2398970
  C       -1.5035900     1.3035830     0.2885800
  C       -2.8212120    -0.7143780     0.1714760
  C       -2.7281430     0.6547360     0.4326570
  H        0.4383490    -2.5216720    -1.2799980
  H        1.2165960    -1.0011160    -1.6986390
  H        1.4501708    -2.7161976     1.0262043
  H        2.7543720    -2.0878480    -0.2534440
  H        1.2290340    -0.3883270     1.7666860
  H        2.9729880    -0.5259550     1.5704730
  H        2.8793190     1.2773810     0.1528780
  H       -1.7755450    -2.4842720    -0.4701710
  H       -1.4080790     2.3720960     0.4641940
  H       -3.7741480    -1.2278540     0.2772780
  H       -3.6082280     1.2145190     0.7397060
units angstrom
no_reorient  #important for SAPT in psi4, default
symmetry c1  #important for SAPT in psi4, default
}

set PROPERTIES_ORIGIN ["COM"]
properties('MP2/aug-cc-pvtz', properties = ['dipole'])
--------------------------------------------------------------------------

    Molecular point group: c1
  Charge       = 0
  Multiplicity = 1
  Basis Set: AUG-CC-PVTZ
    Blend: AUG-CC-PVTZ
  Basis Set: (AUG-CC-PVTZ AUX)
    Blend: AUG-CC-PVTZ-JKFIT

    Orbital Energies [Eh]
    ---------------------

    Doubly Occupied:

       1A    -20.516427     2A    -15.584633     3A    -11.352706
       4A    -11.277956     5A    -11.261166     6A    -11.259011
       7A    -11.249202     8A    -11.247957     9A    -11.246077
      10A    -11.242265    11A    -11.241852    12A    -11.240368
      13A     -1.370328    14A     -1.236470    15A     -1.164834
      16A     -1.080570    17A     -1.036910    18A     -1.019038
      19A     -0.939859    20A     -0.880625    21A     -0.837392
      22A     -0.793207    23A     -0.777325    24A     -0.697159
      25A     -0.685319    26A     -0.671159    27A     -0.650932
      28A     -0.623448    29A     -0.616299    30A     -0.599310
      31A     -0.586735    32A     -0.575496    33A     -0.556550
      34A     -0.534618    35A     -0.514301    36A     -0.509221
      37A     -0.494390    38A     -0.482133    39A     -0.470958
      40A     -0.424273    41A     -0.391222    42A     -0.344325
      43A     -0.336907

  @DF-RHF Final Energy:  -514.57683114551457

   => Energetics <=

    Nuclear Repulsion Energy =            684.2059086292787242
    One-Electron Energy =               -2056.3236158148029062
    Two-Electron Energy =                 857.5408760400094934
    Total Energy =                       -514.5768311455145749
  Basis Set: (AUG-CC-PVTZ AUX)
    Blend: AUG-CC-PVTZ-RI
    Molecular point group: c1

    Geometry (in Angstrom), charge = 0, multiplicity = 1:

       Center              X                  Y                   Z               Mass
    ------------   -----------------  -----------------  -----------------  -----------------
         O            0.957067807303     2.466931726035    -0.647125687238    15.994914619570
         N            2.061701807303     0.649918726035     0.187508312762    14.003074004430
         C            0.771749807303    -1.603020273965    -0.860762687238    12.000000000000
         C            1.831088807303    -1.819112273965     0.228941312762    12.000000000000
         C           -0.434430192697    -0.840553273965    -0.371946687238    12.000000000000
         C            2.042016807303    -0.537707273965     1.035434312762    12.000000000000
         C           -0.349765192697     0.537073726035    -0.081820687238    12.000000000000
         C            0.927242807303     1.311411726035    -0.213524687238    12.000000000000
         C           -1.676045192697    -1.471111273965    -0.227334687238    12.000000000000
         C           -1.488272192697     1.255633726035     0.301142312762    12.000000000000
         C           -2.805894192697    -0.762327273965     0.184038312762    12.000000000000
         C           -2.712825192697     0.606786726035     0.445219312762    12.000000000000
         H            0.453666807303    -2.569621273965    -1.267435687238     1.007825032230
         H            1.231913807303    -1.049065273965    -1.686076687238     1.007825032230
         H            1.465488607303    -2.764146873965     1.038766612762     1.007825032230
         H            2.769689807303    -2.135797273965    -0.240881687238     1.007825032230
         H            1.244351807303    -0.436276273965     1.779248312762     1.007825032230
         H            2.988305807303    -0.573904273965     1.583035312762     1.007825032230
         H            2.894636807303     1.229431726035     0.165440312762     1.007825032230
         H           -1.760227192697    -2.532221273965    -0.457608687238     1.007825032230
         H           -1.392761192697     2.324146726035     0.476756312762     1.007825032230
         H           -3.758830192697    -1.275803273965     0.289840312762     1.007825032230
         H           -3.592910192697     1.166569726035     0.752268312762     1.007825032230

  Basis Set: AUG-CC-PVTZ
    Blend: AUG-CC-PVTZ
  Basis Set: (AUG-CC-PVTZ AUX)
    Blend: AUG-CC-PVTZ-JKFIT
	 Reference Energy          =    -514.5768311455145749 [Eh]
	 Singles Energy            =      -0.0000000000000000 [Eh]
	 Same-Spin Energy          =      -0.5587177300680726 [Eh]
	 Opposite-Spin Energy      =      -1.7460392885348321 [Eh]
	 Correlation Energy        =      -2.3047570186029045 [Eh]
	 Total Energy              =    -516.8815881641174883 [Eh]

	 ================> DF-SCS-MP2 Energies <==================
	-----------------------------------------------------------
	 SCS Same-Spin Scale       =       0.3333333333333333 [-]
	 SCS Opposite-Spin Scale   =       1.2000000000000000 [-]
	 SCS Same-Spin Energy      =      -0.1862392433560242 [Eh]
	 SCS Opposite-Spin Energy  =      -2.0952471462417983 [Eh]
	 SCS Correlation Energy    =      -2.2814863895978226 [Eh]
	 SCS Total Energy          =    -516.8583175351124055 [Eh]
	-----------------------------------------------------------

  Dipole Moment: [D]
     X:     0.6061      Y:    -3.4702      Z:     1.6658     Total:     3.8968

*** Psi4 exiting successfully. Buy a developer a beer!
