                               Psi4 1.4a3.dev225

  ==> Input File <==

--------------------------------------------------------------------------
#psi4
#
memory 32 gb

molecule  {
0 1
  O        0.9417500     2.5148810    -0.6596880
  N        2.0463840     0.6978680     0.1749460
  C        0.7564320    -1.5550710    -0.8733250
  C        1.8157710    -1.7711630     0.2163790
  C       -0.4497480    -0.7926040    -0.3845090
  C        2.0266990    -0.4897580     1.0228720
  C       -0.3650830     0.5850230    -0.0943830
  C        0.9119250     1.3593610    -0.2260870
  C       -1.6913630    -1.4231620    -0.2398970
  C       -1.5035900     1.3035830     0.2885800
  C       -2.8212120    -0.7143780     0.1714760
  C       -2.7281430     0.6547360     0.4326570
  H        0.4383490    -2.5216720    -1.2799980
  H        1.2165960    -1.0011160    -1.6986390
  H        1.5065410    -2.5704870     0.9013410
  H        2.7543720    -2.0878480    -0.2534440
  H        1.2435984    -0.3901790     1.7531048
  H        2.9729880    -0.5259550     1.5704730
  H        2.8793190     1.2773810     0.1528780
  H       -1.7755450    -2.4842720    -0.4701710
  H       -1.4080790     2.3720960     0.4641940
  H       -3.7741480    -1.2278540     0.2772780
  H       -3.6082280     1.2145190     0.7397060
units angstrom
no_reorient  #important for SAPT in psi4, default
symmetry c1  #important for SAPT in psi4, default
}

set PROPERTIES_ORIGIN ["COM"]
properties('MP2/aug-cc-pvtz', properties = ['dipole'])
--------------------------------------------------------------------------

    Molecular point group: c1
  Charge       = 0
  Multiplicity = 1
  Basis Set: AUG-CC-PVTZ
    Blend: AUG-CC-PVTZ
  Basis Set: (AUG-CC-PVTZ AUX)
    Blend: AUG-CC-PVTZ-JKFIT

    Orbital Energies [Eh]
    ---------------------

    Doubly Occupied:

       1A    -20.515046     2A    -15.582509     3A    -11.351400
       4A    -11.273435     5A    -11.258307     6A    -11.248833
       7A    -11.247205     8A    -11.245556     9A    -11.241775
      10A    -11.239844    11A    -11.239320    12A    -11.237757
      13A     -1.368980    14A     -1.234917    15A     -1.164221
      16A     -1.082315    17A     -1.036856    18A     -1.020882
      19A     -0.939242    20A     -0.881553    21A     -0.841789
      22A     -0.798465    23A     -0.776756    24A     -0.697082
      25A     -0.686595    26A     -0.672278    27A     -0.652465
      28A     -0.623617    29A     -0.616103    30A     -0.599878
      31A     -0.587295    32A     -0.576728    33A     -0.557133
      34A     -0.536640    35A     -0.519147    36A     -0.509841
      37A     -0.492762    38A     -0.490041    39A     -0.478623
      40A     -0.423300    41A     -0.389557    42A     -0.343912
      43A     -0.336187

  @DF-RHF Final Energy:  -514.59678531542033

   => Energetics <=

    Nuclear Repulsion Energy =            685.2085821713376390
    One-Electron Energy =               -2058.3784431356311870
    Two-Electron Energy =                 858.5730756488732140
    Total Energy =                       -514.5967853154203340
  Basis Set: (AUG-CC-PVTZ AUX)
    Blend: AUG-CC-PVTZ-RI
    Molecular point group: c1

    Geometry (in Angstrom), charge = 0, multiplicity = 1:

       Center              X                  Y                   Z               Mass
    ------------   -----------------  -----------------  -----------------  -----------------
         O            0.956624003840     2.466031672394    -0.646259507001    15.994914619570
         N            2.061258003840     0.649018672394     0.188374492999    14.003074004430
         C            0.771306003840    -1.603920327606    -0.859896507001    12.000000000000
         C            1.830645003840    -1.820012327606     0.229807492999    12.000000000000
         C           -0.434873996160    -0.841453327606    -0.371080507001    12.000000000000
         C            2.041573003840    -0.538607327606     1.036300492999    12.000000000000
         C           -0.350208996160     0.536173672394    -0.080954507001    12.000000000000
         C            0.926799003840     1.310511672394    -0.212658507001    12.000000000000
         C           -1.676488996160    -1.472011327606    -0.226468507001    12.000000000000
         C           -1.488715996160     1.254733672394     0.302008492999    12.000000000000
         C           -2.806337996160    -0.763227327606     0.184904492999    12.000000000000
         C           -2.713268996160     0.605886672394     0.446085492999    12.000000000000
         H            0.453223003840    -2.570521327606    -1.266569507001     1.007825032230
         H            1.231470003840    -1.049965327606    -1.685210507001     1.007825032230
         H            1.521415003840    -2.619336327606     0.914769492999     1.007825032230
         H            2.769246003840    -2.136697327606    -0.240015507001     1.007825032230
         H            1.258472403840    -0.439028327606     1.766533292999     1.007825032230
         H            2.987862003840    -0.574804327606     1.583901492999     1.007825032230
         H            2.894193003840     1.228531672394     0.166306492999     1.007825032230
         H           -1.760670996160    -2.533121327606    -0.456742507001     1.007825032230
         H           -1.393204996160     2.323246672394     0.477622492999     1.007825032230
         H           -3.759273996160    -1.276703327606     0.290706492999     1.007825032230
         H           -3.593353996160     1.165669672394     0.753134492999     1.007825032230

  Basis Set: AUG-CC-PVTZ
    Blend: AUG-CC-PVTZ
  Basis Set: (AUG-CC-PVTZ AUX)
    Blend: AUG-CC-PVTZ-JKFIT
	 Reference Energy          =    -514.5967853154203340 [Eh]
	 Singles Energy            =      -0.0000000000000000 [Eh]
	 Same-Spin Energy          =      -0.5586025296377443 [Eh]
	 Opposite-Spin Energy      =      -1.7442123858079561 [Eh]
	 Correlation Energy        =      -2.3028149154457003 [Eh]
	 Total Energy              =    -516.8996002308659854 [Eh]

	 ================> DF-SCS-MP2 Energies <==================
	-----------------------------------------------------------
	 SCS Same-Spin Scale       =       0.3333333333333333 [-]
	 SCS Opposite-Spin Scale   =       1.2000000000000000 [-]
	 SCS Same-Spin Energy      =      -0.1862008432125814 [Eh]
	 SCS Opposite-Spin Energy  =      -2.0930548629695473 [Eh]
	 SCS Correlation Energy    =      -2.2792557061821288 [Eh]
	 SCS Total Energy          =    -516.8760410216024184 [Eh]
	-----------------------------------------------------------

  Dipole Moment: [D]
     X:     0.6268      Y:    -3.6176      Z:     1.7789     Total:     4.0798

*** Psi4 exiting successfully. Buy a developer a beer!
