                               Psi4 1.3.2 release

  ==> Input File <==

--------------------------------------------------------------------------
#psi4
#
memory 32 gb

molecule  {
0 1
  O        0.9417500     2.5148810    -0.6596880
  N        2.0681673     0.7788446     0.3026294
  C        0.7564320    -1.5550710    -0.8733250
  C        1.8157710    -1.7711630     0.2163790
  C       -0.4497480    -0.7926040    -0.3845090
  C        2.0266990    -0.4897580     1.0228720
  C       -0.3650830     0.5850230    -0.0943830
  C        0.9119250     1.3593610    -0.2260870
  C       -1.6913630    -1.4231620    -0.2398970
  C       -1.5035900     1.3035830     0.2885800
  C       -2.8212120    -0.7143780     0.1714760
  C       -2.7281430     0.6547360     0.4326570
  H        0.4383490    -2.5216720    -1.2799980
  H        1.2165960    -1.0011160    -1.6986390
  H        1.5065410    -2.5704870     0.9013410
  H        2.7543720    -2.0878480    -0.2534440
  H        1.2290340    -0.3883270     1.7666860
  H        2.9729880    -0.5259550     1.5704730
  H        2.8793190     1.2773810     0.1528780
  H       -1.7755450    -2.4842720    -0.4701710
  H       -1.4080790     2.3720960     0.4641940
  H       -3.7741480    -1.2278540     0.2772780
  H       -3.6082280     1.2145190     0.7397060
units angstrom
no_reorient  #important for SAPT in psi4, default
symmetry c1  #important for SAPT in psi4, default
}

set PROPERTIES_ORIGIN ["COM"]
properties('MP2/aug-cc-pvtz', properties = ['dipole'])
--------------------------------------------------------------------------

    Molecular point group: c1
  Charge       = 0
  Multiplicity = 1
  Basis Set: AUG-CC-PVTZ
    Blend: AUG-CC-PVTZ
  Basis Set: (AUG-CC-PVTZ AUX)
    Blend: AUG-CC-PVTZ-JKFIT

    Orbital Energies [Eh]
    ---------------------

    Doubly Occupied:

       1A    -20.515615     2A    -15.576804     3A    -11.353464
       4A    -11.273523     5A    -11.259485     6A    -11.249802
       7A    -11.249497     8A    -11.247087     9A    -11.242676
      10A    -11.241669    11A    -11.240817    12A    -11.240045
      13A     -1.368309    14A     -1.230300    15A     -1.165911
      16A     -1.084163    17A     -1.037168    18A     -1.020747
      19A     -0.938309    20A     -0.883004    21A     -0.844182
      22A     -0.800923    23A     -0.780822    24A     -0.701262
      25A     -0.677257    26A     -0.672955    27A     -0.653862
      28A     -0.623126    29A     -0.618230    30A     -0.601125
      31A     -0.586288    32A     -0.580585    33A     -0.555578
      34A     -0.537666    35A     -0.519196    36A     -0.512110
      37A     -0.492960    38A     -0.491537    39A     -0.479294
      40A     -0.422293    41A     -0.385070    42A     -0.345105
      43A     -0.337040

  @DF-RHF Final Energy:  -514.59203035314135

   => Energetics <=

    Nuclear Repulsion Energy =            683.7839981870982911
    One-Electron Energy =               -2055.4783446647138589
    Two-Electron Energy =                 857.1023161244741004
    Total Energy =                       -514.5920303531413538
  Basis Set: (AUG-CC-PVTZ AUX)
    Blend: AUG-CC-PVTZ-RI
    Molecular point group: c1

    Geometry (in Angstrom), charge = 0, multiplicity = 1:

       Center              X                  Y                   Z               Mass
    ------------   -----------------  -----------------  -----------------  -----------------
         O            0.954821499061     2.458980771229    -0.657444024750    15.994914619570
         N            2.081238799061     0.722944371229     0.304873375250    14.003074004430
         C            0.769503499061    -1.610971228771    -0.871081024750    12.000000000000
         C            1.828842499061    -1.827063228771     0.218622975250    12.000000000000
         C           -0.436676500939    -0.848504228771    -0.382265024750    12.000000000000
         C            2.039770499061    -0.545658228771     1.025115975250    12.000000000000
         C           -0.352011500939     0.529122771229    -0.092139024750    12.000000000000
         C            0.924996499061     1.303460771229    -0.223843024750    12.000000000000
         C           -1.678291500939    -1.479062228771    -0.237653024750    12.000000000000
         C           -1.490518500939     1.247682771229     0.290823975250    12.000000000000
         C           -2.808140500939    -0.770278228771     0.173719975250    12.000000000000
         C           -2.715071500939     0.598835771229     0.434900975250    12.000000000000
         H            0.451420499061    -2.577572228771    -1.277754024750     1.007825032230
         H            1.229667499061    -1.057016228771    -1.696395024750     1.007825032230
         H            1.519612499061    -2.626387228771     0.903584975250     1.007825032230
         H            2.767443499061    -2.143748228771    -0.251200024750     1.007825032230
         H            1.242105499061    -0.444227228771     1.768929975250     1.007825032230
         H            2.986059499061    -0.581855228771     1.572716975250     1.007825032230
         H            2.892390499061     1.221480771229     0.155121975250     1.007825032230
         H           -1.762473500939    -2.540172228771    -0.467927024750     1.007825032230
         H           -1.395007500939     2.316195771229     0.466437975250     1.007825032230
         H           -3.761076500939    -1.283754228771     0.279521975250     1.007825032230
         H           -3.595156500939     1.158618771229     0.741949975250     1.007825032230

  Basis Set: AUG-CC-PVTZ
    Blend: AUG-CC-PVTZ
  Basis Set: (AUG-CC-PVTZ AUX)
    Blend: AUG-CC-PVTZ-JKFIT
	 Reference Energy          =    -514.5920303531413538 [Eh]
	 Singles Energy            =      -0.0000000000000000 [Eh]
	 Same-Spin Energy          =      -0.5581414801560332 [Eh]
	 Opposite-Spin Energy      =      -1.7438708203815025 [Eh]
	 Correlation Energy        =      -2.3020123005375357 [Eh]
	 Total Energy              =    -516.8940426536788664 [Eh]

	 ================> DF-SCS-MP2 Energies <==================
	-----------------------------------------------------------
	 SCS Same-Spin Scale       =       0.3333333333333333 [-]
	 SCS Opposite-Spin Scale   =       1.2000000000000000 [-]
	 SCS Same-Spin Energy      =      -0.1860471600520111 [Eh]
	 SCS Opposite-Spin Energy  =      -2.0926449844578028 [Eh]
	 SCS Correlation Energy    =      -2.2786921445098138 [Eh]
	 SCS Total Energy          =    -516.8707224976511725 [Eh]
	-----------------------------------------------------------

  Dipole Moment: [D]
     X:     0.5146      Y:    -3.7465      Z:     1.4926     Total:     4.0656

*** Psi4 exiting successfully. Buy a developer a beer!
