                               Psi4 1.4a3.dev225

  ==> Input File <==

--------------------------------------------------------------------------
#psi4
#
memory 32 gb

molecule  {
0 1
  O        0.9417500     2.5148810    -0.6596880
  N        2.0463840     0.6978680     0.1749460
  C        0.7564320    -1.5550710    -0.8733250
  C        1.8157710    -1.7711630     0.2163790
  C       -0.4497480    -0.7926040    -0.3845090
  C        2.0266990    -0.4897580     1.0228720
  C       -0.3650830     0.5850230    -0.0943830
  C        0.9119250     1.3593610    -0.2260870
  C       -1.6913630    -1.4231620    -0.2398970
  C       -1.5035900     1.3035830     0.2885800
  C       -2.8212120    -0.7143780     0.1714760
  C       -2.7281430     0.6547360     0.4326570
  H        0.4383490    -2.5216720    -1.2799980
  H        1.2165960    -1.0011160    -1.6986390
  H        1.5009040    -2.5850581     0.9138273
  H        2.7543720    -2.0878480    -0.2534440
  H        1.2290340    -0.3883270     1.7666860
  H        2.9729880    -0.5259550     1.5704730
  H        2.8793190     1.2773810     0.1528780
  H       -1.7755450    -2.4842720    -0.4701710
  H       -1.4080790     2.3720960     0.4641940
  H       -3.7741480    -1.2278540     0.2772780
  H       -3.6082280     1.2145190     0.7397060
units angstrom
no_reorient  #important for SAPT in psi4, default
symmetry c1  #important for SAPT in psi4, default
}

set PROPERTIES_ORIGIN ["COM"]
properties('MP2/aug-cc-pvtz', properties = ['dipole'])
--------------------------------------------------------------------------

    Molecular point group: c1
  Charge       = 0
  Multiplicity = 1
  Basis Set: AUG-CC-PVTZ
    Blend: AUG-CC-PVTZ
  Basis Set: (AUG-CC-PVTZ AUX)
    Blend: AUG-CC-PVTZ-JKFIT

    Orbital Energies [Eh]
    ---------------------

    Doubly Occupied:

       1A    -20.515260     2A    -15.582891     3A    -11.351572
       4A    -11.275965     5A    -11.258343     6A    -11.248838
       7A    -11.247245     8A    -11.245575     9A    -11.241787
      10A    -11.240546    11A    -11.239862    12A    -11.239427
      13A     -1.369172    14A     -1.234972    15A     -1.164251
      16A     -1.081928    17A     -1.036729    18A     -1.020379
      19A     -0.938475    20A     -0.881366    21A     -0.840686
      22A     -0.797617    23A     -0.776449    24A     -0.696807
      25A     -0.685564    26A     -0.671930    27A     -0.652303
      28A     -0.623318    29A     -0.616056    30A     -0.599771
      31A     -0.587097    32A     -0.576202    33A     -0.556909
      34A     -0.535589    35A     -0.517956    36A     -0.509880
      37A     -0.492941    38A     -0.489050    39A     -0.478377
      40A     -0.423462    41A     -0.389603    42A     -0.343903
      43A     -0.336181

  @DF-RHF Final Energy:  -514.59612485795321

   => Energetics <=

    Nuclear Repulsion Energy =            685.0219166983873720
    One-Electron Energy =               -2058.0116146329337425
    Two-Electron Energy =                 858.3935730765930430
    Total Energy =                       -514.5961248579532139
  Basis Set: (AUG-CC-PVTZ AUX)
    Blend: AUG-CC-PVTZ-RI
    Molecular point group: c1

    Geometry (in Angstrom), charge = 0, multiplicity = 1:

       Center              X                  Y                   Z               Mass
    ------------   -----------------  -----------------  -----------------  -----------------
         O            0.956750394223     2.466111249648    -0.646422598733    15.994914619570
         N            2.061384394223     0.649098249648     0.188211401267    14.003074004430
         C            0.771432394223    -1.603840750352    -0.860059598733    12.000000000000
         C            1.830771394223    -1.819932750352     0.229644401267    12.000000000000
         C           -0.434747605777    -0.841373750352    -0.371243598733    12.000000000000
         C            2.041699394223    -0.538527750352     1.036137401267    12.000000000000
         C           -0.350082605777     0.536253249648    -0.081117598733    12.000000000000
         C            0.926925394223     1.310591249648    -0.212821598733    12.000000000000
         C           -1.676362605777    -1.471931750352    -0.226631598733    12.000000000000
         C           -1.488589605777     1.254813249648     0.301845401267    12.000000000000
         C           -2.806211605777    -0.763147750352     0.184741401267    12.000000000000
         C           -2.713142605777     0.605966249648     0.445922401267    12.000000000000
         H            0.453349394223    -2.570441750352    -1.266732598733     1.007825032230
         H            1.231596394223    -1.049885750352    -1.685373598733     1.007825032230
         H            1.515904394223    -2.633827850352     0.927092701267     1.007825032230
         H            2.769372394223    -2.136617750352    -0.240178598733     1.007825032230
         H            1.244034394223    -0.437096750352     1.779951401267     1.007825032230
         H            2.987988394223    -0.574724750352     1.583738401267     1.007825032230
         H            2.894319394223     1.228611249648     0.166143401267     1.007825032230
         H           -1.760544605777    -2.533041750352    -0.456905598733     1.007825032230
         H           -1.393078605777     2.323326249648     0.477459401267     1.007825032230
         H           -3.759147605777    -1.276623750352     0.290543401267     1.007825032230
         H           -3.593227605777     1.165749249648     0.752971401267     1.007825032230

  Basis Set: AUG-CC-PVTZ
    Blend: AUG-CC-PVTZ
  Basis Set: (AUG-CC-PVTZ AUX)
    Blend: AUG-CC-PVTZ-JKFIT
	 Reference Energy          =    -514.5961248579532139 [Eh]
	 Singles Energy            =      -0.0000000000000000 [Eh]
	 Same-Spin Energy          =      -0.5586531090380278 [Eh]
	 Opposite-Spin Energy      =      -1.7445175919343741 [Eh]
	 Correlation Energy        =      -2.3031707009724016 [Eh]
	 Total Energy              =    -516.8992955589255871 [Eh]

	 ================> DF-SCS-MP2 Energies <==================
	-----------------------------------------------------------
	 SCS Same-Spin Scale       =       0.3333333333333333 [-]
	 SCS Opposite-Spin Scale   =       1.2000000000000000 [-]
	 SCS Same-Spin Energy      =      -0.1862177030126759 [Eh]
	 SCS Opposite-Spin Energy  =      -2.0934211103212488 [Eh]
	 SCS Correlation Energy    =      -2.2796388133339245 [Eh]
	 SCS Total Energy          =    -516.8757636712871317 [Eh]
	-----------------------------------------------------------

  Dipole Moment: [D]
     X:     0.6275      Y:    -3.6038      Z:     1.7605     Total:     4.0596

*** Psi4 exiting successfully. Buy a developer a beer!
