                               Psi4 1.3.2 release

  ==> Input File <==

--------------------------------------------------------------------------
#psi4
#
memory 32 gb

molecule  {
0 1
  O        0.9417500     2.5148810    -0.6596880
  N        2.0463840     0.6978680     0.1749460
  C        0.7564320    -1.5550710    -0.8733250
  C        1.8157710    -1.7711630     0.2163790
  C       -0.4497480    -0.7926040    -0.3845090
  C        2.0266990    -0.4897580     1.0228720
  C       -0.3650830     0.5850230    -0.0943830
  C        0.9119250     1.3593610    -0.2260870
  C       -1.6913630    -1.4231620    -0.2398970
  C       -1.5035900     1.3035830     0.2885800
  C       -2.8212120    -0.7143780     0.1714760
  C       -2.7281430     0.6547360     0.4326570
  H        0.4383490    -2.5216720    -1.2799980
  H        1.3006185    -0.8999680    -1.8493351
  H        1.5065410    -2.5704870     0.9013410
  H        2.7543720    -2.0878480    -0.2534440
  H        1.2290340    -0.3883270     1.7666860
  H        2.9729880    -0.5259550     1.5704730
  H        2.8793190     1.2773810     0.1528780
  H       -1.7755450    -2.4842720    -0.4701710
  H       -1.4080790     2.3720960     0.4641940
  H       -3.7741480    -1.2278540     0.2772780
  H       -3.6082280     1.2145190     0.7397060
units angstrom
no_reorient  #important for SAPT in psi4, default
symmetry c1  #important for SAPT in psi4, default
}

set PROPERTIES_ORIGIN ["COM"]
properties('MP2/aug-cc-pvtz', properties = ['dipole'])
--------------------------------------------------------------------------

    Molecular point group: c1
  Charge       = 0
  Multiplicity = 1
  Basis Set: AUG-CC-PVTZ
    Blend: AUG-CC-PVTZ
  Basis Set: (AUG-CC-PVTZ AUX)
    Blend: AUG-CC-PVTZ-JKFIT

    Orbital Energies [Eh]
    ---------------------

    Doubly Occupied:

       1A    -20.515062     2A    -15.582167     3A    -11.351315
       4A    -11.276249     5A    -11.261259     6A    -11.259848
       7A    -11.249521     8A    -11.247814     9A    -11.246029
      10A    -11.243148    11A    -11.240633    12A    -11.240023
      13A     -1.368870    14A     -1.234441    15A     -1.164641
      16A     -1.079500    17A     -1.037310    18A     -1.021583
      19A     -0.932658    20A     -0.882078    21A     -0.841341
      22A     -0.793558    23A     -0.775124    24A     -0.695781
      25A     -0.686064    26A     -0.670811    27A     -0.646757
      28A     -0.623850    29A     -0.615349    30A     -0.600632
      31A     -0.587309    32A     -0.570278    33A     -0.557922
      34A     -0.530629    35A     -0.517837    36A     -0.509955
      37A     -0.494408    38A     -0.483605    39A     -0.469525
      40A     -0.423179    41A     -0.388762    42A     -0.344415
      43A     -0.335570

  @DF-RHF Final Energy:  -514.57629007303058

   => Energetics <=

    Nuclear Repulsion Energy =            684.2463246626713271
    One-Electron Energy =               -2056.4516091238933768
    Two-Electron Energy =                 857.6289943881915860
    Total Energy =                       -514.5762900730305773
  Basis Set: (AUG-CC-PVTZ AUX)
    Blend: AUG-CC-PVTZ-RI
    Molecular point group: c1

    Geometry (in Angstrom), charge = 0, multiplicity = 1:

       Center              X                  Y                   Z               Mass
    ------------   -----------------  -----------------  -----------------  -----------------
         O            0.956189438122     2.465387251241    -0.645401645428    15.994914619570
         N            2.060823438122     0.648374251241     0.189232354572    14.003074004430
         C            0.770871438122    -1.604564748759    -0.859038645428    12.000000000000
         C            1.830210438122    -1.820656748759     0.230665354572    12.000000000000
         C           -0.435308561878    -0.842097748759    -0.370222645428    12.000000000000
         C            2.041138438122    -0.539251748759     1.037158354572    12.000000000000
         C           -0.350643561878     0.535529251241    -0.080096645428    12.000000000000
         C            0.926364438122     1.309867251241    -0.211800645428    12.000000000000
         C           -1.676923561878    -1.472655748759    -0.225610645428    12.000000000000
         C           -1.489150561878     1.254089251241     0.302866354572    12.000000000000
         C           -2.806772561878    -0.763871748759     0.185762354572    12.000000000000
         C           -2.713703561878     0.605242251241     0.446943354572    12.000000000000
         H            0.452788438122    -2.571165748759    -1.265711645428     1.007825032230
         H            1.315057938122    -0.949461748759    -1.835048745428     1.007825032230
         H            1.520980438122    -2.619980748759     0.915627354572     1.007825032230
         H            2.768811438122    -2.137341748759    -0.239157645428     1.007825032230
         H            1.243473438122    -0.437820748759     1.780972354572     1.007825032230
         H            2.987427438122    -0.575448748759     1.584759354572     1.007825032230
         H            2.893758438122     1.227887251241     0.167164354572     1.007825032230
         H           -1.761105561878    -2.533765748759    -0.455884645428     1.007825032230
         H           -1.393639561878     2.322602251241     0.478480354572     1.007825032230
         H           -3.759708561878    -1.277347748759     0.291564354572     1.007825032230
         H           -3.593788561878     1.165025251241     0.753992354572     1.007825032230

  Basis Set: AUG-CC-PVTZ
    Blend: AUG-CC-PVTZ
  Basis Set: (AUG-CC-PVTZ AUX)
    Blend: AUG-CC-PVTZ-JKFIT
	 Reference Energy          =    -514.5762900730305773 [Eh]
	 Singles Energy            =      -0.0000000000000000 [Eh]
	 Same-Spin Energy          =      -0.5590092272865523 [Eh]
	 Opposite-Spin Energy      =      -1.7463595380975803 [Eh]
	 Correlation Energy        =      -2.3053687653841326 [Eh]
	 Total Energy              =    -516.8816588384147508 [Eh]

	 ================> DF-SCS-MP2 Energies <==================
	-----------------------------------------------------------
	 SCS Same-Spin Scale       =       0.3333333333333333 [-]
	 SCS Opposite-Spin Scale   =       1.2000000000000000 [-]
	 SCS Same-Spin Energy      =      -0.1863364090955174 [Eh]
	 SCS Opposite-Spin Energy  =      -2.0956314457170961 [Eh]
	 SCS Correlation Energy    =      -2.2819678548126134 [Eh]
	 SCS Total Energy          =    -516.8582579278431695 [Eh]
	-----------------------------------------------------------

  Dipole Moment: [D]
     X:     0.5792      Y:    -3.6289      Z:     1.8737     Total:     4.1249

*** Psi4 exiting successfully. Buy a developer a beer!
