                               Psi4 1.3.2 release

  ==> Input File <==

--------------------------------------------------------------------------
#psi4
#
memory 32 gb

molecule  {
0 1
  O        0.9417500     2.5148810    -0.6596880
  N        2.0463840     0.6978680     0.1749460
  C        0.7564320    -1.5550710    -0.8733250
  C        1.8157710    -1.7711630     0.2163790
  C       -0.4651309    -0.8126392    -0.3919247
  C        2.0266990    -0.4897580     1.0228720
  C       -0.3650830     0.5850230    -0.0943830
  C        0.9119250     1.3593610    -0.2260870
  C       -1.6913630    -1.4231620    -0.2398970
  C       -1.5035900     1.3035830     0.2885800
  C       -2.8212120    -0.7143780     0.1714760
  C       -2.7281430     0.6547360     0.4326570
  H        0.4383490    -2.5216720    -1.2799980
  H        1.2165960    -1.0011160    -1.6986390
  H        1.5065410    -2.5704870     0.9013410
  H        2.7543720    -2.0878480    -0.2534440
  H        1.2290340    -0.3883270     1.7666860
  H        2.9729880    -0.5259550     1.5704730
  H        2.8793190     1.2773810     0.1528780
  H       -1.7755450    -2.4842720    -0.4701710
  H       -1.4080790     2.3720960     0.4641940
  H       -3.7741480    -1.2278540     0.2772780
  H       -3.6082280     1.2145190     0.7397060
units angstrom
no_reorient  #important for SAPT in psi4, default
symmetry c1  #important for SAPT in psi4, default
}

set PROPERTIES_ORIGIN ["COM"]
properties('MP2/aug-cc-pvtz', properties = ['dipole'])
--------------------------------------------------------------------------

    Molecular point group: c1
  Charge       = 0
  Multiplicity = 1
  Basis Set: AUG-CC-PVTZ
    Blend: AUG-CC-PVTZ
  Basis Set: (AUG-CC-PVTZ AUX)
    Blend: AUG-CC-PVTZ-JKFIT

    Orbital Energies [Eh]
    ---------------------

    Doubly Occupied:

       1A    -20.515108     2A    -15.582601     3A    -11.351704
       4A    -11.275728     5A    -11.258001     6A    -11.249146
       7A    -11.248706     8A    -11.245827     9A    -11.240014
      10A    -11.239512    11A    -11.239229    12A    -11.238086
      13A     -1.368964    14A     -1.234546    15A     -1.164255
      16A     -1.082214    17A     -1.035046    18A     -1.022807
      19A     -0.938432    20A     -0.882751    21A     -0.840380
      22A     -0.797052    23A     -0.776787    24A     -0.697449
      25A     -0.685295    26A     -0.672152    27A     -0.652375
      28A     -0.622587    29A     -0.616317    30A     -0.600112
      31A     -0.586798    32A     -0.576850    33A     -0.556615
      34A     -0.535920    35A     -0.519549    36A     -0.509883
      37A     -0.491528    38A     -0.490078    39A     -0.477897
      40A     -0.423773    41A     -0.389326    42A     -0.344628
      43A     -0.335693

  @DF-RHF Final Energy:  -514.59581663903577

   => Energetics <=

    Nuclear Repulsion Energy =            684.8832637113879400
    One-Electron Energy =               -2057.7347147256145945
    Two-Electron Energy =                 858.2556343751909935
    Total Energy =                       -514.5958166390357746
  Basis Set: (AUG-CC-PVTZ AUX)
    Blend: AUG-CC-PVTZ-RI
    Molecular point group: c1

    Geometry (in Angstrom), charge = 0, multiplicity = 1:

       Center              X                  Y                   Z               Mass
    ------------   -----------------  -----------------  -----------------  -----------------
         O            0.957861079451     2.467512612856    -0.645792043462    15.994914619570
         N            2.062495079451     0.650499612856     0.188841956538    14.003074004430
         C            0.772543079451    -1.602439387144    -0.859429043462    12.000000000000
         C            1.831882079451    -1.818531387144     0.230274956538    12.000000000000
         C           -0.449019820549    -0.860007587144    -0.378028743462    12.000000000000
         C            2.042810079451    -0.537126387144     1.036767956538    12.000000000000
         C           -0.348971920549     0.537654612856    -0.080487043462    12.000000000000
         C            0.928036079451     1.311992612856    -0.212191043462    12.000000000000
         C           -1.675251920549    -1.470530387144    -0.226001043462    12.000000000000
         C           -1.487478920549     1.256214612856     0.302475956538    12.000000000000
         C           -2.805100920549    -0.761746387144     0.185371956538    12.000000000000
         C           -2.712031920549     0.607367612856     0.446552956538    12.000000000000
         H            0.454460079451    -2.569040387144    -1.266102043462     1.007825032230
         H            1.232707079451    -1.048484387144    -1.684743043462     1.007825032230
         H            1.522652079451    -2.617855387144     0.915236956538     1.007825032230
         H            2.770483079451    -2.135216387144    -0.239548043462     1.007825032230
         H            1.245145079451    -0.435695387144     1.780581956538     1.007825032230
         H            2.989099079451    -0.573323387144     1.584368956538     1.007825032230
         H            2.895430079451     1.230012612856     0.166773956538     1.007825032230
         H           -1.759433920549    -2.531640387144    -0.456275043462     1.007825032230
         H           -1.391967920549     2.324727612856     0.478089956538     1.007825032230
         H           -3.758036920549    -1.275222387144     0.291173956538     1.007825032230
         H           -3.592116920549     1.167150612856     0.753601956538     1.007825032230

  Basis Set: AUG-CC-PVTZ
    Blend: AUG-CC-PVTZ
  Basis Set: (AUG-CC-PVTZ AUX)
    Blend: AUG-CC-PVTZ-JKFIT
	 Reference Energy          =    -514.5958166390357746 [Eh]
	 Singles Energy            =      -0.0000000000000000 [Eh]
	 Same-Spin Energy          =      -0.5586085374226272 [Eh]
	 Opposite-Spin Energy      =      -1.7443784120717241 [Eh]
	 Correlation Energy        =      -2.3029869494943513 [Eh]
	 Total Energy              =    -516.8988035885300860 [Eh]

	 ================> DF-SCS-MP2 Energies <==================
	-----------------------------------------------------------
	 SCS Same-Spin Scale       =       0.3333333333333333 [-]
	 SCS Opposite-Spin Scale   =       1.2000000000000000 [-]
	 SCS Same-Spin Energy      =      -0.1862028458075424 [Eh]
	 SCS Opposite-Spin Energy  =      -2.0932540944860687 [Eh]
	 SCS Correlation Energy    =      -2.2794569402936111 [Eh]
	 SCS Total Energy          =    -516.8752735793293596 [Eh]
	-----------------------------------------------------------

  Dipole Moment: [D]
     X:     0.6305      Y:    -3.6074      Z:     1.7745     Total:     4.0693

*** Psi4 exiting successfully. Buy a developer a beer!
