                               Psi4 1.3.2 release

  ==> Input File <==

--------------------------------------------------------------------------
#psi4
#
memory 32 gb

molecule  {
0 1
  O        0.9417500     2.5148810    -0.6596880
  N        2.0463840     0.6978680     0.1749460
  C        0.7564320    -1.5550710    -0.8733250
  C        1.8157710    -1.7711630     0.2163790
  C       -0.4497480    -0.7926040    -0.3845090
  C        2.0521370    -0.4906051     1.0218935
  C       -0.3650830     0.5850230    -0.0943830
  C        0.9119250     1.3593610    -0.2260870
  C       -1.6913630    -1.4231620    -0.2398970
  C       -1.5035900     1.3035830     0.2885800
  C       -2.8212120    -0.7143780     0.1714760
  C       -2.7281430     0.6547360     0.4326570
  H        0.4383490    -2.5216720    -1.2799980
  H        1.2165960    -1.0011160    -1.6986390
  H        1.5065410    -2.5704870     0.9013410
  H        2.7543720    -2.0878480    -0.2534440
  H        1.2290340    -0.3883270     1.7666860
  H        2.9729880    -0.5259550     1.5704730
  H        2.8793190     1.2773810     0.1528780
  H       -1.7755450    -2.4842720    -0.4701710
  H       -1.4080790     2.3720960     0.4641940
  H       -3.7741480    -1.2278540     0.2772780
  H       -3.6082280     1.2145190     0.7397060
units angstrom
no_reorient  #important for SAPT in psi4, default
symmetry c1  #important for SAPT in psi4, default
}

set PROPERTIES_ORIGIN ["COM"]
properties('MP2/aug-cc-pvtz', properties = ['dipole'])
--------------------------------------------------------------------------

    Molecular point group: c1
  Charge       = 0
  Multiplicity = 1
  Basis Set: AUG-CC-PVTZ
    Blend: AUG-CC-PVTZ
  Basis Set: (AUG-CC-PVTZ AUX)
    Blend: AUG-CC-PVTZ-JKFIT

    Orbital Energies [Eh]
    ---------------------

    Doubly Occupied:

       1A    -20.515303     2A    -15.582742     3A    -11.351973
       4A    -11.275893     5A    -11.258269     6A    -11.248751
       7A    -11.247127     8A    -11.245465     9A    -11.241663
      10A    -11.239731    11A    -11.239707    12A    -11.238042
      13A     -1.369135    14A     -1.234558    15A     -1.164155
      16A     -1.081905    17A     -1.036885    18A     -1.020590
      19A     -0.938829    20A     -0.882052    21A     -0.840870
      22A     -0.798259    23A     -0.775898    24A     -0.696861
      25A     -0.685626    26A     -0.671644    27A     -0.654119
      28A     -0.622990    29A     -0.616550    30A     -0.599794
      31A     -0.587351    32A     -0.575271    33A     -0.557166
      34A     -0.536377    35A     -0.516964    36A     -0.510178
      37A     -0.494550    38A     -0.490014    39A     -0.477735
      40A     -0.423746    41A     -0.388391    42A     -0.343808
      43A     -0.336011

  @DF-RHF Final Energy:  -514.59601452113327

   => Energetics <=

    Nuclear Repulsion Energy =            684.8257539780527168
    One-Electron Energy =               -2057.6176406937915999
    Two-Electron Energy =                 858.1958721946056130
    Total Energy =                       -514.5960145211332701
  Basis Set: (AUG-CC-PVTZ AUX)
    Blend: AUG-CC-PVTZ-RI
    Molecular point group: c1

    Geometry (in Angstrom), charge = 0, multiplicity = 1:

       Center              X                  Y                   Z               Mass
    ------------   -----------------  -----------------  -----------------  -----------------
         O            0.954820115696     2.466083190265    -0.646271584380    15.994914619570
         N            2.059454115696     0.649070190265     0.188362415620    14.003074004430
         C            0.769502115696    -1.603868809735    -0.859908584380    12.000000000000
         C            1.828841115696    -1.819960809735     0.229795415620    12.000000000000
         C           -0.436677884304    -0.841401809735    -0.371092584380    12.000000000000
         C            2.065207115696    -0.539402909735     1.035309915620    12.000000000000
         C           -0.352012884304     0.536225190265    -0.080966584380    12.000000000000
         C            0.924995115696     1.310563190265    -0.212670584380    12.000000000000
         C           -1.678292884304    -1.471959809735    -0.226480584380    12.000000000000
         C           -1.490519884304     1.254785190265     0.301996415620    12.000000000000
         C           -2.808141884304    -0.763175809735     0.184892415620    12.000000000000
         C           -2.715072884304     0.605938190265     0.446073415620    12.000000000000
         H            0.451419115696    -2.570469809735    -1.266581584380     1.007825032230
         H            1.229666115696    -1.049913809735    -1.685222584380     1.007825032230
         H            1.519611115696    -2.619284809735     0.914757415620     1.007825032230
         H            2.767442115696    -2.136645809735    -0.240027584380     1.007825032230
         H            1.242104115696    -0.437124809735     1.780102415620     1.007825032230
         H            2.986058115696    -0.574752809735     1.583889415620     1.007825032230
         H            2.892389115696     1.228583190265     0.166294415620     1.007825032230
         H           -1.762474884304    -2.533069809735    -0.456754584380     1.007825032230
         H           -1.395008884304     2.323298190265     0.477610415620     1.007825032230
         H           -3.761077884304    -1.276651809735     0.290694415620     1.007825032230
         H           -3.595157884304     1.165721190265     0.753122415620     1.007825032230

  Basis Set: AUG-CC-PVTZ
    Blend: AUG-CC-PVTZ
  Basis Set: (AUG-CC-PVTZ AUX)
    Blend: AUG-CC-PVTZ-JKFIT
	 Reference Energy          =    -514.5960145211332701 [Eh]
	 Singles Energy            =      -0.0000000000000000 [Eh]
	 Same-Spin Energy          =      -0.5586011013602268 [Eh]
	 Opposite-Spin Energy      =      -1.7443312879477195 [Eh]
	 Correlation Energy        =      -2.3029323893079461 [Eh]
	 Total Energy              =    -516.8989469104411683 [Eh]

	 ================> DF-SCS-MP2 Energies <==================
	-----------------------------------------------------------
	 SCS Same-Spin Scale       =       0.3333333333333333 [-]
	 SCS Opposite-Spin Scale   =       1.2000000000000000 [-]
	 SCS Same-Spin Energy      =      -0.1862003671200756 [Eh]
	 SCS Opposite-Spin Energy  =      -2.0931975455372633 [Eh]
	 SCS Correlation Energy    =      -2.2793979126573389 [Eh]
	 SCS Total Energy          =    -516.8754124337906433 [Eh]
	-----------------------------------------------------------

  Dipole Moment: [D]
     X:     0.6466      Y:    -3.6141      Z:     1.7635     Total:     4.0731

*** Psi4 exiting successfully. Buy a developer a beer!
