                               Psi4 1.3.2 release

  ==> Input File <==

--------------------------------------------------------------------------
#psi4
#
memory 32 gb

molecule  {
0 1
  O        0.9417500     2.5148810    -0.6596880
  N        2.0463840     0.6978680     0.1749460
  C        0.7564320    -1.5550710    -0.8733250
  C        1.8157710    -1.7711630     0.2163790
  C       -0.4497480    -0.7926040    -0.3845090
  C        2.0266990    -0.4897580     1.0228720
  C       -0.3650830     0.5850230    -0.0943830
  C        0.9119250     1.3593610    -0.2260870
  C       -1.6913630    -1.4231620    -0.2398970
  C       -1.5035900     1.3035830     0.2885800
  C       -2.8212120    -0.7143780     0.1714760
  C       -2.7281430     0.6547360     0.4326570
  H        0.4383490    -2.5216720    -1.2799980
  H        1.2165960    -1.0011160    -1.6986390
  H        1.5347261    -2.4976317     0.8389094
  H        2.7543720    -2.0878480    -0.2534440
  H        1.2290340    -0.3883270     1.7666860
  H        2.9729880    -0.5259550     1.5704730
  H        2.8793190     1.2773810     0.1528780
  H       -1.7755450    -2.4842720    -0.4701710
  H       -1.4080790     2.3720960     0.4641940
  H       -3.7741480    -1.2278540     0.2772780
  H       -3.6082280     1.2145190     0.7397060
units angstrom
no_reorient  #important for SAPT in psi4, default
symmetry c1  #important for SAPT in psi4, default
}

set PROPERTIES_ORIGIN ["COM"]
properties('MP2/aug-cc-pvtz', properties = ['dipole'])
--------------------------------------------------------------------------

    Molecular point group: c1
  Charge       = 0
  Multiplicity = 1
  Basis Set: AUG-CC-PVTZ
    Blend: AUG-CC-PVTZ
  Basis Set: (AUG-CC-PVTZ AUX)
    Blend: AUG-CC-PVTZ-JKFIT

    Orbital Energies [Eh]
    ---------------------

    Doubly Occupied:

       1A    -20.514721     2A    -15.582090     3A    -11.351052
       4A    -11.275073     5A    -11.258070     6A    -11.248689
       7A    -11.246933     8A    -11.245361     9A    -11.241582
      10A    -11.239642    11A    -11.238428    12A    -11.225414
      13A     -1.368638    14A     -1.234370    15A     -1.164035
      16A     -1.084778    17A     -1.037121    18A     -1.022316
      19A     -0.937871    20A     -0.883307    21A     -0.845317
      22A     -0.801887    23A     -0.776055    24A     -0.697307
      25A     -0.686428    26A     -0.673045    27A     -0.653856
      28A     -0.624019    29A     -0.616419    30A     -0.600771
      31A     -0.587825    32A     -0.577018    33A     -0.557695
      34A     -0.537738    35A     -0.521895    36A     -0.509758
      37A     -0.493597    38A     -0.492134    39A     -0.478186
      40A     -0.423064    41A     -0.388825    42A     -0.343727
      43A     -0.335853

  @DF-RHF Final Energy:  -514.59095014243894

   => Energetics <=

    Nuclear Repulsion Energy =            685.6554425900467322
    One-Electron Energy =               -2059.2489664413319588
    Two-Electron Energy =                 859.0025737088462847
    Total Energy =                       -514.5909501424389418
  Basis Set: (AUG-CC-PVTZ AUX)
    Blend: AUG-CC-PVTZ-RI
    Molecular point group: c1

    Geometry (in Angstrom), charge = 0, multiplicity = 1:

       Center              X                  Y                   Z               Mass
    ------------   -----------------  -----------------  -----------------  -----------------
         O            0.956538785711     2.465564264973    -0.645953873689    15.994914619570
         N            2.061172785711     0.648551264973     0.188680126311    14.003074004430
         C            0.771220785711    -1.604387735027    -0.859590873689    12.000000000000
         C            1.830559785711    -1.820479735027     0.230113126311    12.000000000000
         C           -0.434959214289    -0.841920735027    -0.370774873689    12.000000000000
         C            2.041487785711    -0.539074735027     1.036606126311    12.000000000000
         C           -0.350294214289     0.535706264973    -0.080648873689    12.000000000000
         C            0.926713785711     1.310044264973    -0.212352873689    12.000000000000
         C           -1.676574214289    -1.472478735027    -0.226162873689    12.000000000000
         C           -1.488801214289     1.254266264973     0.302314126311    12.000000000000
         C           -2.806423214289    -0.763694735027     0.185210126311    12.000000000000
         C           -2.713354214289     0.605419264973     0.446391126311    12.000000000000
         H            0.453137785711    -2.570988735027    -1.266263873689     1.007825032230
         H            1.231384785711    -1.050432735027    -1.684904873689     1.007825032230
         H            1.549514885711    -2.546948435027     0.852643526311     1.007825032230
         H            2.769160785711    -2.137164735027    -0.239709873689     1.007825032230
         H            1.243822785711    -0.437643735027     1.780420126311     1.007825032230
         H            2.987776785711    -0.575271735027     1.584207126311     1.007825032230
         H            2.894107785711     1.228064264973     0.166612126311     1.007825032230
         H           -1.760756214289    -2.533588735027    -0.456436873689     1.007825032230
         H           -1.393290214289     2.322779264973     0.477928126311     1.007825032230
         H           -3.759359214289    -1.277170735027     0.291012126311     1.007825032230
         H           -3.593439214289     1.165202264973     0.753440126311     1.007825032230

  Basis Set: AUG-CC-PVTZ
    Blend: AUG-CC-PVTZ
  Basis Set: (AUG-CC-PVTZ AUX)
    Blend: AUG-CC-PVTZ-JKFIT
	 Reference Energy          =    -514.5909501424389418 [Eh]
	 Singles Energy            =      -0.0000000000000000 [Eh]
	 Same-Spin Energy          =      -0.5586288237469104 [Eh]
	 Opposite-Spin Energy      =      -1.7438252189659398 [Eh]
	 Correlation Energy        =      -2.3024540427128501 [Eh]
	 Total Energy              =    -516.8934041851517804 [Eh]

	 ================> DF-SCS-MP2 Energies <==================
	-----------------------------------------------------------
	 SCS Same-Spin Scale       =       0.3333333333333333 [-]
	 SCS Opposite-Spin Scale   =       1.2000000000000000 [-]
	 SCS Same-Spin Energy      =      -0.1862096079156368 [Eh]
	 SCS Opposite-Spin Energy  =      -2.0925902627591277 [Eh]
	 SCS Correlation Energy    =      -2.2787998706747645 [Eh]
	 SCS Total Energy          =    -516.8697500131137303 [Eh]
	-----------------------------------------------------------

  Dipole Moment: [D]
     X:     0.6403      Y:    -3.6653      Z:     1.8045     Total:     4.1353

*** Psi4 exiting successfully. Buy a developer a beer!
