                               Psi4 1.3.2 release

  ==> Input File <==

--------------------------------------------------------------------------
#psi4
#
memory 32 gb

molecule  {
0 1
  O        0.9417500     2.5148810    -0.6596880
  N        2.0696352     0.7034665     0.1837097
  C        0.7564320    -1.5550710    -0.8733250
  C        1.8157710    -1.7711630     0.2163790
  C       -0.4497480    -0.7926040    -0.3845090
  C        2.0266990    -0.4897580     1.0228720
  C       -0.3650830     0.5850230    -0.0943830
  C        0.9119250     1.3593610    -0.2260870
  C       -1.6913630    -1.4231620    -0.2398970
  C       -1.5035900     1.3035830     0.2885800
  C       -2.8212120    -0.7143780     0.1714760
  C       -2.7281430     0.6547360     0.4326570
  H        0.4383490    -2.5216720    -1.2799980
  H        1.2165960    -1.0011160    -1.6986390
  H        1.5065410    -2.5704870     0.9013410
  H        2.7543720    -2.0878480    -0.2534440
  H        1.2290340    -0.3883270     1.7666860
  H        2.9729880    -0.5259550     1.5704730
  H        2.8793190     1.2773810     0.1528780
  H       -1.7755450    -2.4842720    -0.4701710
  H       -1.4080790     2.3720960     0.4641940
  H       -3.7741480    -1.2278540     0.2772780
  H       -3.6082280     1.2145190     0.7397060
units angstrom
no_reorient  #important for SAPT in psi4, default
symmetry c1  #important for SAPT in psi4, default
}

set PROPERTIES_ORIGIN ["COM"]
properties('MP2/aug-cc-pvtz', properties = ['dipole'])
--------------------------------------------------------------------------

    Molecular point group: c1
  Charge       = 0
  Multiplicity = 1
  Basis Set: AUG-CC-PVTZ
    Blend: AUG-CC-PVTZ
  Basis Set: (AUG-CC-PVTZ AUX)
    Blend: AUG-CC-PVTZ-JKFIT

    Orbital Energies [Eh]
    ---------------------

    Doubly Occupied:

       1A    -20.517548     2A    -15.579848     3A    -11.353755
       4A    -11.274572     5A    -11.258851     6A    -11.249399
       7A    -11.248294     8A    -11.246416     9A    -11.242134
      10A    -11.240322    11A    -11.239365    12A    -11.237581
      13A     -1.369229    14A     -1.232039    15A     -1.164849
      16A     -1.082122    17A     -1.036999    18A     -1.020371
      19A     -0.937474    20A     -0.881618    21A     -0.841705
      22A     -0.798482    23A     -0.777243    24A     -0.698260
      25A     -0.684047    26A     -0.672658    27A     -0.651670
      28A     -0.624035    29A     -0.616165    30A     -0.600139
      31A     -0.586802    32A     -0.578168    33A     -0.556174
      34A     -0.535341    35A     -0.519135    36A     -0.510946
      37A     -0.492783    38A     -0.490317    39A     -0.478386
      40A     -0.423973    41A     -0.388677    42A     -0.344526
      43A     -0.336519

  @DF-RHF Final Energy:  -514.59603582293175

   => Energetics <=

    Nuclear Repulsion Energy =            684.5614881750950644
    One-Electron Energy =               -2057.0771759081967502
    Two-Electron Energy =                 857.9196519101699323
    Total Energy =                       -514.5960358229317535
  Basis Set: (AUG-CC-PVTZ AUX)
    Blend: AUG-CC-PVTZ-RI
    Molecular point group: c1

    Geometry (in Angstrom), charge = 0, multiplicity = 1:

       Center              X                  Y                   Z               Mass
    ------------   -----------------  -----------------  -----------------  -----------------
         O            0.954693894183     2.465533406459    -0.647106308414    15.994914619570
         N            2.082579094183     0.654118906459     0.196291391586    14.003074004430
         C            0.769375894183    -1.604418593541    -0.860743308414    12.000000000000
         C            1.828714894183    -1.820510593541     0.228960691586    12.000000000000
         C           -0.436804105817    -0.841951593541    -0.371927308414    12.000000000000
         C            2.039642894183    -0.539105593541     1.035453691586    12.000000000000
         C           -0.352139105817     0.535675406459    -0.081801308414    12.000000000000
         C            0.924868894183     1.310013406459    -0.213505308414    12.000000000000
         C           -1.678419105817    -1.472509593541    -0.227315308414    12.000000000000
         C           -1.490646105817     1.254235406459     0.301161691586    12.000000000000
         C           -2.808268105817    -0.763725593541     0.184057691586    12.000000000000
         C           -2.715199105817     0.605388406459     0.445238691586    12.000000000000
         H            0.451292894183    -2.571019593541    -1.267416308414     1.007825032230
         H            1.229539894183    -1.050463593541    -1.686057308414     1.007825032230
         H            1.519484894183    -2.619834593541     0.913922691586     1.007825032230
         H            2.767315894183    -2.137195593541    -0.240862308414     1.007825032230
         H            1.241977894183    -0.437674593541     1.779267691586     1.007825032230
         H            2.985931894183    -0.575302593541     1.583054691586     1.007825032230
         H            2.892262894183     1.228033406459     0.165459691586     1.007825032230
         H           -1.762601105817    -2.533619593541    -0.457589308414     1.007825032230
         H           -1.395135105817     2.322748406459     0.476775691586     1.007825032230
         H           -3.761204105817    -1.277201593541     0.289859691586     1.007825032230
         H           -3.595284105817     1.165171406459     0.752287691586     1.007825032230

  Basis Set: AUG-CC-PVTZ
    Blend: AUG-CC-PVTZ
  Basis Set: (AUG-CC-PVTZ AUX)
    Blend: AUG-CC-PVTZ-JKFIT
	 Reference Energy          =    -514.5960358229317535 [Eh]
	 Singles Energy            =      -0.0000000000000000 [Eh]
	 Same-Spin Energy          =      -0.5584702486194717 [Eh]
	 Opposite-Spin Energy      =      -1.7442810672197102 [Eh]
	 Correlation Energy        =      -2.3027513158391821 [Eh]
	 Total Energy              =    -516.8987871387708992 [Eh]

	 ================> DF-SCS-MP2 Energies <==================
	-----------------------------------------------------------
	 SCS Same-Spin Scale       =       0.3333333333333333 [-]
	 SCS Opposite-Spin Scale   =       1.2000000000000000 [-]
	 SCS Same-Spin Energy      =      -0.1861567495398239 [Eh]
	 SCS Opposite-Spin Energy  =      -2.0931372806636523 [Eh]
	 SCS Correlation Energy    =      -2.2792940302034763 [Eh]
	 SCS Total Energy          =    -516.8753298531352129 [Eh]
	-----------------------------------------------------------

  Dipole Moment: [D]
     X:     0.5312      Y:    -3.5712      Z:     1.7236     Total:     4.0008

*** Psi4 exiting successfully. Buy a developer a beer!
