                               Psi4 1.3.2 release

  ==> Input File <==

--------------------------------------------------------------------------
#psi4
#
memory 32 gb

molecule  {
0 1
  O        0.9417500     2.5148810    -0.6596880
  N        2.0463840     0.6978680     0.1749460
  C        0.8118021    -1.4659779    -0.8643279
  C        1.8157710    -1.7711630     0.2163790
  C       -0.4497480    -0.7926040    -0.3845090
  C        2.0266990    -0.4897580     1.0228720
  C       -0.3650830     0.5850230    -0.0943830
  C        0.9119250     1.3593610    -0.2260870
  C       -1.6913630    -1.4231620    -0.2398970
  C       -1.5035900     1.3035830     0.2885800
  C       -2.8212120    -0.7143780     0.1714760
  C       -2.7281430     0.6547360     0.4326570
  H        0.4383490    -2.5216720    -1.2799980
  H        1.2165960    -1.0011160    -1.6986390
  H        1.5065410    -2.5704870     0.9013410
  H        2.7543720    -2.0878480    -0.2534440
  H        1.2290340    -0.3883270     1.7666860
  H        2.9729880    -0.5259550     1.5704730
  H        2.8793190     1.2773810     0.1528780
  H       -1.7755450    -2.4842720    -0.4701710
  H       -1.4080790     2.3720960     0.4641940
  H       -3.7741480    -1.2278540     0.2772780
  H       -3.6082280     1.2145190     0.7397060
units angstrom
no_reorient  #important for SAPT in psi4, default
symmetry c1  #important for SAPT in psi4, default
}

set PROPERTIES_ORIGIN ["COM"]
properties('MP2/aug-cc-pvtz', properties = ['dipole'])
--------------------------------------------------------------------------

    Molecular point group: c1
  Charge       = 0
  Multiplicity = 1
  Basis Set: AUG-CC-PVTZ
    Blend: AUG-CC-PVTZ
  Basis Set: (AUG-CC-PVTZ AUX)
    Blend: AUG-CC-PVTZ-JKFIT

    Orbital Energies [Eh]
    ---------------------

    Doubly Occupied:

       1A    -20.515805     2A    -15.583131     3A    -11.351981
       4A    -11.274636     5A    -11.258593     6A    -11.249544
       7A    -11.246318     8A    -11.244959     9A    -11.243720
      10A    -11.241643    11A    -11.240521    12A    -11.237612
      13A     -1.369723    14A     -1.236353    15A     -1.164580
      16A     -1.085720    17A     -1.037827    18A     -1.021393
      19A     -0.937918    20A     -0.881064    21A     -0.844210
      22A     -0.797683    23A     -0.776884    24A     -0.698577
      25A     -0.684118    26A     -0.675314    27A     -0.654219
      28A     -0.621751    29A     -0.618878    30A     -0.600681
      31A     -0.588805    32A     -0.578505    33A     -0.553693
      34A     -0.538795    35A     -0.522259    36A     -0.510417
      37A     -0.497435    38A     -0.480430    39A     -0.467668
      40A     -0.424155    41A     -0.389996    42A     -0.344013
      43A     -0.338055

  @DF-RHF Final Energy:  -514.58369032521512

   => Energetics <=

    Nuclear Repulsion Energy =            686.2020269755116715
    One-Electron Energy =               -2060.3122721323729820
    Two-Electron Energy =                 859.5265548316461945
    Total Energy =                       -514.5836903252151160
  Basis Set: (AUG-CC-PVTZ AUX)
    Blend: AUG-CC-PVTZ-RI
    Molecular point group: c1

    Geometry (in Angstrom), charge = 0, multiplicity = 1:

       Center              X                  Y                   Z               Mass
    ------------   -----------------  -----------------  -----------------  -----------------
         O            0.952590315981     2.459383071251    -0.647014719344    15.994914619570
         N            2.057224315981     0.642370071251     0.187619280656    14.003074004430
         C            0.822642415981    -1.521475828749    -0.851654619344    12.000000000000
         C            1.826611315981    -1.826660928749     0.229052280656    12.000000000000
         C           -0.438907684019    -0.848101928749    -0.371835719344    12.000000000000
         C            2.037539315981    -0.545255928749     1.035545280656    12.000000000000
         C           -0.354242684019     0.529525071251    -0.081709719344    12.000000000000
         C            0.922765315981     1.303863071251    -0.213413719344    12.000000000000
         C           -1.680522684019    -1.478659928749    -0.227223719344    12.000000000000
         C           -1.492749684019     1.248085071251     0.301253280656    12.000000000000
         C           -2.810371684019    -0.769875928749     0.184149280656    12.000000000000
         C           -2.717302684019     0.599238071251     0.445330280656    12.000000000000
         H            0.449189315981    -2.577169928749    -1.267324719344     1.007825032230
         H            1.227436315981    -1.056613928749    -1.685965719344     1.007825032230
         H            1.517381315981    -2.625984928749     0.914014280656     1.007825032230
         H            2.765212315981    -2.143345928749    -0.240770719344     1.007825032230
         H            1.239874315981    -0.443824928749     1.779359280656     1.007825032230
         H            2.983828315981    -0.581452928749     1.583146280656     1.007825032230
         H            2.890159315981     1.221883071251     0.165551280656     1.007825032230
         H           -1.764704684019    -2.539769928749    -0.457497719344     1.007825032230
         H           -1.397238684019     2.316598071251     0.476867280656     1.007825032230
         H           -3.763307684019    -1.283351928749     0.289951280656     1.007825032230
         H           -3.597387684019     1.159021071251     0.752379280656     1.007825032230

  Basis Set: AUG-CC-PVTZ
    Blend: AUG-CC-PVTZ
  Basis Set: (AUG-CC-PVTZ AUX)
    Blend: AUG-CC-PVTZ-JKFIT
	 Reference Energy          =    -514.5836903252151160 [Eh]
	 Singles Energy            =      -0.0000000000000000 [Eh]
	 Same-Spin Energy          =      -0.5593463399724803 [Eh]
	 Opposite-Spin Energy      =      -1.7456288192469551 [Eh]
	 Correlation Energy        =      -2.3049751592194356 [Eh]
	 Total Energy              =    -516.8886654844345685 [Eh]

	 ================> DF-SCS-MP2 Energies <==================
	-----------------------------------------------------------
	 SCS Same-Spin Scale       =       0.3333333333333333 [-]
	 SCS Opposite-Spin Scale   =       1.2000000000000000 [-]
	 SCS Same-Spin Energy      =      -0.1864487799908268 [Eh]
	 SCS Opposite-Spin Energy  =      -2.0947545830963459 [Eh]
	 SCS Correlation Energy    =      -2.2812033630871724 [Eh]
	 SCS Total Energy          =    -516.8648936883023453 [Eh]
	-----------------------------------------------------------

  Dipole Moment: [D]
     X:     0.6299      Y:    -3.5410      Z:     1.7952     Total:     4.0197

*** Psi4 exiting successfully. Buy a developer a beer!
