                               Psi4 1.3.2 release

  ==> Input File <==

--------------------------------------------------------------------------
#psi4
#
memory 32 gb

molecule  {
0 1
  O        0.9417500     2.5148810    -0.6596880
  N        2.0463840     0.6978680     0.1749460
  C        0.7564320    -1.5550710    -0.8733250
  C        1.8157710    -1.7711630     0.2163790
  C       -0.4497480    -0.7926040    -0.3845090
  C        2.0266990    -0.4897580     1.0228720
  C       -0.3650830     0.5850230    -0.0943830
  C        0.7466842     1.4557115    -0.2844999
  C       -1.6913630    -1.4231620    -0.2398970
  C       -1.5035900     1.3035830     0.2885800
  C       -2.8212120    -0.7143780     0.1714760
  C       -2.7281430     0.6547360     0.4326570
  H        0.4383490    -2.5216720    -1.2799980
  H        1.2165960    -1.0011160    -1.6986390
  H        1.5065410    -2.5704870     0.9013410
  H        2.7543720    -2.0878480    -0.2534440
  H        1.2290340    -0.3883270     1.7666860
  H        2.9729880    -0.5259550     1.5704730
  H        2.8793190     1.2773810     0.1528780
  H       -1.7755450    -2.4842720    -0.4701710
  H       -1.4080790     2.3720960     0.4641940
  H       -3.7741480    -1.2278540     0.2772780
  H       -3.6082280     1.2145190     0.7397060
units angstrom
no_reorient  #important for SAPT in psi4, default
symmetry c1  #important for SAPT in psi4, default
}

set PROPERTIES_ORIGIN ["COM"]
properties('MP2/aug-cc-pvtz', properties = ['dipole'])
--------------------------------------------------------------------------

    Molecular point group: c1
  Charge       = 0
  Multiplicity = 1
  Basis Set: AUG-CC-PVTZ
    Blend: AUG-CC-PVTZ
  Basis Set: (AUG-CC-PVTZ AUX)
    Blend: AUG-CC-PVTZ-JKFIT

    Orbital Energies [Eh]
    ---------------------

    Doubly Occupied:

       1A    -20.547096     2A    -15.541172     3A    -11.357393
       4A    -11.268061     5A    -11.256879     6A    -11.254533
       7A    -11.253171     8A    -11.249471     9A    -11.247188
      10A    -11.245065    11A    -11.234641    12A    -11.225586
      13A     -1.444380    14A     -1.192876    15A     -1.159482
      16A     -1.073426    17A     -1.054218    18A     -1.012777
      19A     -0.921021    20A     -0.888230    21A     -0.837889
      22A     -0.794273    23A     -0.763473    24A     -0.691821
      25A     -0.686395    26A     -0.670300    27A     -0.657462
      28A     -0.632578    29A     -0.610811    30A     -0.607679
      31A     -0.592856    32A     -0.577351    33A     -0.566257
      34A     -0.532388    35A     -0.521972    36A     -0.520312
      37A     -0.492546    38A     -0.488658    39A     -0.473776
      40A     -0.419081    41A     -0.363900    42A     -0.352064
      43A     -0.340707

  @DF-RHF Final Energy:  -514.55823207795379

   => Energetics <=

    Nuclear Repulsion Energy =            685.0931788064509647
    One-Electron Energy =               -2058.0603882112691281
    Two-Electron Energy =                 858.4089773268644876
    Total Energy =                       -514.5582320779537895
  Basis Set: (AUG-CC-PVTZ AUX)
    Blend: AUG-CC-PVTZ-RI
    Molecular point group: c1

    Geometry (in Angstrom), charge = 0, multiplicity = 1:

       Center              X                  Y                   Z               Mass
    ------------   -----------------  -----------------  -----------------  -----------------
         O            0.969024783393     2.458842429316    -0.641992993544    15.994914619570
         N            2.073658783393     0.641829429316     0.192641006456    14.003074004430
         C            0.783706783393    -1.611109570684    -0.855629993544    12.000000000000
         C            1.843045783393    -1.827201570684     0.234074006456    12.000000000000
         C           -0.422473216607    -0.848642570684    -0.366813993544    12.000000000000
         C            2.053973783393    -0.545796570684     1.040567006456    12.000000000000
         C           -0.337808216607     0.528984429316    -0.076687993544    12.000000000000
         C            0.773958983393     1.399672929316    -0.266804893544    12.000000000000
         C           -1.664088216607    -1.479200570684    -0.222201993544    12.000000000000
         C           -1.476315216607     1.247544429316     0.306275006456    12.000000000000
         C           -2.793937216607    -0.770416570684     0.189171006456    12.000000000000
         C           -2.700868216607     0.598697429316     0.450352006456    12.000000000000
         H            0.465623783393    -2.577710570684    -1.262302993544     1.007825032230
         H            1.243870783393    -1.057154570684    -1.680943993544     1.007825032230
         H            1.533815783393    -2.626525570684     0.919036006456     1.007825032230
         H            2.781646783393    -2.143886570684    -0.235748993544     1.007825032230
         H            1.256308783393    -0.444365570684     1.784381006456     1.007825032230
         H            3.000262783393    -0.581993570684     1.588168006456     1.007825032230
         H            2.906593783393     1.221342429316     0.170573006456     1.007825032230
         H           -1.748270216607    -2.540310570684    -0.452475993544     1.007825032230
         H           -1.380804216607     2.316057429316     0.481889006456     1.007825032230
         H           -3.746873216607    -1.283892570684     0.294973006456     1.007825032230
         H           -3.580953216607     1.158480429316     0.757401006456     1.007825032230

  Basis Set: AUG-CC-PVTZ
    Blend: AUG-CC-PVTZ
  Basis Set: (AUG-CC-PVTZ AUX)
    Blend: AUG-CC-PVTZ-JKFIT
	 Reference Energy          =    -514.5582320779537895 [Eh]
	 Singles Energy            =      -0.0000000000000000 [Eh]
	 Same-Spin Energy          =      -0.5586939301434778 [Eh]
	 Opposite-Spin Energy      =      -1.7447198740280463 [Eh]
	 Correlation Energy        =      -2.3034138041715240 [Eh]
	 Total Energy              =    -516.8616458821253445 [Eh]

	 ================> DF-SCS-MP2 Energies <==================
	-----------------------------------------------------------
	 SCS Same-Spin Scale       =       0.3333333333333333 [-]
	 SCS Opposite-Spin Scale   =       1.2000000000000000 [-]
	 SCS Same-Spin Energy      =      -0.1862313100478259 [Eh]
	 SCS Opposite-Spin Energy  =      -2.0936638488336556 [Eh]
	 SCS Correlation Energy    =      -2.2798951588814815 [Eh]
	 SCS Total Energy          =    -516.8381272368352484 [Eh]
	-----------------------------------------------------------

  Dipole Moment: [D]
     X:    -0.8319      Y:    -2.6405      Z:     1.1516     Total:     2.9984

*** Psi4 exiting successfully. Buy a developer a beer!
