                               Psi4 1.3.2 release

  ==> Input File <==

--------------------------------------------------------------------------
#psi4
#
memory 32 gb

molecule  {
0 1
  O        0.9417500     2.5148810    -0.6596880
  N        2.0463840     0.6978680     0.1749460
  C        0.7564320    -1.5550710    -0.8733250
  C        1.8157710    -1.7711630     0.2163790
  C       -0.5938169    -0.7822671    -0.3539905
  C        2.0266990    -0.4897580     1.0228720
  C       -0.3650830     0.5850230    -0.0943830
  C        0.9119250     1.3593610    -0.2260870
  C       -1.6913630    -1.4231620    -0.2398970
  C       -1.5035900     1.3035830     0.2885800
  C       -2.8212120    -0.7143780     0.1714760
  C       -2.7281430     0.6547360     0.4326570
  H        0.4383490    -2.5216720    -1.2799980
  H        1.2165960    -1.0011160    -1.6986390
  H        1.5065410    -2.5704870     0.9013410
  H        2.7543720    -2.0878480    -0.2534440
  H        1.2290340    -0.3883270     1.7666860
  H        2.9729880    -0.5259550     1.5704730
  H        2.8793190     1.2773810     0.1528780
  H       -1.7755450    -2.4842720    -0.4701710
  H       -1.4080790     2.3720960     0.4641940
  H       -3.7741480    -1.2278540     0.2772780
  H       -3.6082280     1.2145190     0.7397060
units angstrom
no_reorient  #important for SAPT in psi4, default
symmetry c1  #important for SAPT in psi4, default
}

set PROPERTIES_ORIGIN ["COM"]
properties('MP2/aug-cc-pvtz', properties = ['dipole'])
--------------------------------------------------------------------------

    Molecular point group: c1
  Charge       = 0
  Multiplicity = 1
  Basis Set: AUG-CC-PVTZ
    Blend: AUG-CC-PVTZ
  Basis Set: (AUG-CC-PVTZ AUX)
    Blend: AUG-CC-PVTZ-JKFIT

    Orbital Energies [Eh]
    ---------------------

    Doubly Occupied:

       1A    -20.517092     2A    -15.582572     3A    -11.355556
       4A    -11.274706     5A    -11.250260     6A    -11.248594
       7A    -11.247104     8A    -11.245909     9A    -11.240510
      10A    -11.239031    11A    -11.235535    12A    -11.227192
      13A     -1.370516    14A     -1.234006    15A     -1.177069
      16A     -1.070519    17A     -1.040875    18A     -1.027370
      19A     -0.933870    20A     -0.884125    21A     -0.834190
      22A     -0.797898    23A     -0.784734    24A     -0.699292
      25A     -0.683008    26A     -0.672569    27A     -0.651434
      28A     -0.629937    29A     -0.611587    30A     -0.601315
      31A     -0.585111    32A     -0.576403    33A     -0.552163
      34A     -0.534831    35A     -0.522559    36A     -0.513203
      37A     -0.495954    38A     -0.490021    39A     -0.446258
      40A     -0.427646    41A     -0.389003    42A     -0.355875
      43A     -0.338543

  @DF-RHF Final Energy:  -514.57191263848540

   => Energetics <=

    Nuclear Repulsion Energy =            685.1925988895121691
    One-Electron Energy =               -2058.3371297568792215
    Two-Electron Energy =                 858.5726182288815380
    Total Energy =                       -514.5719126384854007
  Basis Set: (AUG-CC-PVTZ AUX)
    Blend: AUG-CC-PVTZ-RI
    Molecular point group: c1

    Geometry (in Angstrom), charge = 0, multiplicity = 1:

       Center              X                  Y                   Z               Mass
    ------------   -----------------  -----------------  -----------------  -----------------
         O            0.967447577096     2.465250035224    -0.648617961736    15.994914619570
         N            2.072081577096     0.648237035224     0.186016038264    14.003074004430
         C            0.782129577096    -1.604701964776    -0.862254961736    12.000000000000
         C            1.841468577096    -1.820793964776     0.227449038264    12.000000000000
         C           -0.568119322904    -0.831898064776    -0.342920461736    12.000000000000
         C            2.052396577096    -0.539388964776     1.033942038264    12.000000000000
         C           -0.339385422904     0.535392035224    -0.083312961736    12.000000000000
         C            0.937622577096     1.309730035224    -0.215016961736    12.000000000000
         C           -1.665665422904    -1.472792964776    -0.228826961736    12.000000000000
         C           -1.477892422904     1.253952035224     0.299650038264    12.000000000000
         C           -2.795514422904    -0.764008964776     0.182546038264    12.000000000000
         C           -2.702445422904     0.605105035224     0.443727038264    12.000000000000
         H            0.464046577096    -2.571302964776    -1.268927961736     1.007825032230
         H            1.242293577096    -1.050746964776    -1.687568961736     1.007825032230
         H            1.532238577096    -2.620117964776     0.912411038264     1.007825032230
         H            2.780069577096    -2.137478964776    -0.242373961736     1.007825032230
         H            1.254731577096    -0.437957964776     1.777756038264     1.007825032230
         H            2.998685577096    -0.575585964776     1.581543038264     1.007825032230
         H            2.905016577096     1.227750035224     0.163948038264     1.007825032230
         H           -1.749847422904    -2.533902964776    -0.459100961736     1.007825032230
         H           -1.382381422904     2.322465035224     0.475264038264     1.007825032230
         H           -3.748450422904    -1.277484964776     0.288348038264     1.007825032230
         H           -3.582530422904     1.164888035224     0.750776038264     1.007825032230

  Basis Set: AUG-CC-PVTZ
    Blend: AUG-CC-PVTZ
  Basis Set: (AUG-CC-PVTZ AUX)
    Blend: AUG-CC-PVTZ-JKFIT
	 Reference Energy          =    -514.5719126384854007 [Eh]
	 Singles Energy            =      -0.0000000000000000 [Eh]
	 Same-Spin Energy          =      -0.5578476922526108 [Eh]
	 Opposite-Spin Energy      =      -1.7440158388389375 [Eh]
	 Correlation Energy        =      -2.3018635310915485 [Eh]
	 Total Energy              =    -516.8737761695768995 [Eh]

	 ================> DF-SCS-MP2 Energies <==================
	-----------------------------------------------------------
	 SCS Same-Spin Scale       =       0.3333333333333333 [-]
	 SCS Opposite-Spin Scale   =       1.2000000000000000 [-]
	 SCS Same-Spin Energy      =      -0.1859492307508702 [Eh]
	 SCS Opposite-Spin Energy  =      -2.0928190066067249 [Eh]
	 SCS Correlation Energy    =      -2.2787682373575953 [Eh]
	 SCS Total Energy          =    -516.8506808758429543 [Eh]
	-----------------------------------------------------------

  Dipole Moment: [D]
     X:     0.5397      Y:    -3.5205      Z:     1.8086     Total:     3.9945

*** Psi4 exiting successfully. Buy a developer a beer!
