                               Psi4 1.3.2 release

  ==> Input File <==

--------------------------------------------------------------------------
#psi4
#
memory 32 gb

molecule  {
0 1
  O        0.9417500     2.5148810    -0.6596880
  N        2.0463840     0.6978680     0.1749460
  C        0.7564320    -1.5550710    -0.8733250
  C        1.7177524    -1.6914273     0.3156324
  C       -0.4497480    -0.7926040    -0.3845090
  C        2.0266990    -0.4897580     1.0228720
  C       -0.3650830     0.5850230    -0.0943830
  C        0.9119250     1.3593610    -0.2260870
  C       -1.6913630    -1.4231620    -0.2398970
  C       -1.5035900     1.3035830     0.2885800
  C       -2.8212120    -0.7143780     0.1714760
  C       -2.7281430     0.6547360     0.4326570
  H        0.4383490    -2.5216720    -1.2799980
  H        1.2165960    -1.0011160    -1.6986390
  H        1.5065410    -2.5704870     0.9013410
  H        2.7543720    -2.0878480    -0.2534440
  H        1.2290340    -0.3883270     1.7666860
  H        2.9729880    -0.5259550     1.5704730
  H        2.8793190     1.2773810     0.1528780
  H       -1.7755450    -2.4842720    -0.4701710
  H       -1.4080790     2.3720960     0.4641940
  H       -3.7741480    -1.2278540     0.2772780
  H       -3.6082280     1.2145190     0.7397060
units angstrom
no_reorient  #important for SAPT in psi4, default
symmetry c1  #important for SAPT in psi4, default
}

set PROPERTIES_ORIGIN ["COM"]
properties('MP2/aug-cc-pvtz', properties = ['dipole'])
--------------------------------------------------------------------------

    Molecular point group: c1
  Charge       = 0
  Multiplicity = 1
  Basis Set: AUG-CC-PVTZ
    Blend: AUG-CC-PVTZ
  Basis Set: (AUG-CC-PVTZ AUX)
    Blend: AUG-CC-PVTZ-JKFIT

    Orbital Energies [Eh]
    ---------------------

    Doubly Occupied:

       1A    -20.516165     2A    -15.584332     3A    -11.352572
       4A    -11.273584     5A    -11.257478     6A    -11.249187
       7A    -11.247337     8A    -11.246243     9A    -11.246004
      10A    -11.242771    11A    -11.241351    12A    -11.239554
      13A     -1.370184    14A     -1.239937    15A     -1.164961
      16A     -1.090054    17A     -1.039937    18A     -1.026045
      19A     -0.944987    20A     -0.881402    21A     -0.836487
      22A     -0.798029    23A     -0.777412    24A     -0.699502
      25A     -0.689462    26A     -0.673267    27A     -0.657515
      28A     -0.628975    29A     -0.614781    30A     -0.605475
      31A     -0.586853    32A     -0.580200    33A     -0.557743
      34A     -0.536055    35A     -0.524542    36A     -0.511611
      37A     -0.499738    38A     -0.492802    39A     -0.443552
      40A     -0.423795    41A     -0.391832    42A     -0.344340
      43A     -0.335542

  @DF-RHF Final Energy:  -514.57064480721851

   => Energetics <=

    Nuclear Repulsion Energy =            687.2879905021831064
    One-Electron Energy =               -2062.3900796810530665
    Two-Electron Energy =                 860.5314443716513324
    Total Energy =                       -514.5706448072185140
  Basis Set: (AUG-CC-PVTZ AUX)
    Blend: AUG-CC-PVTZ-RI
    Molecular point group: c1

    Geometry (in Angstrom), charge = 0, multiplicity = 1:

       Center              X                  Y                   Z               Mass
    ------------   -----------------  -----------------  -----------------  -----------------
         O            0.964017047804     2.460080153242    -0.653738386312    15.994914619570
         N            2.068651047804     0.643067153242     0.180895613688    14.003074004430
         C            0.778699047804    -1.609871846758    -0.867375386312    12.000000000000
         C            1.740019447804    -1.746228146758     0.321582013688    12.000000000000
         C           -0.427480952196    -0.847404846758    -0.378559386312    12.000000000000
         C            2.048966047804    -0.544558846758     1.028821613688    12.000000000000
         C           -0.342815952196     0.530222153242    -0.088433386312    12.000000000000
         C            0.934192047804     1.304560153242    -0.220137386312    12.000000000000
         C           -1.669095952196    -1.477962846758    -0.233947386312    12.000000000000
         C           -1.481322952196     1.248782153242     0.294529613688    12.000000000000
         C           -2.798944952196    -0.769178846758     0.177425613688    12.000000000000
         C           -2.705875952196     0.599935153242     0.438606613688    12.000000000000
         H            0.460616047804    -2.576472846758    -1.274048386312     1.007825032230
         H            1.238863047804    -1.055916846758    -1.692689386312     1.007825032230
         H            1.528808047804    -2.625287846758     0.907290613688     1.007825032230
         H            2.776639047804    -2.142648846758    -0.247494386312     1.007825032230
         H            1.251301047804    -0.443127846758     1.772635613688     1.007825032230
         H            2.995255047804    -0.580755846758     1.576422613688     1.007825032230
         H            2.901586047804     1.222580153242     0.158827613688     1.007825032230
         H           -1.753277952196    -2.539072846758    -0.464221386312     1.007825032230
         H           -1.385811952196     2.317295153242     0.470143613688     1.007825032230
         H           -3.751880952196    -1.282654846758     0.283227613688     1.007825032230
         H           -3.585960952196     1.159718153242     0.745655613688     1.007825032230

  Basis Set: AUG-CC-PVTZ
    Blend: AUG-CC-PVTZ
  Basis Set: (AUG-CC-PVTZ AUX)
    Blend: AUG-CC-PVTZ-JKFIT
	 Reference Energy          =    -514.5706448072185140 [Eh]
	 Singles Energy            =      -0.0000000000000000 [Eh]
	 Same-Spin Energy          =      -0.5599176615615576 [Eh]
	 Opposite-Spin Energy      =      -1.7463890306523386 [Eh]
	 Correlation Energy        =      -2.3063066922138962 [Eh]
	 Total Energy              =    -516.8769514994323799 [Eh]

	 ================> DF-SCS-MP2 Energies <==================
	-----------------------------------------------------------
	 SCS Same-Spin Scale       =       0.3333333333333333 [-]
	 SCS Opposite-Spin Scale   =       1.2000000000000000 [-]
	 SCS Same-Spin Energy      =      -0.1866392205205192 [Eh]
	 SCS Opposite-Spin Energy  =      -2.0956668367828062 [Eh]
	 SCS Correlation Energy    =      -2.2823060573033254 [Eh]
	 SCS Total Energy          =    -516.8529508645218584 [Eh]
	-----------------------------------------------------------

  Dipole Moment: [D]
     X:     0.5118      Y:    -3.5934      Z:     1.7918     Total:     4.0478

*** Psi4 exiting successfully. Buy a developer a beer!
