                               Psi4 1.3.2 release

  ==> Input File <==

--------------------------------------------------------------------------
#psi4
#
memory 32 gb

molecule  {
0 1
  O        0.9417500     2.5148810    -0.6596880
  N        2.0243850     0.6038795     0.0565527
  C        0.7564320    -1.5550710    -0.8733250
  C        1.8157710    -1.7711630     0.2163790
  C       -0.4497480    -0.7926040    -0.3845090
  C        2.0266990    -0.4897580     1.0228720
  C       -0.3650830     0.5850230    -0.0943830
  C        0.9119250     1.3593610    -0.2260870
  C       -1.6913630    -1.4231620    -0.2398970
  C       -1.5035900     1.3035830     0.2885800
  C       -2.8212120    -0.7143780     0.1714760
  C       -2.7281430     0.6547360     0.4326570
  H        0.4383490    -2.5216720    -1.2799980
  H        1.2165960    -1.0011160    -1.6986390
  H        1.5065410    -2.5704870     0.9013410
  H        2.7543720    -2.0878480    -0.2534440
  H        1.2290340    -0.3883270     1.7666860
  H        2.9729880    -0.5259550     1.5704730
  H        2.8793190     1.2773810     0.1528780
  H       -1.7755450    -2.4842720    -0.4701710
  H       -1.4080790     2.3720960     0.4641940
  H       -3.7741480    -1.2278540     0.2772780
  H       -3.6082280     1.2145190     0.7397060
units angstrom
no_reorient  #important for SAPT in psi4, default
symmetry c1  #important for SAPT in psi4, default
}

set PROPERTIES_ORIGIN ["COM"]
properties('MP2/aug-cc-pvtz', properties = ['dipole'])
--------------------------------------------------------------------------

    Molecular point group: c1
  Charge       = 0
  Multiplicity = 1
  Basis Set: AUG-CC-PVTZ
    Blend: AUG-CC-PVTZ
  Basis Set: (AUG-CC-PVTZ AUX)
    Blend: AUG-CC-PVTZ-JKFIT

    Orbital Energies [Eh]
    ---------------------

    Doubly Occupied:

       1A    -20.522062     2A    -15.589970     3A    -11.353585
       4A    -11.275800     5A    -11.257737     6A    -11.248522
       7A    -11.245810     8A    -11.244617     9A    -11.241257
      10A    -11.239339    11A    -11.236652    12A    -11.235105
      13A     -1.372002    14A     -1.236797    15A     -1.162685
      16A     -1.079398    17A     -1.037076    18A     -1.019855
      19A     -0.937023    20A     -0.878138    21A     -0.838080
      22A     -0.795571    23A     -0.768082    24A     -0.693636
      25A     -0.689183    26A     -0.670877    27A     -0.651124
      28A     -0.625774    29A     -0.609815    30A     -0.599174
      31A     -0.588030    32A     -0.569615    33A     -0.556856
      34A     -0.533394    35A     -0.518610    36A     -0.506960
      37A     -0.491908    38A     -0.486165    39A     -0.477485
      40A     -0.427245    41A     -0.397335    42A     -0.343439
      43A     -0.335588

  @DF-RHF Final Energy:  -514.58364941167167

   => Energetics <=

    Nuclear Repulsion Energy =            686.0547423363195776
    One-Electron Energy =               -2060.1020354274510282
    Two-Electron Energy =                 859.4636436794597785
    Total Energy =                       -514.5836494116716722
  Basis Set: (AUG-CC-PVTZ AUX)
    Blend: AUG-CC-PVTZ-RI
    Molecular point group: c1

    Geometry (in Angstrom), charge = 0, multiplicity = 1:

       Center              X                  Y                   Z               Mass
    ------------   -----------------  -----------------  -----------------  -----------------
         O            0.958627504273     2.474190526825    -0.636052521732    15.994914619570
         N            2.041262504273     0.563189026825     0.080188178268    14.003074004430
         C            0.773309504273    -1.595761473175    -0.849689521732    12.000000000000
         C            1.832648504273    -1.811853473175     0.240014478268    12.000000000000
         C           -0.432870495727    -0.833294473175    -0.360873521732    12.000000000000
         C            2.043576504273    -0.530448473175     1.046507478268    12.000000000000
         C           -0.348205495727     0.544332526825    -0.070747521732    12.000000000000
         C            0.928802504273     1.318670526825    -0.202451521732    12.000000000000
         C           -1.674485495727    -1.463852473175    -0.216261521732    12.000000000000
         C           -1.486712495727     1.262892526825     0.312215478268    12.000000000000
         C           -2.804334495727    -0.755068473175     0.195111478268    12.000000000000
         C           -2.711265495727     0.614045526825     0.456292478268    12.000000000000
         H            0.455226504273    -2.562362473175    -1.256362521732     1.007825032230
         H            1.233473504273    -1.041806473175    -1.675003521732     1.007825032230
         H            1.523418504273    -2.611177473175     0.924976478268     1.007825032230
         H            2.771249504273    -2.128538473175    -0.229808521732     1.007825032230
         H            1.245911504273    -0.429017473175     1.790321478268     1.007825032230
         H            2.989865504273    -0.566645473175     1.594108478268     1.007825032230
         H            2.896196504273     1.236690526825     0.176513478268     1.007825032230
         H           -1.758667495727    -2.524962473175    -0.446535521732     1.007825032230
         H           -1.391201495727     2.331405526825     0.487829478268     1.007825032230
         H           -3.757270495727    -1.268544473175     0.300913478268     1.007825032230
         H           -3.591350495727     1.173828526825     0.763341478268     1.007825032230

  Basis Set: AUG-CC-PVTZ
    Blend: AUG-CC-PVTZ
  Basis Set: (AUG-CC-PVTZ AUX)
    Blend: AUG-CC-PVTZ-JKFIT
	 Reference Energy          =    -514.5836494116716722 [Eh]
	 Singles Energy            =      -0.0000000000000000 [Eh]
	 Same-Spin Energy          =      -0.5599397146275588 [Eh]
	 Opposite-Spin Energy      =      -1.7471445111378774 [Eh]
	 Correlation Energy        =      -2.3070842257654363 [Eh]
	 Total Energy              =    -516.8907336374370516 [Eh]

	 ================> DF-SCS-MP2 Energies <==================
	-----------------------------------------------------------
	 SCS Same-Spin Scale       =       0.3333333333333333 [-]
	 SCS Opposite-Spin Scale   =       1.2000000000000000 [-]
	 SCS Same-Spin Energy      =      -0.1866465715425196 [Eh]
	 SCS Opposite-Spin Energy  =      -2.0965734133654528 [Eh]
	 SCS Correlation Energy    =      -2.2832199849079724 [Eh]
	 SCS Total Energy          =    -516.8668693965796592 [Eh]
	-----------------------------------------------------------

  Dipole Moment: [D]
     X:     0.5836      Y:    -3.3703      Z:     1.9249     Total:     3.9249

*** Psi4 exiting successfully. Buy a developer a beer!
