                               Psi4 1.3.2 release

  ==> Input File <==

--------------------------------------------------------------------------
#psi4
#
memory 32 gb

molecule  {
0 1
  O        0.9417500     2.5148810    -0.6596880
  N        1.9909012     0.6227744     0.1965811
  C        0.7564320    -1.5550710    -0.8733250
  C        1.8157710    -1.7711630     0.2163790
  C       -0.4497480    -0.7926040    -0.3845090
  C        2.0266990    -0.4897580     1.0228720
  C       -0.3650830     0.5850230    -0.0943830
  C        0.9119250     1.3593610    -0.2260870
  C       -1.6913630    -1.4231620    -0.2398970
  C       -1.5035900     1.3035830     0.2885800
  C       -2.8212120    -0.7143780     0.1714760
  C       -2.7281430     0.6547360     0.4326570
  H        0.4383490    -2.5216720    -1.2799980
  H        1.2165960    -1.0011160    -1.6986390
  H        1.5065410    -2.5704870     0.9013410
  H        2.7543720    -2.0878480    -0.2534440
  H        1.2290340    -0.3883270     1.7666860
  H        2.9729880    -0.5259550     1.5704730
  H        2.8793190     1.2773810     0.1528780
  H       -1.7755450    -2.4842720    -0.4701710
  H       -1.4080790     2.3720960     0.4641940
  H       -3.7741480    -1.2278540     0.2772780
  H       -3.6082280     1.2145190     0.7397060
units angstrom
no_reorient  #important for SAPT in psi4, default
symmetry c1  #important for SAPT in psi4, default
}

set PROPERTIES_ORIGIN ["COM"]
properties('MP2/aug-cc-pvtz', properties = ['dipole'])
--------------------------------------------------------------------------

    Molecular point group: c1
  Charge       = 0
  Multiplicity = 1
  Basis Set: AUG-CC-PVTZ
    Blend: AUG-CC-PVTZ
  Basis Set: (AUG-CC-PVTZ AUX)
    Blend: AUG-CC-PVTZ-JKFIT

    Orbital Energies [Eh]
    ---------------------

    Doubly Occupied:

       1A    -20.521106     2A    -15.589888     3A    -11.355267
       4A    -11.271141     5A    -11.257261     6A    -11.247821
       7A    -11.244869     8A    -11.243653     9A    -11.240955
      10A    -11.238902    11A    -11.238300    12A    -11.235080
      13A     -1.371639    14A     -1.251361    15A     -1.162949
      16A     -1.079870    17A     -1.038473    18A     -1.019261
      19A     -0.940032    20A     -0.882501    21A     -0.839687
      22A     -0.798898    23A     -0.767818    24A     -0.696093
      25A     -0.691148    26A     -0.671420    27A     -0.657990
      28A     -0.626506    29A     -0.609235    30A     -0.600338
      31A     -0.591388    32A     -0.572043    33A     -0.557399
      34A     -0.536233    35A     -0.517664    36A     -0.507956
      37A     -0.491452    38A     -0.487303    39A     -0.477859
      40A     -0.425336    41A     -0.387742    42A     -0.343021
      43A     -0.335233

  @DF-RHF Final Energy:  -514.58028459807917

   => Energetics <=

    Nuclear Repulsion Energy =            686.8524804915306277
    One-Electron Energy =               -2061.6253498377818687
    Two-Electron Energy =                 860.1925847481721803
    Total Energy =                       -514.5802845980791744
  Basis Set: (AUG-CC-PVTZ AUX)
    Blend: AUG-CC-PVTZ-RI
    Molecular point group: c1

    Geometry (in Angstrom), charge = 0, multiplicity = 1:

       Center              X                  Y                   Z               Mass
    ------------   -----------------  -----------------  -----------------  -----------------
         O            0.961538258557     2.472547988907    -0.648225222119    15.994914619570
         N            2.010689458557     0.580441388907     0.208043877881    14.003074004430
         C            0.776220258557    -1.597404011093    -0.861862222119    12.000000000000
         C            1.835559258557    -1.813496011093     0.227841777881    12.000000000000
         C           -0.429959741443    -0.834937011093    -0.373046222119    12.000000000000
         C            2.046487258557    -0.532091011093     1.034334777881    12.000000000000
         C           -0.345294741443     0.542689988907    -0.082920222119    12.000000000000
         C            0.931713258557     1.317027988907    -0.214624222119    12.000000000000
         C           -1.671574741443    -1.465495011093    -0.228434222119    12.000000000000
         C           -1.483801741443     1.261249988907     0.300042777881    12.000000000000
         C           -2.801423741443    -0.756711011093     0.182938777881    12.000000000000
         C           -2.708354741443     0.612402988907     0.444119777881    12.000000000000
         H            0.458137258557    -2.564005011093    -1.268535222119     1.007825032230
         H            1.236384258557    -1.043449011093    -1.687176222119     1.007825032230
         H            1.526329258557    -2.612820011093     0.912803777881     1.007825032230
         H            2.774160258557    -2.130181011093    -0.241981222119     1.007825032230
         H            1.248822258557    -0.430660011093     1.778148777881     1.007825032230
         H            2.992776258557    -0.568288011093     1.581935777881     1.007825032230
         H            2.899107258557     1.235047988907     0.164340777881     1.007825032230
         H           -1.755756741443    -2.526605011093    -0.458708222119     1.007825032230
         H           -1.388290741443     2.329762988907     0.475656777881     1.007825032230
         H           -3.754359741443    -1.270187011093     0.288740777881     1.007825032230
         H           -3.588439741443     1.172185988907     0.751168777881     1.007825032230

  Basis Set: AUG-CC-PVTZ
    Blend: AUG-CC-PVTZ
  Basis Set: (AUG-CC-PVTZ AUX)
    Blend: AUG-CC-PVTZ-JKFIT
	 Reference Energy          =    -514.5802845980791744 [Eh]
	 Singles Energy            =      -0.0000000000000000 [Eh]
	 Same-Spin Energy          =      -0.5605468697411269 [Eh]
	 Opposite-Spin Energy      =      -1.7470905587215002 [Eh]
	 Correlation Energy        =      -2.3076374284626269 [Eh]
	 Total Energy              =    -516.8879220265417871 [Eh]

	 ================> DF-SCS-MP2 Energies <==================
	-----------------------------------------------------------
	 SCS Same-Spin Scale       =       0.3333333333333333 [-]
	 SCS Opposite-Spin Scale   =       1.2000000000000000 [-]
	 SCS Same-Spin Energy      =      -0.1868489565803756 [Eh]
	 SCS Opposite-Spin Energy  =      -2.0965086704658003 [Eh]
	 SCS Correlation Energy    =      -2.2833576270461760 [Eh]
	 SCS Total Energy          =    -516.8636422251253180 [Eh]
	-----------------------------------------------------------

  Dipole Moment: [D]
     X:     0.7368      Y:    -3.4605      Z:     1.7315     Total:     3.9391

*** Psi4 exiting successfully. Buy a developer a beer!
