                               Psi4 1.3.2 release

  ==> Input File <==

--------------------------------------------------------------------------
#psi4
#
memory 32 gb

molecule  {
0 1
  O        0.9417500     2.5148810    -0.6596880
  N        2.0463840     0.6978680     0.1749460
  C        0.7564320    -1.5550710    -0.8733250
  C        1.8157710    -1.7711630     0.2163790
  C       -0.4497480    -0.7926040    -0.3845090
  C        2.0240013    -0.6525144     1.1390747
  C       -0.3650830     0.5850230    -0.0943830
  C        0.9119250     1.3593610    -0.2260870
  C       -1.6913630    -1.4231620    -0.2398970
  C       -1.5035900     1.3035830     0.2885800
  C       -2.8212120    -0.7143780     0.1714760
  C       -2.7281430     0.6547360     0.4326570
  H        0.4383490    -2.5216720    -1.2799980
  H        1.2165960    -1.0011160    -1.6986390
  H        1.5065410    -2.5704870     0.9013410
  H        2.7543720    -2.0878480    -0.2534440
  H        1.2290340    -0.3883270     1.7666860
  H        2.9729880    -0.5259550     1.5704730
  H        2.8793190     1.2773810     0.1528780
  H       -1.7755450    -2.4842720    -0.4701710
  H       -1.4080790     2.3720960     0.4641940
  H       -3.7741480    -1.2278540     0.2772780
  H       -3.6082280     1.2145190     0.7397060
units angstrom
no_reorient  #important for SAPT in psi4, default
symmetry c1  #important for SAPT in psi4, default
}

set PROPERTIES_ORIGIN ["COM"]
properties('MP2/aug-cc-pvtz', properties = ['dipole'])
--------------------------------------------------------------------------

    Molecular point group: c1
  Charge       = 0
  Multiplicity = 1
  Basis Set: AUG-CC-PVTZ
    Blend: AUG-CC-PVTZ
  Basis Set: (AUG-CC-PVTZ AUX)
    Blend: AUG-CC-PVTZ-JKFIT

    Orbital Energies [Eh]
    ---------------------

    Doubly Occupied:

       1A    -20.505971     2A    -15.570135     3A    -11.342454
       4A    -11.287261     5A    -11.257435     6A    -11.247633
       7A    -11.245266     8A    -11.243785     9A    -11.243564
      10A    -11.243104    11A    -11.241693    12A    -11.239217
      13A     -1.358549    14A     -1.200936    15A     -1.159634
      16A     -1.089568    17A     -1.038226    18A     -1.025972
      19A     -0.946486    20A     -0.874311    21A     -0.842882
      22A     -0.799587    23A     -0.768406    24A     -0.692989
      25A     -0.678711    26A     -0.673485    27A     -0.641083
      28A     -0.622372    29A     -0.620014    30A     -0.598537
      31A     -0.591046    32A     -0.569030    33A     -0.550435
      34A     -0.544121    35A     -0.528660    36A     -0.501169
      37A     -0.498519    38A     -0.485757    39A     -0.478883
      40A     -0.412452    41A     -0.384524    42A     -0.342247
      43A     -0.336266

  @DF-RHF Final Energy:  -514.56797950901603

   => Energetics <=

    Nuclear Repulsion Energy =            682.6113068583717904
    One-Electron Energy =               -2053.3138207977813181
    Two-Electron Energy =                 856.1345344303935008
    Total Energy =                       -514.5679795090160269
  Basis Set: (AUG-CC-PVTZ AUX)
    Blend: AUG-CC-PVTZ-RI
    Molecular point group: c1

    Geometry (in Angstrom), charge = 0, multiplicity = 1:

       Center              X                  Y                   Z               Mass
    ------------   -----------------  -----------------  -----------------  -----------------
         O            0.956916092118     2.478144666441    -0.655001028903    15.994914619570
         N            2.061550092118     0.661131666441     0.179632971097    14.003074004430
         C            0.771598092118    -1.591807333559    -0.868638028903    12.000000000000
         C            1.830937092118    -1.807899333559     0.221065971097    12.000000000000
         C           -0.434581907882    -0.829340333559    -0.379822028903    12.000000000000
         C            2.039167392118    -0.689250733559     1.143761671097    12.000000000000
         C           -0.349916907882     0.548286666441    -0.089696028903    12.000000000000
         C            0.927091092118     1.322624666441    -0.221400028903    12.000000000000
         C           -1.676196907882    -1.459898333559    -0.235210028903    12.000000000000
         C           -1.488423907882     1.266846666441     0.293266971097    12.000000000000
         C           -2.806045907882    -0.751114333559     0.176162971097    12.000000000000
         C           -2.712976907882     0.617999666441     0.437343971097    12.000000000000
         H            0.453515092118    -2.558408333559    -1.275311028903     1.007825032230
         H            1.231762092118    -1.037852333559    -1.693952028903     1.007825032230
         H            1.521707092118    -2.607223333559     0.906027971097     1.007825032230
         H            2.769538092118    -2.124584333559    -0.248757028903     1.007825032230
         H            1.244200092118    -0.425063333559     1.771372971097     1.007825032230
         H            2.988154092118    -0.562691333559     1.575159971097     1.007825032230
         H            2.894485092118     1.240644666441     0.157564971097     1.007825032230
         H           -1.760378907882    -2.521008333559    -0.465484028903     1.007825032230
         H           -1.392912907882     2.335359666441     0.468880971097     1.007825032230
         H           -3.758981907882    -1.264590333559     0.281964971097     1.007825032230
         H           -3.593061907882     1.177782666441     0.744392971097     1.007825032230

  Basis Set: AUG-CC-PVTZ
    Blend: AUG-CC-PVTZ
  Basis Set: (AUG-CC-PVTZ AUX)
    Blend: AUG-CC-PVTZ-JKFIT
	 Reference Energy          =    -514.5679795090160269 [Eh]
	 Singles Energy            =      -0.0000000000000000 [Eh]
	 Same-Spin Energy          =      -0.5591316251863125 [Eh]
	 Opposite-Spin Energy      =      -1.7464782276030841 [Eh]
	 Correlation Energy        =      -2.3056098527893969 [Eh]
	 Total Energy              =    -516.8735893618054433 [Eh]

	 ================> DF-SCS-MP2 Energies <==================
	-----------------------------------------------------------
	 SCS Same-Spin Scale       =       0.3333333333333333 [-]
	 SCS Opposite-Spin Scale   =       1.2000000000000000 [-]
	 SCS Same-Spin Energy      =      -0.1863772083954375 [Eh]
	 SCS Opposite-Spin Energy  =      -2.0957738731237008 [Eh]
	 SCS Correlation Energy    =      -2.2821510815191384 [Eh]
	 SCS Total Energy          =    -516.8501305905351728 [Eh]
	-----------------------------------------------------------

  Dipole Moment: [D]
     X:     0.7114      Y:    -4.0689      Z:     1.9988     Total:     4.5888

*** Psi4 exiting successfully. Buy a developer a beer!
