                               Psi4 1.3.2 release

  ==> Input File <==

--------------------------------------------------------------------------
#psi4
#
memory 32 gb

molecule  {
0 1
  O        0.9417500     2.5148810    -0.6596880
  N        2.0463840     0.6978680     0.1749460
  C        0.7564320    -1.5550710    -0.8733250
  C        1.8157710    -1.7711630     0.2163790
  C       -0.4497480    -0.7926040    -0.3845090
  C        2.0266990    -0.4897580     1.0228720
  C       -0.3650830     0.5850230    -0.0943830
  C        0.9119250     1.3593610    -0.2260870
  C       -1.6913630    -1.4231620    -0.2398970
  C       -1.5035900     1.3035830     0.2885800
  C       -2.8212120    -0.7143780     0.1714760
  C       -2.7281430     0.6547360     0.4326570
  H        0.4383490    -2.5216720    -1.2799980
  H        1.2165960    -1.0011160    -1.6986390
  H        1.5065410    -2.5704870     0.9013410
  H        2.7543720    -2.0878480    -0.2534440
  H        1.1562119    -0.3790670     1.8345918
  H        2.9729880    -0.5259550     1.5704730
  H        2.8793190     1.2773810     0.1528780
  H       -1.7755450    -2.4842720    -0.4701710
  H       -1.4080790     2.3720960     0.4641940
  H       -3.7741480    -1.2278540     0.2772780
  H       -3.6082280     1.2145190     0.7397060
units angstrom
no_reorient  #important for SAPT in psi4, default
symmetry c1  #important for SAPT in psi4, default
}

set PROPERTIES_ORIGIN ["COM"]
properties('MP2/aug-cc-pvtz', properties = ['dipole'])
--------------------------------------------------------------------------

    Molecular point group: c1
  Charge       = 0
  Multiplicity = 1
  Basis Set: AUG-CC-PVTZ
    Blend: AUG-CC-PVTZ
  Basis Set: (AUG-CC-PVTZ AUX)
    Blend: AUG-CC-PVTZ-JKFIT

    Orbital Energies [Eh]
    ---------------------

    Doubly Occupied:

       1A    -20.515813     2A    -15.584095     3A    -11.351932
       4A    -11.287144     5A    -11.258202     6A    -11.248672
       7A    -11.247093     8A    -11.245410     9A    -11.241602
      10A    -11.239724    11A    -11.239683    12A    -11.238980
      13A     -1.369619    14A     -1.234870    15A     -1.164136
      16A     -1.082204    17A     -1.036432    18A     -1.019777
      19A     -0.934924    20A     -0.881804    21A     -0.839372
      22A     -0.797661    23A     -0.774713    24A     -0.696439
      25A     -0.681737    26A     -0.670717    27A     -0.652930
      28A     -0.622471    29A     -0.616003    30A     -0.600065
      31A     -0.586981    32A     -0.574557    33A     -0.556549
      34A     -0.532442    35A     -0.514990    36A     -0.510056
      37A     -0.493181    38A     -0.489666    39A     -0.476678
      40A     -0.423897    41A     -0.388868    42A     -0.343616
      43A     -0.335727

  @DF-RHF Final Energy:  -514.58980863878276

   => Energetics <=

    Nuclear Repulsion Energy =            684.7144569990811078
    One-Electron Energy =               -2057.4056716995842180
    Two-Electron Energy =                 858.1014060617204677
    Total Energy =                       -514.5898086387827561
  Basis Set: (AUG-CC-PVTZ AUX)
    Blend: AUG-CC-PVTZ-RI
    Molecular point group: c1

    Geometry (in Angstrom), charge = 0, multiplicity = 1:

       Center              X                  Y                   Z               Mass
    ------------   -----------------  -----------------  -----------------  -----------------
         O            0.957170738880     2.465962149988    -0.646769331725    15.994914619570
         N            2.061804738880     0.648949149988     0.187864668275    14.003074004430
         C            0.771852738880    -1.603989850012    -0.860406331725    12.000000000000
         C            1.831191738880    -1.820081850012     0.229297668275    12.000000000000
         C           -0.434327261120    -0.841522850012    -0.371590331725    12.000000000000
         C            2.042119738880    -0.538676850012     1.035790668275    12.000000000000
         C           -0.349662261120     0.536104149988    -0.081464331725    12.000000000000
         C            0.927345738880     1.310442149988    -0.213168331725    12.000000000000
         C           -1.675942261120    -1.472080850012    -0.226978331725    12.000000000000
         C           -1.488169261120     1.254664149988     0.301498668275    12.000000000000
         C           -2.805791261120    -0.763296850012     0.184394668275    12.000000000000
         C           -2.712722261120     0.605817149988     0.445575668275    12.000000000000
         H            0.453769738880    -2.570590850012    -1.267079331725     1.007825032230
         H            1.232016738880    -1.050034850012    -1.685720331725     1.007825032230
         H            1.521961738880    -2.619405850012     0.914259668275     1.007825032230
         H            2.769792738880    -2.136766850012    -0.240525331725     1.007825032230
         H            1.171632638880    -0.427985850012     1.847510468275     1.007825032230
         H            2.988408738880    -0.574873850012     1.583391668275     1.007825032230
         H            2.894739738880     1.228462149988     0.165796668275     1.007825032230
         H           -1.760124261120    -2.533190850012    -0.457252331725     1.007825032230
         H           -1.392658261120     2.323177149988     0.477112668275     1.007825032230
         H           -3.758727261120    -1.276772850012     0.290196668275     1.007825032230
         H           -3.592807261120     1.165600149988     0.752624668275     1.007825032230

  Basis Set: AUG-CC-PVTZ
    Blend: AUG-CC-PVTZ
  Basis Set: (AUG-CC-PVTZ AUX)
    Blend: AUG-CC-PVTZ-JKFIT
	 Reference Energy          =    -514.5898086387827561 [Eh]
	 Singles Energy            =      -0.0000000000000000 [Eh]
	 Same-Spin Energy          =      -0.5588855446177011 [Eh]
	 Opposite-Spin Energy      =      -1.7453332428237265 [Eh]
	 Correlation Energy        =      -2.3042187874414277 [Eh]
	 Total Energy              =    -516.8940274262241701 [Eh]

	 ================> DF-SCS-MP2 Energies <==================
	-----------------------------------------------------------
	 SCS Same-Spin Scale       =       0.3333333333333333 [-]
	 SCS Opposite-Spin Scale   =       1.2000000000000000 [-]
	 SCS Same-Spin Energy      =      -0.1862951815392337 [Eh]
	 SCS Opposite-Spin Energy  =      -2.0943998913884716 [Eh]
	 SCS Correlation Energy    =      -2.2806950729277053 [Eh]
	 SCS Total Energy          =    -516.8705037117105121 [Eh]
	-----------------------------------------------------------

  Dipole Moment: [D]
     X:     0.6492      Y:    -3.6044      Z:     1.7085     Total:     4.0413

*** Psi4 exiting successfully. Buy a developer a beer!
