                               Psi4 1.4a3.dev225

  ==> Input File <==

--------------------------------------------------------------------------
#psi4
#
memory 32 gb

molecule  {
0 1
  O        0.9417500     2.5148810    -0.6596880
  N        2.0463840     0.6978680     0.1749460
  C        0.7564320    -1.5550710    -0.8733250
  C        1.8157710    -1.7711630     0.2163790
  C       -0.4497480    -0.7926040    -0.3845090
  C        2.0335979    -0.4478464     1.0492504
  C       -0.3650830     0.5850230    -0.0943830
  C        0.9119250     1.3593610    -0.2260870
  C       -1.6913630    -1.4231620    -0.2398970
  C       -1.5035900     1.3035830     0.2885800
  C       -2.8212120    -0.7143780     0.1714760
  C       -2.7281430     0.6547360     0.4326570
  H        0.4383490    -2.5216720    -1.2799980
  H        1.2165960    -1.0011160    -1.6986390
  H        1.5065410    -2.5704870     0.9013410
  H        2.7543720    -2.0878480    -0.2534440
  H        1.2290340    -0.3883270     1.7666860
  H        2.9729880    -0.5259550     1.5704730
  H        2.8793190     1.2773810     0.1528780
  H       -1.7755450    -2.4842720    -0.4701710
  H       -1.4080790     2.3720960     0.4641940
  H       -3.7741480    -1.2278540     0.2772780
  H       -3.6082280     1.2145190     0.7397060
units angstrom
no_reorient  #important for SAPT in psi4, default
symmetry c1  #important for SAPT in psi4, default
}

set PROPERTIES_ORIGIN ["COM"]
properties('MP2/aug-cc-pvtz', properties = ['dipole'])
--------------------------------------------------------------------------

    Molecular point group: c1
  Charge       = 0
  Multiplicity = 1
  Basis Set: AUG-CC-PVTZ
    Blend: AUG-CC-PVTZ
  Basis Set: (AUG-CC-PVTZ AUX)
    Blend: AUG-CC-PVTZ-JKFIT

    Orbital Energies [Eh]
    ---------------------

    Doubly Occupied:

       1A    -20.516509     2A    -15.583359     3A    -11.352614
       4A    -11.273763     5A    -11.258290     6A    -11.248946
       7A    -11.247345     8A    -11.245774     9A    -11.241626
      10A    -11.239833    11A    -11.238723    12A    -11.238120
      13A     -1.370460    14A     -1.238502    15A     -1.164478
      16A     -1.078763    17A     -1.036327    18A     -1.017298
      19A     -0.938615    20A     -0.882303    21A     -0.841628
      22A     -0.797870    23A     -0.777597    24A     -0.697946
      25A     -0.688080    26A     -0.671717    27A     -0.654345
      28A     -0.622394    29A     -0.615043    30A     -0.597914
      31A     -0.588330    32A     -0.576967    33A     -0.557329
      34A     -0.538930    35A     -0.519530    36A     -0.507672
      37A     -0.491922    38A     -0.487465    39A     -0.478631
      40A     -0.424804    41A     -0.386975    42A     -0.344132
      43A     -0.336035

  @DF-RHF Final Energy:  -514.59499572218249

   => Energetics <=

    Nuclear Repulsion Energy =            684.8124413438820284
    One-Electron Energy =               -2057.5850674778389475
    Two-Electron Energy =                 858.1776304117744303
    Total Energy =                       -514.5949957221824889
  Basis Set: (AUG-CC-PVTZ AUX)
    Blend: AUG-CC-PVTZ-RI
    Molecular point group: c1

    Geometry (in Angstrom), charge = 0, multiplicity = 1:

       Center              X                  Y                   Z               Mass
    ------------   -----------------  -----------------  -----------------  -----------------
         O            0.956201190860     2.462897869587    -0.648309543890    15.994914619570
         N            2.060835190860     0.645884869587     0.186324456110    14.003074004430
         C            0.770883190860    -1.607054130413    -0.861946543890    12.000000000000
         C            1.830222190860    -1.823146130413     0.227757456110    12.000000000000
         C           -0.435296809140    -0.844587130413    -0.373130543890    12.000000000000
         C            2.048049090860    -0.499829530413     1.060628856110    12.000000000000
         C           -0.350631809140     0.533039869587    -0.083004543890    12.000000000000
         C            0.926376190860     1.307377869587    -0.214708543890    12.000000000000
         C           -1.676911809140    -1.475145130413    -0.228518543890    12.000000000000
         C           -1.489138809140     1.251599869587     0.299958456110    12.000000000000
         C           -2.806760809140    -0.766361130413     0.182854456110    12.000000000000
         C           -2.713691809140     0.602752869587     0.444035456110    12.000000000000
         H            0.452800190860    -2.573655130413    -1.268619543890     1.007825032230
         H            1.231047190860    -1.053099130413    -1.687260543890     1.007825032230
         H            1.520992190860    -2.622470130413     0.912719456110     1.007825032230
         H            2.768823190860    -2.139831130413    -0.242065543890     1.007825032230
         H            1.243485190860    -0.440310130413     1.778064456110     1.007825032230
         H            2.987439190860    -0.577938130413     1.581851456110     1.007825032230
         H            2.893770190860     1.225397869587     0.164256456110     1.007825032230
         H           -1.761093809140    -2.536255130413    -0.458792543890     1.007825032230
         H           -1.393627809140     2.320112869587     0.475572456110     1.007825032230
         H           -3.759696809140    -1.279837130413     0.288656456110     1.007825032230
         H           -3.593776809140     1.162535869587     0.751084456110     1.007825032230

  Basis Set: AUG-CC-PVTZ
    Blend: AUG-CC-PVTZ
  Basis Set: (AUG-CC-PVTZ AUX)
    Blend: AUG-CC-PVTZ-JKFIT
	 Reference Energy          =    -514.5949957221824889 [Eh]
	 Singles Energy            =      -0.0000000000000000 [Eh]
	 Same-Spin Energy          =      -0.5584738690661628 [Eh]
	 Opposite-Spin Energy      =      -1.7442163758243634 [Eh]
	 Correlation Energy        =      -2.3026902448905262 [Eh]
	 Total Energy              =    -516.8976859670730164 [Eh]

	 ================> DF-SCS-MP2 Energies <==================
	-----------------------------------------------------------
	 SCS Same-Spin Scale       =       0.3333333333333333 [-]
	 SCS Opposite-Spin Scale   =       1.2000000000000000 [-]
	 SCS Same-Spin Energy      =      -0.1861579563553876 [Eh]
	 SCS Opposite-Spin Energy  =      -2.0930596509892361 [Eh]
	 SCS Correlation Energy    =      -2.2792176073446235 [Eh]
	 SCS Total Energy          =    -516.8742133295271515 [Eh]
	-----------------------------------------------------------

  Dipole Moment: [D]
     X:     0.6212      Y:    -3.5229      Z:     1.7728     Total:     3.9924

*** Psi4 exiting successfully. Buy a developer a beer!
