                               Psi4 1.3.2 release

  ==> Input File <==

--------------------------------------------------------------------------
#psi4
#
memory 32 gb

molecule  {
0 1
  O        0.9417500     2.5148810    -0.6596880
  N        2.0463840     0.6978680     0.1749460
  C        0.7564320    -1.5550710    -0.8733250
  C        1.8157710    -1.7711630     0.2163790
  C       -0.4497480    -0.7926040    -0.3845090
  C        2.1217178    -0.4666170     1.0513712
  C       -0.3650830     0.5850230    -0.0943830
  C        0.9119250     1.3593610    -0.2260870
  C       -1.6913630    -1.4231620    -0.2398970
  C       -1.5035900     1.3035830     0.2885800
  C       -2.8212120    -0.7143780     0.1714760
  C       -2.7281430     0.6547360     0.4326570
  H        0.4383490    -2.5216720    -1.2799980
  H        1.2165960    -1.0011160    -1.6986390
  H        1.5065410    -2.5704870     0.9013410
  H        2.7543720    -2.0878480    -0.2534440
  H        1.2290340    -0.3883270     1.7666860
  H        2.9729880    -0.5259550     1.5704730
  H        2.8793190     1.2773810     0.1528780
  H       -1.7755450    -2.4842720    -0.4701710
  H       -1.4080790     2.3720960     0.4641940
  H       -3.7741480    -1.2278540     0.2772780
  H       -3.6082280     1.2145190     0.7397060
units angstrom
no_reorient  #important for SAPT in psi4, default
symmetry c1  #important for SAPT in psi4, default
}

set PROPERTIES_ORIGIN ["COM"]
properties('MP2/aug-cc-pvtz', properties = ['dipole'])
--------------------------------------------------------------------------

    Molecular point group: c1
  Charge       = 0
  Multiplicity = 1
  Basis Set: AUG-CC-PVTZ
    Blend: AUG-CC-PVTZ
  Basis Set: (AUG-CC-PVTZ AUX)
    Blend: AUG-CC-PVTZ-JKFIT

    Orbital Energies [Eh]
    ---------------------

    Doubly Occupied:

       1A    -20.516266     2A    -15.583082     3A    -11.353770
       4A    -11.275437     5A    -11.258283     6A    -11.248756
       7A    -11.247121     8A    -11.245490     9A    -11.241467
      10A    -11.240282    11A    -11.239599    12A    -11.239385
      13A     -1.369765    14A     -1.233660    15A     -1.164162
      16A     -1.078523    17A     -1.036824    18A     -1.018324
      19A     -0.941810    20A     -0.883066    21A     -0.840685
      22A     -0.798052    23A     -0.775191    24A     -0.699156
      25A     -0.690109    26A     -0.669218    27A     -0.658449
      28A     -0.621868    29A     -0.616313    30A     -0.598362
      31A     -0.587815    32A     -0.571687    33A     -0.557762
      34A     -0.541171    35A     -0.513394    36A     -0.508173
      37A     -0.497176    38A     -0.488868    39A     -0.475617
      40A     -0.425204    41A     -0.383711    42A     -0.343883
      43A     -0.335822

  @DF-RHF Final Energy:  -514.58423555561603

   => Energetics <=

    Nuclear Repulsion Energy =            683.6180307407706778
    One-Electron Energy =               -2055.1790160143718822
    Two-Electron Energy =                 856.9767497179850579
    Total Energy =                       -514.5842355556160328
  Basis Set: (AUG-CC-PVTZ AUX)
    Blend: AUG-CC-PVTZ-RI
    Molecular point group: c1

    Geometry (in Angstrom), charge = 0, multiplicity = 1:

       Center              X                  Y                   Z               Mass
    ------------   -----------------  -----------------  -----------------  -----------------
         O            0.949636675576     2.464296190404    -0.648467533447    15.994914619570
         N            2.054270675576     0.647283190404     0.186166466553    14.003074004430
         C            0.764318675576    -1.605655809596    -0.862104533447    12.000000000000
         C            1.823657675576    -1.821747809596     0.227599466553    12.000000000000
         C           -0.441861324424    -0.843188809596    -0.373288533447    12.000000000000
         C            2.129604475576    -0.517201809596     1.062591666553    12.000000000000
         C           -0.357196324424     0.534438190404    -0.083162533447    12.000000000000
         C            0.919811675576     1.308776190404    -0.214866533447    12.000000000000
         C           -1.683476324424    -1.473746809596    -0.228676533447    12.000000000000
         C           -1.495703324424     1.252998190404     0.299800466553    12.000000000000
         C           -2.813325324424    -0.764962809596     0.182696466553    12.000000000000
         C           -2.720256324424     0.604151190404     0.443877466553    12.000000000000
         H            0.446235675576    -2.572256809596    -1.268777533447     1.007825032230
         H            1.224482675576    -1.051700809596    -1.687418533447     1.007825032230
         H            1.514427675576    -2.621071809596     0.912561466553     1.007825032230
         H            2.762258675576    -2.138432809596    -0.242223533447     1.007825032230
         H            1.236920675576    -0.438911809596     1.777906466553     1.007825032230
         H            2.980874675576    -0.576539809596     1.581693466553     1.007825032230
         H            2.887205675576     1.226796190404     0.164098466553     1.007825032230
         H           -1.767658324424    -2.534856809596    -0.458950533447     1.007825032230
         H           -1.400192324424     2.321511190404     0.475414466553     1.007825032230
         H           -3.766261324424    -1.278438809596     0.288498466553     1.007825032230
         H           -3.600341324424     1.163934190404     0.750926466553     1.007825032230

  Basis Set: AUG-CC-PVTZ
    Blend: AUG-CC-PVTZ
  Basis Set: (AUG-CC-PVTZ AUX)
    Blend: AUG-CC-PVTZ-JKFIT
	 Reference Energy          =    -514.5842355556160328 [Eh]
	 Singles Energy            =      -0.0000000000000000 [Eh]
	 Same-Spin Energy          =      -0.5584289960756685 [Eh]
	 Opposite-Spin Energy      =      -1.7445381341622772 [Eh]
	 Correlation Energy        =      -2.3029671302379455 [Eh]
	 Total Energy              =    -516.8872026858539357 [Eh]

	 ================> DF-SCS-MP2 Energies <==================
	-----------------------------------------------------------
	 SCS Same-Spin Scale       =       0.3333333333333333 [-]
	 SCS Opposite-Spin Scale   =       1.2000000000000000 [-]
	 SCS Same-Spin Energy      =      -0.1861429986918895 [Eh]
	 SCS Opposite-Spin Energy  =      -2.0934457609947326 [Eh]
	 SCS Correlation Energy    =      -2.2795887596866220 [Eh]
	 SCS Total Energy          =    -516.8638243153026224 [Eh]
	-----------------------------------------------------------

  Dipole Moment: [D]
     X:     0.6739      Y:    -3.5614      Z:     1.7608     Total:     4.0297

*** Psi4 exiting successfully. Buy a developer a beer!
