                               Psi4 1.3.2 release

  ==> Input File <==

--------------------------------------------------------------------------
#psi4
#
memory 32 gb

molecule  {
0 1
  O        0.9417500     2.5148810    -0.6596880
  N        2.0463840     0.6978680     0.1749460
  C        0.7564320    -1.5550710    -0.8733250
  C        1.8157710    -1.7711630     0.2163790
  C       -0.4497480    -0.7926040    -0.3845090
  C        2.0266990    -0.4897580     1.0228720
  C       -0.3650830     0.5850230    -0.0943830
  C        0.9143409     1.4529591    -0.2612091
  C       -1.6913630    -1.4231620    -0.2398970
  C       -1.5035900     1.3035830     0.2885800
  C       -2.8212120    -0.7143780     0.1714760
  C       -2.7281430     0.6547360     0.4326570
  H        0.4383490    -2.5216720    -1.2799980
  H        1.2165960    -1.0011160    -1.6986390
  H        1.5065410    -2.5704870     0.9013410
  H        2.7543720    -2.0878480    -0.2534440
  H        1.2290340    -0.3883270     1.7666860
  H        2.9729880    -0.5259550     1.5704730
  H        2.8793190     1.2773810     0.1528780
  H       -1.7755450    -2.4842720    -0.4701710
  H       -1.4080790     2.3720960     0.4641940
  H       -3.7741480    -1.2278540     0.2772780
  H       -3.6082280     1.2145190     0.7397060
units angstrom
no_reorient  #important for SAPT in psi4, default
symmetry c1  #important for SAPT in psi4, default
}

set PROPERTIES_ORIGIN ["COM"]
properties('MP2/aug-cc-pvtz', properties = ['dipole'])
--------------------------------------------------------------------------

    Molecular point group: c1
  Charge       = 0
  Multiplicity = 1
  Basis Set: AUG-CC-PVTZ
    Blend: AUG-CC-PVTZ
  Basis Set: (AUG-CC-PVTZ AUX)
    Blend: AUG-CC-PVTZ-JKFIT

    Orbital Energies [Eh]
    ---------------------

    Doubly Occupied:

       1A    -20.536545     2A    -15.568788     3A    -11.350574
       4A    -11.270126     5A    -11.254505     6A    -11.244916
       7A    -11.244394     8A    -11.241582     9A    -11.239308
      10A    -11.237338    11A    -11.234831    12A    -11.232554
      13A     -1.443732    14A     -1.221368    15A     -1.158867
      16A     -1.076639    17A     -1.028981    18A     -1.015448
      19A     -0.931289    20A     -0.869091    21A     -0.835627
      22A     -0.794662    23A     -0.765763    24A     -0.690887
      25A     -0.688515    26A     -0.672266    27A     -0.655993
      28A     -0.632752    29A     -0.612213    30A     -0.602519
      31A     -0.598440    32A     -0.577212    33A     -0.568003
      34A     -0.533558    35A     -0.522578    36A     -0.515333
      37A     -0.489726    38A     -0.487473    39A     -0.476936
      40A     -0.421161    41A     -0.388633    42A     -0.341857
      43A     -0.332904

  @DF-RHF Final Energy:  -514.58576353364424

   => Energetics <=

    Nuclear Repulsion Energy =            684.6618621636613398
    One-Electron Energy =               -2057.2834729534465623
    Two-Electron Energy =                 858.0358472561410963
    Total Energy =                       -514.5857635336442399
  Basis Set: (AUG-CC-PVTZ AUX)
    Blend: AUG-CC-PVTZ-RI
    Molecular point group: c1

    Geometry (in Angstrom), charge = 0, multiplicity = 1:

       Center              X                  Y                   Z               Mass
    ------------   -----------------  -----------------  -----------------  -----------------
         O            0.956535153132     2.459047470083    -0.643728047857    15.994914619570
         N            2.061169153132     0.642034470083     0.190905952143    14.003074004430
         C            0.771217153132    -1.610904529917    -0.857365047857    12.000000000000
         C            1.830556153132    -1.826996529917     0.232338952143    12.000000000000
         C           -0.434962846868    -0.848437529917    -0.368549047857    12.000000000000
         C            2.041484153132    -0.545591529917     1.038831952143    12.000000000000
         C           -0.350297846868     0.529189470083    -0.078423047857    12.000000000000
         C            0.929126053132     1.397125570083    -0.245249147857    12.000000000000
         C           -1.676577846868    -1.478995529917    -0.223937047857    12.000000000000
         C           -1.488804846868     1.247749470083     0.304539952143    12.000000000000
         C           -2.806426846868    -0.770211529917     0.187435952143    12.000000000000
         C           -2.713357846868     0.598902470083     0.448616952143    12.000000000000
         H            0.453134153132    -2.577505529917    -1.264038047857     1.007825032230
         H            1.231381153132    -1.056949529917    -1.682679047857     1.007825032230
         H            1.521326153132    -2.626320529917     0.917300952143     1.007825032230
         H            2.769157153132    -2.143681529917    -0.237484047857     1.007825032230
         H            1.243819153132    -0.444160529917     1.782645952143     1.007825032230
         H            2.987773153132    -0.581788529917     1.586432952143     1.007825032230
         H            2.894104153132     1.221547470083     0.168837952143     1.007825032230
         H           -1.760759846868    -2.540105529917    -0.454211047857     1.007825032230
         H           -1.393293846868     2.316262470083     0.480153952143     1.007825032230
         H           -3.759362846868    -1.283687529917     0.293237952143     1.007825032230
         H           -3.593442846868     1.158685470083     0.755665952143     1.007825032230

  Basis Set: AUG-CC-PVTZ
    Blend: AUG-CC-PVTZ
  Basis Set: (AUG-CC-PVTZ AUX)
    Blend: AUG-CC-PVTZ-JKFIT
	 Reference Energy          =    -514.5857635336442399 [Eh]
	 Singles Energy            =      -0.0000000000000000 [Eh]
	 Same-Spin Energy          =      -0.5566285015796711 [Eh]
	 Opposite-Spin Energy      =      -1.7404880395141977 [Eh]
	 Correlation Energy        =      -2.2971165410938688 [Eh]
	 Total Energy              =    -516.8828800747380683 [Eh]

	 ================> DF-SCS-MP2 Energies <==================
	-----------------------------------------------------------
	 SCS Same-Spin Scale       =       0.3333333333333333 [-]
	 SCS Opposite-Spin Scale   =       1.2000000000000000 [-]
	 SCS Same-Spin Energy      =      -0.1855428338598904 [Eh]
	 SCS Opposite-Spin Energy  =      -2.0885856474170370 [Eh]
	 SCS Correlation Energy    =      -2.2741284812769273 [Eh]
	 SCS Total Energy          =    -516.8598920149211153 [Eh]
	-----------------------------------------------------------

  Dipole Moment: [D]
     X:     0.5715      Y:    -2.8290      Z:     1.4525     Total:     3.2310

*** Psi4 exiting successfully. Buy a developer a beer!
