                               Psi4 1.3.2 release

  ==> Input File <==

--------------------------------------------------------------------------
#psi4
#
memory 32 gb

molecule  {
0 1
  O        0.9417500     2.5148810    -0.6596880
  N        2.0463840     0.6978680     0.1749460
  C        0.7564320    -1.5550710    -0.8733250
  C        1.8157710    -1.7711630     0.2163790
  C       -0.3060061    -0.7865567    -0.4176114
  C        2.0266990    -0.4897580     1.0228720
  C       -0.3650830     0.5850230    -0.0943830
  C        0.9119250     1.3593610    -0.2260870
  C       -1.6913630    -1.4231620    -0.2398970
  C       -1.5035900     1.3035830     0.2885800
  C       -2.8212120    -0.7143780     0.1714760
  C       -2.7281430     0.6547360     0.4326570
  H        0.4383490    -2.5216720    -1.2799980
  H        1.2165960    -1.0011160    -1.6986390
  H        1.5065410    -2.5704870     0.9013410
  H        2.7543720    -2.0878480    -0.2534440
  H        1.2290340    -0.3883270     1.7666860
  H        2.9729880    -0.5259550     1.5704730
  H        2.8793190     1.2773810     0.1528780
  H       -1.7755450    -2.4842720    -0.4701710
  H       -1.4080790     2.3720960     0.4641940
  H       -3.7741480    -1.2278540     0.2772780
  H       -3.6082280     1.2145190     0.7397060
units angstrom
no_reorient  #important for SAPT in psi4, default
symmetry c1  #important for SAPT in psi4, default
}

set PROPERTIES_ORIGIN ["COM"]
properties('MP2/aug-cc-pvtz', properties = ['dipole'])
--------------------------------------------------------------------------

    Molecular point group: c1
  Charge       = 0
  Multiplicity = 1
  Basis Set: AUG-CC-PVTZ
    Blend: AUG-CC-PVTZ
  Basis Set: (AUG-CC-PVTZ AUX)
    Blend: AUG-CC-PVTZ-JKFIT

    Orbital Energies [Eh]
    ---------------------

    Doubly Occupied:

       1A    -20.512785     2A    -15.582919     3A    -11.347169
       4A    -11.277140     5A    -11.268421     6A    -11.253356
       7A    -11.248766     8A    -11.247227     9A    -11.245100
      10A    -11.241507    11A    -11.239921    12A    -11.236493
      13A     -1.367385    14A     -1.236397    15A     -1.158671
      16A     -1.098738    17A     -1.038410    18A     -1.012532
      19A     -0.943167    20A     -0.879701    21A     -0.846207
      22A     -0.797158    23A     -0.769399    24A     -0.694835
      25A     -0.689092    26A     -0.676825    27A     -0.656444
      28A     -0.629776    29A     -0.613354    30A     -0.598556
      31A     -0.588982    32A     -0.573337    33A     -0.562869
      34A     -0.540273    35A     -0.522835    36A     -0.506679
      37A     -0.500304    38A     -0.484365    39A     -0.476519
      40A     -0.415643    41A     -0.389734    42A     -0.345910
      43A     -0.321015

  @DF-RHF Final Energy:  -514.56663816775813

   => Energetics <=

    Nuclear Repulsion Energy =            685.4946648929576440
    One-Electron Energy =               -2058.8507760051547848
    Two-Electron Energy =                 858.7894729444390123
    Total Energy =                       -514.5666381677581285
  Basis Set: (AUG-CC-PVTZ AUX)
    Blend: AUG-CC-PVTZ-RI
    Molecular point group: c1

    Geometry (in Angstrom), charge = 0, multiplicity = 1:

       Center              X                  Y                   Z               Mass
    ------------   -----------------  -----------------  -----------------  -----------------
         O            0.946007035340     2.465569590112    -0.643878505944    15.994914619570
         N            2.050641035340     0.648556590112     0.190755494056    14.003074004430
         C            0.760689035340    -1.604382409888    -0.857515505944    12.000000000000
         C            1.820028035340    -1.820474409888     0.232188494056    12.000000000000
         C           -0.301749064660    -0.835868109888    -0.401801905944    12.000000000000
         C            2.030956035340    -0.539069409888     1.038681494056    12.000000000000
         C           -0.360825964660     0.535711590112    -0.078573505944    12.000000000000
         C            0.916182035340     1.310049590112    -0.210277505944    12.000000000000
         C           -1.687105964660    -1.472473409888    -0.224087505944    12.000000000000
         C           -1.499332964660     1.254271590112     0.304389494056    12.000000000000
         C           -2.816954964660    -0.763689409888     0.187285494056    12.000000000000
         C           -2.723885964660     0.605424590112     0.448466494056    12.000000000000
         H            0.442606035340    -2.570983409888    -1.264188505944     1.007825032230
         H            1.220853035340    -1.050427409888    -1.682829505944     1.007825032230
         H            1.510798035340    -2.619798409888     0.917150494056     1.007825032230
         H            2.758629035340    -2.137159409888    -0.237634505944     1.007825032230
         H            1.233291035340    -0.437638409888     1.782495494056     1.007825032230
         H            2.977245035340    -0.575266409888     1.586282494056     1.007825032230
         H            2.883576035340     1.228069590112     0.168687494056     1.007825032230
         H           -1.771287964660    -2.533583409888    -0.454361505944     1.007825032230
         H           -1.403821964660     2.322784590112     0.480003494056     1.007825032230
         H           -3.769890964660    -1.277165409888     0.293087494056     1.007825032230
         H           -3.603970964660     1.165207590112     0.755515494056     1.007825032230

  Basis Set: AUG-CC-PVTZ
    Blend: AUG-CC-PVTZ
  Basis Set: (AUG-CC-PVTZ AUX)
    Blend: AUG-CC-PVTZ-JKFIT
	 Reference Energy          =    -514.5666381677581285 [Eh]
	 Singles Energy            =      -0.0000000000000000 [Eh]
	 Same-Spin Energy          =      -0.5609071168420565 [Eh]
	 Opposite-Spin Energy      =      -1.7481612974275009 [Eh]
	 Correlation Energy        =      -2.3090684142695572 [Eh]
	 Total Energy              =    -516.8757065820276466 [Eh]

	 ================> DF-SCS-MP2 Energies <==================
	-----------------------------------------------------------
	 SCS Same-Spin Scale       =       0.3333333333333333 [-]
	 SCS Opposite-Spin Scale   =       1.2000000000000000 [-]
	 SCS Same-Spin Energy      =      -0.1869690389473522 [Eh]
	 SCS Opposite-Spin Energy  =      -2.0977935569130008 [Eh]
	 SCS Correlation Energy    =      -2.2847625958603528 [Eh]
	 SCS Total Energy          =    -516.8514007636184715 [Eh]
	-----------------------------------------------------------

  Dipole Moment: [D]
     X:     0.7513      Y:    -3.7137      Z:     1.7307     Total:     4.1655

*** Psi4 exiting successfully. Buy a developer a beer!
