                               Psi4 1.3.2 release

  ==> Input File <==

--------------------------------------------------------------------------
#psi4
#
memory 32 gb

molecule  {
0 1
  O        0.9417500     2.5148810    -0.6596880
  N        2.0463840     0.6978680     0.1749460
  C        0.7715938    -1.5356724    -0.8838882
  C        1.8157710    -1.7711630     0.2163790
  C       -0.4497480    -0.7926040    -0.3845090
  C        2.0266990    -0.4897580     1.0228720
  C       -0.3650830     0.5850230    -0.0943830
  C        0.9119250     1.3593610    -0.2260870
  C       -1.6913630    -1.4231620    -0.2398970
  C       -1.5035900     1.3035830     0.2885800
  C       -2.8212120    -0.7143780     0.1714760
  C       -2.7281430     0.6547360     0.4326570
  H        0.4383490    -2.5216720    -1.2799980
  H        1.2165960    -1.0011160    -1.6986390
  H        1.5065410    -2.5704870     0.9013410
  H        2.7543720    -2.0878480    -0.2534440
  H        1.2290340    -0.3883270     1.7666860
  H        2.9729880    -0.5259550     1.5704730
  H        2.8793190     1.2773810     0.1528780
  H       -1.7755450    -2.4842720    -0.4701710
  H       -1.4080790     2.3720960     0.4641940
  H       -3.7741480    -1.2278540     0.2772780
  H       -3.6082280     1.2145190     0.7397060
units angstrom
no_reorient  #important for SAPT in psi4, default
symmetry c1  #important for SAPT in psi4, default
}

set PROPERTIES_ORIGIN ["COM"]
properties('MP2/aug-cc-pvtz', properties = ['dipole'])
--------------------------------------------------------------------------

    Molecular point group: c1
  Charge       = 0
  Multiplicity = 1
  Basis Set: AUG-CC-PVTZ
    Blend: AUG-CC-PVTZ
  Basis Set: (AUG-CC-PVTZ AUX)
    Blend: AUG-CC-PVTZ-JKFIT

    Orbital Energies [Eh]
    ---------------------

    Doubly Occupied:

       1A    -20.515248     2A    -15.582779     3A    -11.351520
       4A    -11.275481     5A    -11.258411     6A    -11.248917
       7A    -11.246887     8A    -11.245329     9A    -11.242114
      10A    -11.239877    11A    -11.239248    12A    -11.237955
      13A     -1.369160    14A     -1.234989    15A     -1.163957
      16A     -1.081944    17A     -1.036801    18A     -1.020436
      19A     -0.938431    20A     -0.881164    21A     -0.841496
      22A     -0.798530    23A     -0.776451    24A     -0.697160
      25A     -0.685087    26A     -0.672317    27A     -0.653274
      28A     -0.622603    29A     -0.616039    30A     -0.599855
      31A     -0.587183    32A     -0.577402    33A     -0.555292
      34A     -0.537178    35A     -0.519468    36A     -0.509854
      37A     -0.493271    38A     -0.488624    39A     -0.477558
      40A     -0.423520    41A     -0.389542    42A     -0.343823
      43A     -0.336541

  @DF-RHF Final Energy:  -514.59580294612135

   => Energetics <=

    Nuclear Repulsion Energy =            685.1765498134943755
    One-Electron Energy =               -2058.3192657829199561
    Two-Electron Energy =                 858.5469130233042279
    Total Energy =                       -514.5958029461213528
  Basis Set: (AUG-CC-PVTZ AUX)
    Blend: AUG-CC-PVTZ-RI
    Molecular point group: c1

    Geometry (in Angstrom), charge = 0, multiplicity = 1:

       Center              X                  Y                   Z               Mass
    ------------   -----------------  -----------------  -----------------  -----------------
         O            0.955585643936     2.464574981483    -0.645557569616    15.994914619570
         N            2.060219643936     0.647561981483     0.189076430384    14.003074004430
         C            0.785429443936    -1.585978418517    -0.869757769616    12.000000000000
         C            1.829606643936    -1.821469018517     0.230509430384    12.000000000000
         C           -0.435912356064    -0.842910018517    -0.370378569616    12.000000000000
         C            2.040534643936    -0.540064018517     1.037002430384    12.000000000000
         C           -0.351247356064     0.534716981483    -0.080252569616    12.000000000000
         C            0.925760643936     1.309054981483    -0.211956569616    12.000000000000
         C           -1.677527356064    -1.473468018517    -0.225766569616    12.000000000000
         C           -1.489754356064     1.253276981483     0.302710430384    12.000000000000
         C           -2.807376356064    -0.764684018517     0.185606430384    12.000000000000
         C           -2.714307356064     0.604429981483     0.446787430384    12.000000000000
         H            0.452184643936    -2.571978018517    -1.265867569616     1.007825032230
         H            1.230431643936    -1.051422018517    -1.684508569616     1.007825032230
         H            1.520376643936    -2.620793018517     0.915471430384     1.007825032230
         H            2.768207643936    -2.138154018517    -0.239313569616     1.007825032230
         H            1.242869643936    -0.438633018517     1.780816430384     1.007825032230
         H            2.986823643936    -0.576261018517     1.584603430384     1.007825032230
         H            2.893154643936     1.227074981483     0.167008430384     1.007825032230
         H           -1.761709356064    -2.534578018517    -0.456040569616     1.007825032230
         H           -1.394243356064     2.321789981483     0.478324430384     1.007825032230
         H           -3.760312356064    -1.278160018517     0.291408430384     1.007825032230
         H           -3.594392356064     1.164212981483     0.753836430384     1.007825032230

  Basis Set: AUG-CC-PVTZ
    Blend: AUG-CC-PVTZ
  Basis Set: (AUG-CC-PVTZ AUX)
    Blend: AUG-CC-PVTZ-JKFIT
	 Reference Energy          =    -514.5958029461213528 [Eh]
	 Singles Energy            =      -0.0000000000000000 [Eh]
	 Same-Spin Energy          =      -0.5586438358096154 [Eh]
	 Opposite-Spin Energy      =      -1.7444297609294519 [Eh]
	 Correlation Energy        =      -2.3030735967390674 [Eh]
	 Total Energy              =    -516.8988765428604211 [Eh]

	 ================> DF-SCS-MP2 Energies <==================
	-----------------------------------------------------------
	 SCS Same-Spin Scale       =       0.3333333333333333 [-]
	 SCS Opposite-Spin Scale   =       1.2000000000000000 [-]
	 SCS Same-Spin Energy      =      -0.1862146119365385 [Eh]
	 SCS Opposite-Spin Energy  =      -2.0933157131153424 [Eh]
	 SCS Correlation Energy    =      -2.2795303250518808 [Eh]
	 SCS Total Energy          =    -516.8753332711731900 [Eh]
	-----------------------------------------------------------

  Dipole Moment: [D]
     X:     0.6301      Y:    -3.6034      Z:     1.7658     Total:     4.0620

*** Psi4 exiting successfully. Buy a developer a beer!
