                               Psi4 1.3.2 release

  ==> Input File <==

--------------------------------------------------------------------------
#psi4
#
memory 32 gb

molecule  {
0 1
  O        0.9417500     2.5148810    -0.6596880
  N        2.0463840     0.6978680     0.1749460
  C        0.7564320    -1.5550710    -0.8733250
  C        1.8624788    -1.7892924     0.2347335
  C       -0.4497480    -0.7926040    -0.3845090
  C        2.0266990    -0.4897580     1.0228720
  C       -0.3650830     0.5850230    -0.0943830
  C        0.9119250     1.3593610    -0.2260870
  C       -1.6913630    -1.4231620    -0.2398970
  C       -1.5035900     1.3035830     0.2885800
  C       -2.8212120    -0.7143780     0.1714760
  C       -2.7281430     0.6547360     0.4326570
  H        0.4383490    -2.5216720    -1.2799980
  H        1.2165960    -1.0011160    -1.6986390
  H        1.5065410    -2.5704870     0.9013410
  H        2.7543720    -2.0878480    -0.2534440
  H        1.2290340    -0.3883270     1.7666860
  H        2.9729880    -0.5259550     1.5704730
  H        2.8793190     1.2773810     0.1528780
  H       -1.7755450    -2.4842720    -0.4701710
  H       -1.4080790     2.3720960     0.4641940
  H       -3.7741480    -1.2278540     0.2772780
  H       -3.6082280     1.2145190     0.7397060
units angstrom
no_reorient  #important for SAPT in psi4, default
symmetry c1  #important for SAPT in psi4, default
}

set PROPERTIES_ORIGIN ["COM"]
properties('MP2/aug-cc-pvtz', properties = ['dipole'])
--------------------------------------------------------------------------

    Molecular point group: c1
  Charge       = 0
  Multiplicity = 1
  Basis Set: AUG-CC-PVTZ
    Blend: AUG-CC-PVTZ
  Basis Set: (AUG-CC-PVTZ AUX)
    Blend: AUG-CC-PVTZ-JKFIT

    Orbital Energies [Eh]
    ---------------------

    Doubly Occupied:

       1A    -20.515094     2A    -15.583036     3A    -11.351419
       4A    -11.275920     5A    -11.258368     6A    -11.248658
       7A    -11.246948     8A    -11.245341     9A    -11.241579
      10A    -11.240559    11A    -11.239654    12A    -11.236709
      13A     -1.368999    14A     -1.234347    15A     -1.163669
      16A     -1.077548    17A     -1.036805    18A     -1.020993
      19A     -0.935566    20A     -0.882053    21A     -0.843058
      22A     -0.799744    23A     -0.776030    24A     -0.696693
      25A     -0.685234    26A     -0.671805    27A     -0.652082
      28A     -0.622792    29A     -0.617009    30A     -0.599929
      31A     -0.586683    32A     -0.575289    33A     -0.558504
      34A     -0.536132    35A     -0.519310    36A     -0.509044
      37A     -0.492490    38A     -0.487476    39A     -0.478891
      40A     -0.423363    41A     -0.390086    42A     -0.343715
      43A     -0.335123

  @DF-RHF Final Energy:  -514.59436998656508

   => Energetics <=

    Nuclear Repulsion Energy =            684.2298365320061748
    One-Electron Energy =               -2056.4409154173495153
    Two-Electron Energy =                 857.6167088987782563
    Total Energy =                       -514.5943699865650842
  Basis Set: (AUG-CC-PVTZ AUX)
    Blend: AUG-CC-PVTZ-RI
    Molecular point group: c1

    Geometry (in Angstrom), charge = 0, multiplicity = 1:

       Center              X                  Y                   Z               Mass
    ------------   -----------------  -----------------  -----------------  -----------------
         O            0.953235616313     2.467370639780    -0.647711801335    15.994914619570
         N            2.057869616313     0.650357639780     0.186922198665    14.003074004430
         C            0.767917616313    -1.602581360220    -0.861348801335    12.000000000000
         C            1.873964416313    -1.836802760220     0.246709698665    12.000000000000
         C           -0.438262383687    -0.840114360220    -0.372532801335    12.000000000000
         C            2.038184616313    -0.537268360220     1.034848198665    12.000000000000
         C           -0.353597383687     0.537512639780    -0.082406801335    12.000000000000
         C            0.923410616313     1.311850639780    -0.214110801335    12.000000000000
         C           -1.679877383687    -1.470672360220    -0.227920801335    12.000000000000
         C           -1.492104383687     1.256072639780     0.300556198665    12.000000000000
         C           -2.809726383687    -0.761888360220     0.183452198665    12.000000000000
         C           -2.716657383687     0.607225639780     0.444633198665    12.000000000000
         H            0.449834616313    -2.569182360220    -1.268021801335     1.007825032230
         H            1.228081616313    -1.048626360220    -1.686662801335     1.007825032230
         H            1.518026616313    -2.617997360220     0.913317198665     1.007825032230
         H            2.765857616313    -2.135358360220    -0.241467801335     1.007825032230
         H            1.240519616313    -0.435837360220     1.778662198665     1.007825032230
         H            2.984473616313    -0.573465360220     1.582449198665     1.007825032230
         H            2.890804616313     1.229870639780     0.164854198665     1.007825032230
         H           -1.764059383687    -2.531782360220    -0.458194801335     1.007825032230
         H           -1.396593383687     2.324585639780     0.476170198665     1.007825032230
         H           -3.762662383687    -1.275364360220     0.289254198665     1.007825032230
         H           -3.596742383687     1.167008639780     0.751682198665     1.007825032230

  Basis Set: AUG-CC-PVTZ
    Blend: AUG-CC-PVTZ
  Basis Set: (AUG-CC-PVTZ AUX)
    Blend: AUG-CC-PVTZ-JKFIT
	 Reference Energy          =    -514.5943699865650842 [Eh]
	 Singles Energy            =      -0.0000000000000000 [Eh]
	 Same-Spin Energy          =      -0.5585026417996094 [Eh]
	 Opposite-Spin Energy      =      -1.7443174525186271 [Eh]
	 Correlation Energy        =      -2.3028200943182364 [Eh]
	 Total Energy              =    -516.8971900808833198 [Eh]

	 ================> DF-SCS-MP2 Energies <==================
	-----------------------------------------------------------
	 SCS Same-Spin Scale       =       0.3333333333333333 [-]
	 SCS Opposite-Spin Scale   =       1.2000000000000000 [-]
	 SCS Same-Spin Energy      =      -0.1861675472665364 [Eh]
	 SCS Opposite-Spin Energy  =      -2.0931809430223525 [Eh]
	 SCS Correlation Energy    =      -2.2793484902888888 [Eh]
	 SCS Total Energy          =    -516.8737184768539237 [Eh]
	-----------------------------------------------------------

  Dipole Moment: [D]
     X:     0.6528      Y:    -3.6291      Z:     1.7698     Total:     4.0901

*** Psi4 exiting successfully. Buy a developer a beer!
