                               Psi4 1.3.2 release

  ==> Input File <==

--------------------------------------------------------------------------
#psi4
#
memory 32 gb

molecule  {
0 1
  O        0.9417500     2.5148810    -0.6596880
  N        2.0463840     0.6978680     0.1749460
  C        0.7564320    -1.5550710    -0.8733250
  C        1.8157710    -1.7711630     0.2163790
  C       -0.4497480    -0.7926040    -0.3845090
  C        2.0266990    -0.4897580     1.0228720
  C       -0.3650830     0.5850230    -0.0943830
  C        0.9952184     1.4748858    -0.2454013
  C       -1.6913630    -1.4231620    -0.2398970
  C       -1.5035900     1.3035830     0.2885800
  C       -2.8212120    -0.7143780     0.1714760
  C       -2.7281430     0.6547360     0.4326570
  H        0.4383490    -2.5216720    -1.2799980
  H        1.2165960    -1.0011160    -1.6986390
  H        1.5065410    -2.5704870     0.9013410
  H        2.7543720    -2.0878480    -0.2534440
  H        1.2290340    -0.3883270     1.7666860
  H        2.9729880    -0.5259550     1.5704730
  H        2.8793190     1.2773810     0.1528780
  H       -1.7755450    -2.4842720    -0.4701710
  H       -1.4080790     2.3720960     0.4641940
  H       -3.7741480    -1.2278540     0.2772780
  H       -3.6082280     1.2145190     0.7397060
units angstrom
no_reorient  #important for SAPT in psi4, default
symmetry c1  #important for SAPT in psi4, default
}

set PROPERTIES_ORIGIN ["COM"]
properties('MP2/aug-cc-pvtz', properties = ['dipole'])
--------------------------------------------------------------------------

    Molecular point group: c1
  Charge       = 0
  Multiplicity = 1
  Basis Set: AUG-CC-PVTZ
    Blend: AUG-CC-PVTZ
  Basis Set: (AUG-CC-PVTZ AUX)
    Blend: AUG-CC-PVTZ-JKFIT

    Orbital Energies [Eh]
    ---------------------

    Doubly Occupied:

       1A    -20.537012     2A    -15.579465     3A    -11.350690
       4A    -11.277395     5A    -11.247516     6A    -11.238981
       7A    -11.238761     8A    -11.235170     9A    -11.235086
      10A    -11.235009    11A    -11.233794    12A    -11.233027
      13A     -1.454941    14A     -1.242072    15A     -1.153781
      16A     -1.078550    17A     -1.019918    18A     -1.014168
      19A     -0.936027    20A     -0.861547    21A     -0.833959
      22A     -0.792044    23A     -0.767555    24A     -0.696103
      25A     -0.689078    26A     -0.673537    27A     -0.655796
      28A     -0.635096    29A     -0.611434    30A     -0.606163
      31A     -0.598438    32A     -0.578269    33A     -0.568056
      34A     -0.533488    35A     -0.523279    36A     -0.514683
      37A     -0.488940    38A     -0.485056    39A     -0.476238
      40A     -0.409222    41A     -0.400109    42A     -0.335257
      43A     -0.328095

  @DF-RHF Final Energy:  -514.57516698752670

   => Energetics <=

    Nuclear Repulsion Energy =            684.3492601614715340
    One-Electron Energy =               -2056.6432424732779509
    Two-Electron Energy =                 857.7188153242796034
    Total Energy =                       -514.5751669875266998
  Basis Set: (AUG-CC-PVTZ AUX)
    Blend: AUG-CC-PVTZ-RI
    Molecular point group: c1

    Geometry (in Angstrom), charge = 0, multiplicity = 1:

       Center              X                  Y                   Z               Mass
    ------------   -----------------  -----------------  -----------------  -----------------
         O            0.950510162353     2.457414034760    -0.644905654104    15.994914619570
         N            2.055144162353     0.640401034760     0.189728345896    14.003074004430
         C            0.765192162353    -1.612537965240    -0.858542654104    12.000000000000
         C            1.824531162353    -1.828629965240     0.231161345896    12.000000000000
         C           -0.440987837647    -0.850070965240    -0.369726654104    12.000000000000
         C            2.035459162353    -0.547224965240     1.037654345896    12.000000000000
         C           -0.356322837647     0.527556034760    -0.079600654104    12.000000000000
         C            1.003978562353     1.417418834760    -0.230618954104    12.000000000000
         C           -1.682602837647    -1.480628965240    -0.225114654104    12.000000000000
         C           -1.494829837647     1.246116034760     0.303362345896    12.000000000000
         C           -2.812451837647    -0.771844965240     0.186258345896    12.000000000000
         C           -2.719382837647     0.597269034760     0.447439345896    12.000000000000
         H            0.447109162353    -2.579138965240    -1.265215654104     1.007825032230
         H            1.225356162353    -1.058582965240    -1.683856654104     1.007825032230
         H            1.515301162353    -2.627953965240     0.916123345896     1.007825032230
         H            2.763132162353    -2.145314965240    -0.238661654104     1.007825032230
         H            1.237794162353    -0.445793965240     1.781468345896     1.007825032230
         H            2.981748162353    -0.583421965240     1.585255345896     1.007825032230
         H            2.888079162353     1.219914034760     0.167660345896     1.007825032230
         H           -1.766784837647    -2.541738965240    -0.455388654104     1.007825032230
         H           -1.399318837647     2.314629034760     0.478976345896     1.007825032230
         H           -3.765387837647    -1.285320965240     0.292060345896     1.007825032230
         H           -3.599467837647     1.157052034760     0.754488345896     1.007825032230

  Basis Set: AUG-CC-PVTZ
    Blend: AUG-CC-PVTZ
  Basis Set: (AUG-CC-PVTZ AUX)
    Blend: AUG-CC-PVTZ-JKFIT
	 Reference Energy          =    -514.5751669875266998 [Eh]
	 Singles Energy            =      -0.0000000000000000 [Eh]
	 Same-Spin Energy          =      -0.5564407179784276 [Eh]
	 Opposite-Spin Energy      =      -1.7398429737192074 [Eh]
	 Correlation Energy        =      -2.2962836916976350 [Eh]
	 Total Energy              =    -516.8714506792243810 [Eh]

	 ================> DF-SCS-MP2 Energies <==================
	-----------------------------------------------------------
	 SCS Same-Spin Scale       =       0.3333333333333333 [-]
	 SCS Opposite-Spin Scale   =       1.2000000000000000 [-]
	 SCS Same-Spin Energy      =      -0.1854802393261425 [Eh]
	 SCS Opposite-Spin Energy  =      -2.0878115684630489 [Eh]
	 SCS Correlation Energy    =      -2.2732918077891915 [Eh]
	 SCS Total Energy          =    -516.8484587953158780 [Eh]
	-----------------------------------------------------------

  Dipole Moment: [D]
     X:     1.2293      Y:    -2.7554      Z:     1.5454     Total:     3.3900

*** Psi4 exiting successfully. Buy a developer a beer!
