                               Psi4 1.3.2 release

  ==> Input File <==

--------------------------------------------------------------------------
#psi4
#
memory 32 gb

molecule  {
0 1
  O        0.9417500     2.5148810    -0.6596880
  N        2.0463840     0.6978680     0.1749460
  C        0.7630723    -1.6060076    -0.8885639
  C        1.8157710    -1.7711630     0.2163790
  C       -0.4497480    -0.7926040    -0.3845090
  C        2.0266990    -0.4897580     1.0228720
  C       -0.3650830     0.5850230    -0.0943830
  C        0.9119250     1.3593610    -0.2260870
  C       -1.6913630    -1.4231620    -0.2398970
  C       -1.5035900     1.3035830     0.2885800
  C       -2.8212120    -0.7143780     0.1714760
  C       -2.7281430     0.6547360     0.4326570
  H        0.4383490    -2.5216720    -1.2799980
  H        1.2165960    -1.0011160    -1.6986390
  H        1.5065410    -2.5704870     0.9013410
  H        2.7543720    -2.0878480    -0.2534440
  H        1.2290340    -0.3883270     1.7666860
  H        2.9729880    -0.5259550     1.5704730
  H        2.8793190     1.2773810     0.1528780
  H       -1.7755450    -2.4842720    -0.4701710
  H       -1.4080790     2.3720960     0.4641940
  H       -3.7741480    -1.2278540     0.2772780
  H       -3.6082280     1.2145190     0.7397060
units angstrom
no_reorient  #important for SAPT in psi4, default
symmetry c1  #important for SAPT in psi4, default
}

set PROPERTIES_ORIGIN ["COM"]
properties('MP2/aug-cc-pvtz', properties = ['dipole'])
--------------------------------------------------------------------------

    Molecular point group: c1
  Charge       = 0
  Multiplicity = 1
  Basis Set: AUG-CC-PVTZ
    Blend: AUG-CC-PVTZ
  Basis Set: (AUG-CC-PVTZ AUX)
    Blend: AUG-CC-PVTZ-JKFIT

    Orbital Energies [Eh]
    ---------------------

    Doubly Occupied:

       1A    -20.514995     2A    -15.582792     3A    -11.351309
       4A    -11.276751     5A    -11.259646     6A    -11.248417
       7A    -11.247426     8A    -11.245604     9A    -11.240884
      10A    -11.239352    11A    -11.239235    12A    -11.237771
      13A     -1.368904    14A     -1.234434    15A     -1.162786
      16A     -1.080334    17A     -1.036123    18A     -1.019775
      19A     -0.940075    20A     -0.880934    21A     -0.839056
      22A     -0.800512    23A     -0.776130    24A     -0.695989
      25A     -0.687630    26A     -0.670381    27A     -0.652018
      28A     -0.623994    29A     -0.615149    30A     -0.599963
      31A     -0.586303    32A     -0.577502    33A     -0.557927
      34A     -0.534871    35A     -0.517734    36A     -0.510263
      37A     -0.501369    38A     -0.489003    39A     -0.471631
      40A     -0.423024    41A     -0.389445    42A     -0.343653
      43A     -0.335955

  @DF-RHF Final Energy:  -514.59431473764096

   => Energetics <=

    Nuclear Repulsion Energy =            684.1949559917778743
    One-Electron Energy =               -2056.3644408790983107
    Two-Electron Energy =                 857.5751701496793657
    Total Energy =                       -514.5943147376409570
  Basis Set: (AUG-CC-PVTZ AUX)
    Blend: AUG-CC-PVTZ-RI
    Molecular point group: c1

    Geometry (in Angstrom), charge = 0, multiplicity = 1:

       Center              X                  Y                   Z               Mass
    ------------   -----------------  -----------------  -----------------  -----------------
         O            0.956220455335     2.469814620831    -0.645209252106    15.994914619570
         N            2.060854455335     0.652801620831     0.189424747894    14.003074004430
         C            0.777542755335    -1.651073979169    -0.874085152106    12.000000000000
         C            1.830241455335    -1.816229379169     0.230857747894    12.000000000000
         C           -0.435277544665    -0.837670379169    -0.370030252106    12.000000000000
         C            2.041169455335    -0.534824379169     1.037350747894    12.000000000000
         C           -0.350612544665     0.539956620831    -0.079904252106    12.000000000000
         C            0.926395455335     1.314294620831    -0.211608252106    12.000000000000
         C           -1.676892544665    -1.468228379169    -0.225418252106    12.000000000000
         C           -1.489119544665     1.258516620831     0.303058747894    12.000000000000
         C           -2.806741544665    -0.759444379169     0.185954747894    12.000000000000
         C           -2.713672544665     0.609669620831     0.447135747894    12.000000000000
         H            0.452819455335    -2.566738379169    -1.265519252106     1.007825032230
         H            1.231066455335    -1.046182379169    -1.684160252106     1.007825032230
         H            1.521011455335    -2.615553379169     0.915819747894     1.007825032230
         H            2.768842455335    -2.132914379169    -0.238965252106     1.007825032230
         H            1.243504455335    -0.433393379169     1.781164747894     1.007825032230
         H            2.987458455335    -0.571021379169     1.584951747894     1.007825032230
         H            2.893789455335     1.232314620831     0.167356747894     1.007825032230
         H           -1.761074544665    -2.529338379169    -0.455692252106     1.007825032230
         H           -1.393608544665     2.327029620831     0.478672747894     1.007825032230
         H           -3.759677544665    -1.272920379169     0.291756747894     1.007825032230
         H           -3.593757544665     1.169452620831     0.754184747894     1.007825032230

  Basis Set: AUG-CC-PVTZ
    Blend: AUG-CC-PVTZ
  Basis Set: (AUG-CC-PVTZ AUX)
    Blend: AUG-CC-PVTZ-JKFIT
	 Reference Energy          =    -514.5943147376409570 [Eh]
	 Singles Energy            =      -0.0000000000000000 [Eh]
	 Same-Spin Energy          =      -0.5582754174256432 [Eh]
	 Opposite-Spin Energy      =      -1.7440271736159891 [Eh]
	 Correlation Energy        =      -2.3023025910416326 [Eh]
	 Total Energy              =    -516.8966173286826233 [Eh]

	 ================> DF-SCS-MP2 Energies <==================
	-----------------------------------------------------------
	 SCS Same-Spin Scale       =       0.3333333333333333 [-]
	 SCS Opposite-Spin Scale   =       1.2000000000000000 [-]
	 SCS Same-Spin Energy      =      -0.1860918058085477 [Eh]
	 SCS Opposite-Spin Energy  =      -2.0928326083391871 [Eh]
	 SCS Correlation Energy    =      -2.2789244141477347 [Eh]
	 SCS Total Energy          =    -516.8732391517886526 [Eh]
	-----------------------------------------------------------

  Dipole Moment: [D]
     X:     0.6312      Y:    -3.6359      Z:     1.7656     Total:     4.0909

*** Psi4 exiting successfully. Buy a developer a beer!
