                               Psi4 1.3.2 release

  ==> Input File <==

--------------------------------------------------------------------------
#psi4
#
memory 32 gb

molecule  {
0 1
  O        0.9417500     2.5148810    -0.6596880
  N        2.0463840     0.6978680     0.1749460
  C        0.7564320    -1.5550710    -0.8733250
  C        1.8157710    -1.7711630     0.2163790
  C       -0.4497480    -0.7926040    -0.3845090
  C        2.0012670    -0.4885492     1.0235922
  C       -0.3650830     0.5850230    -0.0943830
  C        0.9119250     1.3593610    -0.2260870
  C       -1.6913630    -1.4231620    -0.2398970
  C       -1.5035900     1.3035830     0.2885800
  C       -2.8212120    -0.7143780     0.1714760
  C       -2.7281430     0.6547360     0.4326570
  H        0.4383490    -2.5216720    -1.2799980
  H        1.2165960    -1.0011160    -1.6986390
  H        1.5065410    -2.5704870     0.9013410
  H        2.7543720    -2.0878480    -0.2534440
  H        1.2290340    -0.3883270     1.7666860
  H        2.9729880    -0.5259550     1.5704730
  H        2.8793190     1.2773810     0.1528780
  H       -1.7755450    -2.4842720    -0.4701710
  H       -1.4080790     2.3720960     0.4641940
  H       -3.7741480    -1.2278540     0.2772780
  H       -3.6082280     1.2145190     0.7397060
units angstrom
no_reorient  #important for SAPT in psi4, default
symmetry c1  #important for SAPT in psi4, default
}

set PROPERTIES_ORIGIN ["COM"]
properties('MP2/aug-cc-pvtz', properties = ['dipole'])
--------------------------------------------------------------------------

    Molecular point group: c1
  Charge       = 0
  Multiplicity = 1
  Basis Set: AUG-CC-PVTZ
    Blend: AUG-CC-PVTZ
  Basis Set: (AUG-CC-PVTZ AUX)
    Blend: AUG-CC-PVTZ-JKFIT

    Orbital Energies [Eh]
    ---------------------

    Doubly Occupied:

       1A    -20.515043     2A    -15.582822     3A    -11.351012
       4A    -11.275865     5A    -11.258329     6A    -11.248884
       7A    -11.247268     8A    -11.245621     9A    -11.241850
      10A    -11.239925    11A    -11.239060    12A    -11.237946
      13A     -1.369041    14A     -1.235202    15A     -1.164281
      16A     -1.082645    17A     -1.036659    18A     -1.020704
      19A     -0.938031    20A     -0.881141    21A     -0.841857
      22A     -0.798386    23A     -0.776836    24A     -0.697004
      25A     -0.686456    26A     -0.672322    27A     -0.651017
      28A     -0.623993    29A     -0.615491    30A     -0.600091
      31A     -0.586896    32A     -0.577322    33A     -0.556846
      34A     -0.535611    35A     -0.519974    36A     -0.509569
      37A     -0.491396    38A     -0.489490    39A     -0.478690
      40A     -0.423034    41A     -0.390390    42A     -0.343941
      43A     -0.336245

  @DF-RHF Final Energy:  -514.59574068398160

   => Energetics <=

    Nuclear Repulsion Energy =            685.4192987395962291
    One-Electron Energy =               -2058.8017015275609083
    Two-Electron Energy =                 858.7866621039829624
    Total Energy =                       -514.5957406839816031
  Basis Set: (AUG-CC-PVTZ AUX)
    Blend: AUG-CC-PVTZ-RI
    Molecular point group: c1

    Geometry (in Angstrom), charge = 0, multiplicity = 1:

       Center              X                  Y                   Z               Mass
    ------------   -----------------  -----------------  -----------------  -----------------
         O            0.958609689816     2.465930035450    -0.646398129487    15.994914619570
         N            2.063243689816     0.648917035450     0.188235870513    14.003074004430
         C            0.773291689816    -1.604021964550    -0.860035129487    12.000000000000
         C            1.832630689816    -1.820113964550     0.229668870513    12.000000000000
         C           -0.432888310184    -0.841554964550    -0.371219129487    12.000000000000
         C            2.018126689816    -0.537500164550     1.036882070513    12.000000000000
         C           -0.348223310184     0.536072035450    -0.081093129487    12.000000000000
         C            0.928784689816     1.310410035450    -0.212797129487    12.000000000000
         C           -1.674503310184    -1.472112964550    -0.226607129487    12.000000000000
         C           -1.486730310184     1.254632035450     0.301869870513    12.000000000000
         C           -2.804352310184    -0.763328964550     0.184765870513    12.000000000000
         C           -2.711283310184     0.605785035450     0.445946870513    12.000000000000
         H            0.455208689816    -2.570622964550    -1.266708129487     1.007825032230
         H            1.233455689816    -1.050066964550    -1.685349129487     1.007825032230
         H            1.523400689816    -2.619437964550     0.914630870513     1.007825032230
         H            2.771231689816    -2.136798964550    -0.240154129487     1.007825032230
         H            1.245893689816    -0.437277964550     1.779975870513     1.007825032230
         H            2.989847689816    -0.574905964550     1.583762870513     1.007825032230
         H            2.896178689816     1.228430035450     0.166167870513     1.007825032230
         H           -1.758685310184    -2.533222964550    -0.456881129487     1.007825032230
         H           -1.391219310184     2.323145035450     0.477483870513     1.007825032230
         H           -3.757288310184    -1.276804964550     0.290567870513     1.007825032230
         H           -3.591368310184     1.165568035450     0.752995870513     1.007825032230

  Basis Set: AUG-CC-PVTZ
    Blend: AUG-CC-PVTZ
  Basis Set: (AUG-CC-PVTZ AUX)
    Blend: AUG-CC-PVTZ-JKFIT
	 Reference Energy          =    -514.5957406839816031 [Eh]
	 Singles Energy            =      -0.0000000000000000 [Eh]
	 Same-Spin Energy          =      -0.5587242335422136 [Eh]
	 Opposite-Spin Energy      =      -1.7445122352702580 [Eh]
	 Correlation Energy        =      -2.3032364688124716 [Eh]
	 Total Energy              =    -516.8989771527940320 [Eh]

	 ================> DF-SCS-MP2 Energies <==================
	-----------------------------------------------------------
	 SCS Same-Spin Scale       =       0.3333333333333333 [-]
	 SCS Opposite-Spin Scale   =       1.2000000000000000 [-]
	 SCS Same-Spin Energy      =      -0.1862414111807378 [Eh]
	 SCS Opposite-Spin Energy  =      -2.0934146823243096 [Eh]
	 SCS Correlation Energy    =      -2.2796560935050474 [Eh]
	 SCS Total Energy          =    -516.8753967774866851 [Eh]
	-----------------------------------------------------------

  Dipole Moment: [D]
     X:     0.6111      Y:    -3.6160      Z:     1.7712     Total:     4.0726

*** Psi4 exiting successfully. Buy a developer a beer!
