                               Psi4 1.3.2 release

  ==> Input File <==

--------------------------------------------------------------------------
#psi4
#
memory 32 gb

molecule  {
0 1
  O        0.9417500     2.5148810    -0.6596880
  N        2.0463840     0.6978680     0.1749460
  C        0.7706495    -1.5329523    -0.8720351
  C        1.8157710    -1.7711630     0.2163790
  C       -0.4497480    -0.7926040    -0.3845090
  C        2.0266990    -0.4897580     1.0228720
  C       -0.3650830     0.5850230    -0.0943830
  C        0.9119250     1.3593610    -0.2260870
  C       -1.6913630    -1.4231620    -0.2398970
  C       -1.5035900     1.3035830     0.2885800
  C       -2.8212120    -0.7143780     0.1714760
  C       -2.7281430     0.6547360     0.4326570
  H        0.4383490    -2.5216720    -1.2799980
  H        1.2165960    -1.0011160    -1.6986390
  H        1.5065410    -2.5704870     0.9013410
  H        2.7543720    -2.0878480    -0.2534440
  H        1.2290340    -0.3883270     1.7666860
  H        2.9729880    -0.5259550     1.5704730
  H        2.8793190     1.2773810     0.1528780
  H       -1.7755450    -2.4842720    -0.4701710
  H       -1.4080790     2.3720960     0.4641940
  H       -3.7741480    -1.2278540     0.2772780
  H       -3.6082280     1.2145190     0.7397060
units angstrom
no_reorient  #important for SAPT in psi4, default
symmetry c1  #important for SAPT in psi4, default
}

set PROPERTIES_ORIGIN ["COM"]
properties('MP2/aug-cc-pvtz', properties = ['dipole'])
--------------------------------------------------------------------------

    Molecular point group: c1
  Charge       = 0
  Multiplicity = 1
  Basis Set: AUG-CC-PVTZ
    Blend: AUG-CC-PVTZ
  Basis Set: (AUG-CC-PVTZ AUX)
    Blend: AUG-CC-PVTZ-JKFIT

    Orbital Energies [Eh]
    ---------------------

    Doubly Occupied:

       1A    -20.515281     2A    -15.582790     3A    -11.351560
       4A    -11.275452     5A    -11.258226     6A    -11.248971
       7A    -11.246921     8A    -11.245360     9A    -11.242217
      10A    -11.239973    11A    -11.239626    12A    -11.237732
      13A     -1.369192    14A     -1.235142    15A     -1.164246
      16A     -1.083010    17A     -1.036966    18A     -1.020790
      19A     -0.938119    20A     -0.881412    21A     -0.841973
      22A     -0.797825    23A     -0.776491    24A     -0.697233
      25A     -0.685058    26A     -0.672582    27A     -0.653093
      28A     -0.622707    29A     -0.616640    30A     -0.599986
      31A     -0.587598    32A     -0.576916    33A     -0.555385
      34A     -0.536810    35A     -0.519678    36A     -0.509882
      37A     -0.492936    38A     -0.487119    39A     -0.478728
      40A     -0.423554    41A     -0.389546    42A     -0.343873
      43A     -0.336627

  @DF-RHF Final Energy:  -514.59560719870058

   => Energetics <=

    Nuclear Repulsion Energy =            685.3796279801779292
    One-Electron Energy =               -2058.7200149800523832
    Two-Electron Energy =                 858.7447798011738769
    Total Energy =                       -514.5956071987005771
  Basis Set: (AUG-CC-PVTZ AUX)
    Blend: AUG-CC-PVTZ-RI
    Molecular point group: c1

    Geometry (in Angstrom), charge = 0, multiplicity = 1:

       Center              X                  Y                   Z               Mass
    ------------   -----------------  -----------------  -----------------  -----------------
         O            0.955655989815     2.464372346913    -0.646440569439    15.994914619570
         N            2.060289989815     0.647359346913     0.188193430561    14.003074004430
         C            0.784555489815    -1.583460953087    -0.858787669439    12.000000000000
         C            1.829676989815    -1.821671653087     0.229626430561    12.000000000000
         C           -0.435842010185    -0.843112653087    -0.371261569439    12.000000000000
         C            2.040604989815    -0.540266653087     1.036119430561    12.000000000000
         C           -0.351177010185     0.534514346913    -0.081135569439    12.000000000000
         C            0.925830989815     1.308852346913    -0.212839569439    12.000000000000
         C           -1.677457010185    -1.473670653087    -0.226649569439    12.000000000000
         C           -1.489684010185     1.253074346913     0.301827430561    12.000000000000
         C           -2.807306010185    -0.764886653087     0.184723430561    12.000000000000
         C           -2.714237010185     0.604227346913     0.445904430561    12.000000000000
         H            0.452254989815    -2.572180653087    -1.266750569439     1.007825032230
         H            1.230501989815    -1.051624653087    -1.685391569439     1.007825032230
         H            1.520446989815    -2.620995653087     0.914588430561     1.007825032230
         H            2.768277989815    -2.138356653087    -0.240196569439     1.007825032230
         H            1.242939989815    -0.438835653087     1.779933430561     1.007825032230
         H            2.986893989815    -0.576463653087     1.583720430561     1.007825032230
         H            2.893224989815     1.226872346913     0.166125430561     1.007825032230
         H           -1.761639010185    -2.534780653087    -0.456923569439     1.007825032230
         H           -1.394173010185     2.321587346913     0.477441430561     1.007825032230
         H           -3.760242010185    -1.278362653087     0.290525430561     1.007825032230
         H           -3.594322010185     1.164010346913     0.752953430561     1.007825032230

  Basis Set: AUG-CC-PVTZ
    Blend: AUG-CC-PVTZ
  Basis Set: (AUG-CC-PVTZ AUX)
    Blend: AUG-CC-PVTZ-JKFIT
	 Reference Energy          =    -514.5956071987005771 [Eh]
	 Singles Energy            =      -0.0000000000000000 [Eh]
	 Same-Spin Energy          =      -0.5587613945269216 [Eh]
	 Opposite-Spin Energy      =      -1.7445506082660556 [Eh]
	 Correlation Energy        =      -2.3033120027929774 [Eh]
	 Total Energy              =    -516.8989192014935270 [Eh]

	 ================> DF-SCS-MP2 Energies <==================
	-----------------------------------------------------------
	 SCS Same-Spin Scale       =       0.3333333333333333 [-]
	 SCS Opposite-Spin Scale   =       1.2000000000000000 [-]
	 SCS Same-Spin Energy      =      -0.1862537981756405 [Eh]
	 SCS Opposite-Spin Energy  =      -2.0934607299192667 [Eh]
	 SCS Correlation Energy    =      -2.2797145280949072 [Eh]
	 SCS Total Energy          =    -516.8753217267955051 [Eh]
	-----------------------------------------------------------

  Dipole Moment: [D]
     X:     0.6298      Y:    -3.6002      Z:     1.7718     Total:     4.0617

*** Psi4 exiting successfully. Buy a developer a beer!
