                               Psi4 1.3.2 release

  ==> Input File <==

--------------------------------------------------------------------------
#psi4
#
memory 32 gb

molecule  {
0 1
  O        0.9417500     2.5148810    -0.6596880
  N        2.0463840     0.6978680     0.1749460
  C        0.7564320    -1.5550710    -0.8733250
  C        1.8157710    -1.7711630     0.2163790
  C       -0.5459948    -0.7873862    -0.3644966
  C        2.0266990    -0.4897580     1.0228720
  C       -0.3650830     0.5850230    -0.0943830
  C        0.9119250     1.3593610    -0.2260870
  C       -1.6913630    -1.4231620    -0.2398970
  C       -1.5035900     1.3035830     0.2885800
  C       -2.8212120    -0.7143780     0.1714760
  C       -2.7281430     0.6547360     0.4326570
  H        0.4383490    -2.5216720    -1.2799980
  H        1.2165960    -1.0011160    -1.6986390
  H        1.5065410    -2.5704870     0.9013410
  H        2.7543720    -2.0878480    -0.2534440
  H        1.2290340    -0.3883270     1.7666860
  H        2.9729880    -0.5259550     1.5704730
  H        2.8793190     1.2773810     0.1528780
  H       -1.7755450    -2.4842720    -0.4701710
  H       -1.4080790     2.3720960     0.4641940
  H       -3.7741480    -1.2278540     0.2772780
  H       -3.6082280     1.2145190     0.7397060
units angstrom
no_reorient  #important for SAPT in psi4, default
symmetry c1  #important for SAPT in psi4, default
}

set PROPERTIES_ORIGIN ["COM"]
properties('MP2/aug-cc-pvtz', properties = ['dipole'])
--------------------------------------------------------------------------

    Molecular point group: c1
  Charge       = 0
  Multiplicity = 1
  Basis Set: AUG-CC-PVTZ
    Blend: AUG-CC-PVTZ
  Basis Set: (AUG-CC-PVTZ AUX)
    Blend: AUG-CC-PVTZ-JKFIT

    Orbital Energies [Eh]
    ---------------------

    Doubly Occupied:

       1A    -20.516480     2A    -15.582630     3A    -11.354214
       4A    -11.275068     5A    -11.251605     6A    -11.249690
       7A    -11.246951     8A    -11.245748     9A    -11.240477
      10A    -11.239314    11A    -11.236316    12A    -11.232154
      13A     -1.370051    14A     -1.234235    15A     -1.171973
      16A     -1.073749    17A     -1.038106    18A     -1.026271
      19A     -0.935310    20A     -0.883314    21A     -0.836706
      22A     -0.798139    23A     -0.781836    24A     -0.698429
      25A     -0.683813    26A     -0.671748    27A     -0.651485
      28A     -0.627547    29A     -0.613152    30A     -0.600906
      31A     -0.585453    32A     -0.576864    33A     -0.553510
      34A     -0.534797    35A     -0.520313    36A     -0.512681
      37A     -0.494555    38A     -0.490681    39A     -0.458928
      40A     -0.426639    41A     -0.389208    42A     -0.350379
      43A     -0.339070

  @DF-RHF Final Energy:  -514.58665915389554

   => Energetics <=

    Nuclear Repulsion Energy =            685.1167455389935412
    One-Electron Energy =               -2058.2058234677524524
    Two-Electron Energy =                 858.5024187748632585
    Total Energy =                       -514.5866591538955390
  Basis Set: (AUG-CC-PVTZ AUX)
    Blend: AUG-CC-PVTZ-RI
    Molecular point group: c1

    Geometry (in Angstrom), charge = 0, multiplicity = 1:

       Center              X                  Y                   Z               Mass
    ------------   -----------------  -----------------  -----------------  -----------------
         O            0.963885057093     2.465631383934    -0.647835307034    15.994914619570
         N            2.068519057093     0.648618383934     0.186798692966    14.003074004430
         C            0.778567057093    -1.604320616066    -0.861472307034    12.000000000000
         C            1.837906057093    -1.820412616066     0.228231692966    12.000000000000
         C           -0.523859742907    -0.836635816066    -0.352643907034    12.000000000000
         C            2.048834057093    -0.539007616066     1.034724692966    12.000000000000
         C           -0.342947942907     0.535773383934    -0.082530307034    12.000000000000
         C            0.934060057093     1.310111383934    -0.214234307034    12.000000000000
         C           -1.669227942907    -1.472411616066    -0.228044307034    12.000000000000
         C           -1.481454942907     1.254333383934     0.300432692966    12.000000000000
         C           -2.799076942907    -0.763627616066     0.183328692966    12.000000000000
         C           -2.706007942907     0.605486383934     0.444509692966    12.000000000000
         H            0.460484057093    -2.570921616066    -1.268145307034     1.007825032230
         H            1.238731057093    -1.050365616066    -1.686786307034     1.007825032230
         H            1.528676057093    -2.619736616066     0.913193692966     1.007825032230
         H            2.776507057093    -2.137097616066    -0.241591307034     1.007825032230
         H            1.251169057093    -0.437576616066     1.778538692966     1.007825032230
         H            2.995123057093    -0.575204616066     1.582325692966     1.007825032230
         H            2.901454057093     1.228131383934     0.164730692966     1.007825032230
         H           -1.753409942907    -2.533521616066    -0.458318307034     1.007825032230
         H           -1.385943942907     2.322846383934     0.476046692966     1.007825032230
         H           -3.752012942907    -1.277103616066     0.289130692966     1.007825032230
         H           -3.586092942907     1.165269383934     0.751558692966     1.007825032230

  Basis Set: AUG-CC-PVTZ
    Blend: AUG-CC-PVTZ
  Basis Set: (AUG-CC-PVTZ AUX)
    Blend: AUG-CC-PVTZ-JKFIT
	 Reference Energy          =    -514.5866591538955390 [Eh]
	 Singles Energy            =      -0.0000000000000000 [Eh]
	 Same-Spin Energy          =      -0.5579324272756903 [Eh]
	 Opposite-Spin Energy      =      -1.7437442417561362 [Eh]
	 Correlation Energy        =      -2.3016766690318264 [Eh]
	 Total Energy              =    -516.8883358229273881 [Eh]

	 ================> DF-SCS-MP2 Energies <==================
	-----------------------------------------------------------
	 SCS Same-Spin Scale       =       0.3333333333333333 [-]
	 SCS Opposite-Spin Scale   =       1.2000000000000000 [-]
	 SCS Same-Spin Energy      =      -0.1859774757585634 [Eh]
	 SCS Opposite-Spin Energy  =      -2.0924930901073635 [Eh]
	 SCS Correlation Energy    =      -2.2784705658659270 [Eh]
	 SCS Total Energy          =    -516.8651297197615122 [Eh]
	-----------------------------------------------------------

  Dipole Moment: [D]
     X:     0.5708      Y:    -3.5537      Z:     1.7945     Total:     4.0218

*** Psi4 exiting successfully. Buy a developer a beer!
