                               Psi4 1.3.2 release

  ==> Input File <==

--------------------------------------------------------------------------
#psi4
#
memory 32 gb

molecule  {
0 1
  O        0.9417500     2.5148810    -0.6596880
  N        2.0463840     0.6978680     0.1749460
  C        0.7564320    -1.5550710    -0.8733250
  C        1.8157710    -1.7711630     0.2163790
  C       -0.4497480    -0.7926040    -0.3845090
  C        2.0253501    -0.5711362     1.0809734
  C       -0.3650830     0.5850230    -0.0943830
  C        0.9119250     1.3593610    -0.2260870
  C       -1.6913630    -1.4231620    -0.2398970
  C       -1.5035900     1.3035830     0.2885800
  C       -2.8212120    -0.7143780     0.1714760
  C       -2.7281430     0.6547360     0.4326570
  H        0.4383490    -2.5216720    -1.2799980
  H        1.2165960    -1.0011160    -1.6986390
  H        1.5065410    -2.5704870     0.9013410
  H        2.7543720    -2.0878480    -0.2534440
  H        1.2290340    -0.3883270     1.7666860
  H        2.9729880    -0.5259550     1.5704730
  H        2.8793190     1.2773810     0.1528780
  H       -1.7755450    -2.4842720    -0.4701710
  H       -1.4080790     2.3720960     0.4641940
  H       -3.7741480    -1.2278540     0.2772780
  H       -3.6082280     1.2145190     0.7397060
units angstrom
no_reorient  #important for SAPT in psi4, default
symmetry c1  #important for SAPT in psi4, default
}

set PROPERTIES_ORIGIN ["COM"]
properties('MP2/aug-cc-pvtz', properties = ['dipole'])
--------------------------------------------------------------------------

    Molecular point group: c1
  Charge       = 0
  Multiplicity = 1
  Basis Set: AUG-CC-PVTZ
    Blend: AUG-CC-PVTZ
  Basis Set: (AUG-CC-PVTZ AUX)
    Blend: AUG-CC-PVTZ-JKFIT

    Orbital Energies [Eh]
    ---------------------

    Doubly Occupied:

       1A    -20.510669     2A    -15.577590     3A    -11.347190
       4A    -11.279809     5A    -11.257888     6A    -11.248254
       7A    -11.246263     8A    -11.244595     9A    -11.241736
      10A    -11.241389    11A    -11.240127    12A    -11.239547
      13A     -1.363726    14A     -1.215422    15A     -1.162279
      16A     -1.085605    17A     -1.036929    18A     -1.024034
      19A     -0.942508    20A     -0.877468    21A     -0.841717
      22A     -0.798358    23A     -0.772328    24A     -0.694159
      25A     -0.679444    26A     -0.672925    27A     -0.646333
      28A     -0.622690    29A     -0.619152    30A     -0.599127
      31A     -0.588099    32A     -0.570620    33A     -0.555232
      34A     -0.540227    35A     -0.523400    36A     -0.507620
      37A     -0.496908    38A     -0.488522    39A     -0.480146
      40A     -0.418482    41A     -0.388803    42A     -0.343141
      43A     -0.336247

  @DF-RHF Final Energy:  -514.58861056135208

   => Energetics <=

    Nuclear Repulsion Energy =            683.8490239841819402
    One-Electron Energy =               -2055.7418597961514024
    Two-Electron Energy =                 857.3042252506173782
    Total Energy =                       -514.5886105613520840
  Basis Set: (AUG-CC-PVTZ AUX)
    Blend: AUG-CC-PVTZ-RI
    Molecular point group: c1

    Geometry (in Angstrom), charge = 0, multiplicity = 1:

       Center              X                  Y                   Z               Mass
    ------------   -----------------  -----------------  -----------------  -----------------
         O            0.956815612905     2.472082375884    -0.650672757175    15.994914619570
         N            2.061449612905     0.655069375884     0.183961242825    14.003074004430
         C            0.771497612905    -1.597869624116    -0.864309757175    12.000000000000
         C            1.830836612905    -1.813961624116     0.225394242825    12.000000000000
         C           -0.434682387095    -0.835402624116    -0.375493757175    12.000000000000
         C            2.040415712905    -0.613934824116     1.089988642825    12.000000000000
         C           -0.350017387095     0.542224375884    -0.085367757175    12.000000000000
         C            0.926990612905     1.316562375884    -0.217071757175    12.000000000000
         C           -1.676297387095    -1.465960624116    -0.230881757175    12.000000000000
         C           -1.488524387095     1.260784375884     0.297595242825    12.000000000000
         C           -2.806146387095    -0.757176624116     0.180491242825    12.000000000000
         C           -2.713077387095     0.611937375884     0.441672242825    12.000000000000
         H            0.453414612905    -2.564470624116    -1.270982757175     1.007825032230
         H            1.231661612905    -1.043914624116    -1.689623757175     1.007825032230
         H            1.521606612905    -2.613285624116     0.910356242825     1.007825032230
         H            2.769437612905    -2.130646624116    -0.244428757175     1.007825032230
         H            1.244099612905    -0.431125624116     1.775701242825     1.007825032230
         H            2.988053612905    -0.568753624116     1.579488242825     1.007825032230
         H            2.894384612905     1.234582375884     0.161893242825     1.007825032230
         H           -1.760479387095    -2.527070624116    -0.461155757175     1.007825032230
         H           -1.393013387095     2.329297375884     0.473209242825     1.007825032230
         H           -3.759082387095    -1.270652624116     0.286293242825     1.007825032230
         H           -3.593162387095     1.171720375884     0.748721242825     1.007825032230

  Basis Set: AUG-CC-PVTZ
    Blend: AUG-CC-PVTZ
  Basis Set: (AUG-CC-PVTZ AUX)
    Blend: AUG-CC-PVTZ-JKFIT
	 Reference Energy          =    -514.5886105613520840 [Eh]
	 Singles Energy            =      -0.0000000000000000 [Eh]
	 Same-Spin Energy          =      -0.5585650146981970 [Eh]
	 Opposite-Spin Energy      =      -1.7449296082586498 [Eh]
	 Correlation Energy        =      -2.3034946229568467 [Eh]
	 Total Energy              =    -516.8921051843088890 [Eh]

	 ================> DF-SCS-MP2 Energies <==================
	-----------------------------------------------------------
	 SCS Same-Spin Scale       =       0.3333333333333333 [-]
	 SCS Opposite-Spin Scale   =       1.2000000000000000 [-]
	 SCS Same-Spin Energy      =      -0.1861883382327323 [Eh]
	 SCS Opposite-Spin Energy  =      -2.0939155299103795 [Eh]
	 SCS Correlation Energy    =      -2.2801038681431121 [Eh]
	 SCS Total Energy          =    -516.8687144294951850 [Eh]
	-----------------------------------------------------------

  Dipole Moment: [D]
     X:     0.6723      Y:    -3.8435      Z:     1.8912     Total:     4.3360

*** Psi4 exiting successfully. Buy a developer a beer!
