                               Psi4 1.3.2 release

  ==> Input File <==

--------------------------------------------------------------------------
#psi4
#
memory 32 gb

molecule  {
0 1
  O        0.9417500     2.5148810    -0.6596880
  N        2.0463840     0.6978680     0.1749460
  C        0.7564320    -1.5550710    -0.8733250
  C        1.8157710    -1.7711630     0.2163790
  C       -0.4497480    -0.7926040    -0.3845090
  C        2.0266990    -0.4897580     1.0228720
  C       -0.3650830     0.5850230    -0.0943830
  C        0.8860093     1.4026789    -0.2122882
  C       -1.6913630    -1.4231620    -0.2398970
  C       -1.5035900     1.3035830     0.2885800
  C       -2.8212120    -0.7143780     0.1714760
  C       -2.7281430     0.6547360     0.4326570
  H        0.4383490    -2.5216720    -1.2799980
  H        1.2165960    -1.0011160    -1.6986390
  H        1.5065410    -2.5704870     0.9013410
  H        2.7543720    -2.0878480    -0.2534440
  H        1.2290340    -0.3883270     1.7666860
  H        2.9729880    -0.5259550     1.5704730
  H        2.8793190     1.2773810     0.1528780
  H       -1.7755450    -2.4842720    -0.4701710
  H       -1.4080790     2.3720960     0.4641940
  H       -3.7741480    -1.2278540     0.2772780
  H       -3.6082280     1.2145190     0.7397060
units angstrom
no_reorient  #important for SAPT in psi4, default
symmetry c1  #important for SAPT in psi4, default
}

set PROPERTIES_ORIGIN ["COM"]
properties('MP2/aug-cc-pvtz', properties = ['dipole'])
--------------------------------------------------------------------------

    Molecular point group: c1
  Charge       = 0
  Multiplicity = 1
  Basis Set: AUG-CC-PVTZ
    Blend: AUG-CC-PVTZ
  Basis Set: (AUG-CC-PVTZ AUX)
    Blend: AUG-CC-PVTZ-JKFIT

    Orbital Energies [Eh]
    ---------------------

    Doubly Occupied:

       1A    -20.524210     2A    -15.574992     3A    -11.352039
       4A    -11.271491     5A    -11.258976     6A    -11.248926
       7A    -11.246871     8A    -11.245392     9A    -11.242023
      10A    -11.239820    11A    -11.237472    12A    -11.235010
      13A     -1.392481    14A     -1.225532    15A     -1.163476
      16A     -1.079551    17A     -1.037116    18A     -1.018563
      19A     -0.934042    20A     -0.879380    21A     -0.839038
      22A     -0.797625    23A     -0.771558    24A     -0.694188
      25A     -0.683851    26A     -0.671909    27A     -0.652374
      28A     -0.626989    29A     -0.613456    30A     -0.600395
      31A     -0.591888    32A     -0.575756    33A     -0.559941
      34A     -0.534501    35A     -0.520282    36A     -0.512720
      37A     -0.491941    38A     -0.489040    39A     -0.478104
      40A     -0.426198    41A     -0.387798    42A     -0.344814
      43A     -0.336011

  @DF-RHF Final Energy:  -514.59565581459310

   => Energetics <=

    Nuclear Repulsion Energy =            684.9462181276010142
    One-Electron Energy =               -2057.8682684676423378
    Two-Electron Energy =                 858.3263945254482223
    Total Energy =                       -514.5956558145931012
  Basis Set: (AUG-CC-PVTZ AUX)
    Blend: AUG-CC-PVTZ-RI
    Molecular point group: c1

    Geometry (in Angstrom), charge = 0, multiplicity = 1:

       Center              X                  Y                   Z               Mass
    ------------   -----------------  -----------------  -----------------  -----------------
         O            0.958645723176     2.462793106896    -0.647372423257    15.994914619570
         N            2.063279723176     0.645780106896     0.187261576743    14.003074004430
         C            0.773327723176    -1.607158893104    -0.861009423257    12.000000000000
         C            1.832666723176    -1.823250893104     0.228694576743    12.000000000000
         C           -0.432852276824    -0.844691893104    -0.372193423257    12.000000000000
         C            2.043594723176    -0.541845893104     1.035187576743    12.000000000000
         C           -0.348187276824     0.532935106896    -0.082067423257    12.000000000000
         C            0.902905023176     1.350591006896    -0.199972623257    12.000000000000
         C           -1.674467276824    -1.475249893104    -0.227581423257    12.000000000000
         C           -1.486694276824     1.251495106896     0.300895576743    12.000000000000
         C           -2.804316276824    -0.766465893104     0.183791576743    12.000000000000
         C           -2.711247276824     0.602648106896     0.444972576743    12.000000000000
         H            0.455244723176    -2.573759893104    -1.267682423257     1.007825032230
         H            1.233491723176    -1.053203893104    -1.686323423257     1.007825032230
         H            1.523436723176    -2.622574893104     0.913656576743     1.007825032230
         H            2.771267723176    -2.139935893104    -0.241128423257     1.007825032230
         H            1.245929723176    -0.440414893104     1.779001576743     1.007825032230
         H            2.989883723176    -0.578042893104     1.582788576743     1.007825032230
         H            2.896214723176     1.225293106896     0.165193576743     1.007825032230
         H           -1.758649276824    -2.536359893104    -0.457855423257     1.007825032230
         H           -1.391183276824     2.320008106896     0.476509576743     1.007825032230
         H           -3.757252276824    -1.279941893104     0.289593576743     1.007825032230
         H           -3.591332276824     1.162431106896     0.752021576743     1.007825032230

  Basis Set: AUG-CC-PVTZ
    Blend: AUG-CC-PVTZ
  Basis Set: (AUG-CC-PVTZ AUX)
    Blend: AUG-CC-PVTZ-JKFIT
	 Reference Energy          =    -514.5956558145931012 [Eh]
	 Singles Energy            =      -0.0000000000000000 [Eh]
	 Same-Spin Energy          =      -0.5580716060096584 [Eh]
	 Opposite-Spin Energy      =      -1.7433817220997403 [Eh]
	 Correlation Energy        =      -2.3014533281093987 [Eh]
	 Total Energy              =    -516.8971091427024476 [Eh]

	 ================> DF-SCS-MP2 Energies <==================
	-----------------------------------------------------------
	 SCS Same-Spin Scale       =       0.3333333333333333 [-]
	 SCS Opposite-Spin Scale   =       1.2000000000000000 [-]
	 SCS Same-Spin Energy      =      -0.1860238686698861 [Eh]
	 SCS Opposite-Spin Energy  =      -2.0920580665196882 [Eh]
	 SCS Correlation Energy    =      -2.2780819351895745 [Eh]
	 SCS Total Energy          =    -516.8737377497826628 [Eh]
	-----------------------------------------------------------

  Dipole Moment: [D]
     X:     0.4375      Y:    -3.3132      Z:     1.6505     Total:     3.7273

*** Psi4 exiting successfully. Buy a developer a beer!
