                               Psi4 1.3.2 release

  ==> Input File <==

--------------------------------------------------------------------------
#psi4
#
memory 32 gb

molecule  {
0 1
  O        0.9417500     2.5148810    -0.6596880
  N        2.0463840     0.6978680     0.1749460
  C        0.7564320    -1.5550710    -0.8733250
  C        1.8002131    -1.7580148     0.2337814
  C       -0.4497480    -0.7926040    -0.3845090
  C        2.0266990    -0.4897580     1.0228720
  C       -0.3650830     0.5850230    -0.0943830
  C        0.9119250     1.3593610    -0.2260870
  C       -1.6913630    -1.4231620    -0.2398970
  C       -1.5035900     1.3035830     0.2885800
  C       -2.8212120    -0.7143780     0.1714760
  C       -2.7281430     0.6547360     0.4326570
  H        0.4383490    -2.5216720    -1.2799980
  H        1.2165960    -1.0011160    -1.6986390
  H        1.5065410    -2.5704870     0.9013410
  H        2.7543720    -2.0878480    -0.2534440
  H        1.2290340    -0.3883270     1.7666860
  H        2.9729880    -0.5259550     1.5704730
  H        2.8793190     1.2773810     0.1528780
  H       -1.7755450    -2.4842720    -0.4701710
  H       -1.4080790     2.3720960     0.4641940
  H       -3.7741480    -1.2278540     0.2772780
  H       -3.6082280     1.2145190     0.7397060
units angstrom
no_reorient  #important for SAPT in psi4, default
symmetry c1  #important for SAPT in psi4, default
}

set PROPERTIES_ORIGIN ["COM"]
properties('MP2/aug-cc-pvtz', properties = ['dipole'])
--------------------------------------------------------------------------

    Molecular point group: c1
  Charge       = 0
  Multiplicity = 1
  Basis Set: AUG-CC-PVTZ
    Blend: AUG-CC-PVTZ
  Basis Set: (AUG-CC-PVTZ AUX)
    Blend: AUG-CC-PVTZ-JKFIT

    Orbital Energies [Eh]
    ---------------------

    Doubly Occupied:

       1A    -20.515289     2A    -15.582941     3A    -11.351610
       4A    -11.275283     5A    -11.258045     6A    -11.248815
       7A    -11.247145     8A    -11.245557     9A    -11.241619
      10A    -11.239739    11A    -11.239725    12A    -11.238773
      13A     -1.369212    14A     -1.235556    15A     -1.164249
      16A     -1.083259    17A     -1.037075    18A     -1.021483
      19A     -0.939398    20A     -0.881416    21A     -0.840306
      22A     -0.797997    23A     -0.776546    24A     -0.696971
      25A     -0.686267    26A     -0.672207    27A     -0.653186
      28A     -0.624111    29A     -0.615203    30A     -0.600713
      31A     -0.587136    32A     -0.576959    33A     -0.556640
      34A     -0.535497    35A     -0.518056    36A     -0.511243
      37A     -0.494716    38A     -0.490935    39A     -0.473788
      40A     -0.423470    41A     -0.390211    42A     -0.343892
      43A     -0.336016

  @DF-RHF Final Energy:  -514.59575993971180

   => Energetics <=

    Nuclear Repulsion Energy =            685.4754739411694118
    One-Electron Energy =               -2058.9059585467198303
    Two-Electron Energy =                 858.8347246658386211
    Total Energy =                       -514.5957599397117974
  Basis Set: (AUG-CC-PVTZ AUX)
    Blend: AUG-CC-PVTZ-RI
    Molecular point group: c1

    Geometry (in Angstrom), charge = 0, multiplicity = 1:

       Center              X                  Y                   Z               Mass
    ------------   -----------------  -----------------  -----------------  -----------------
         O            0.957874116122     2.465040606686    -0.647640874393    15.994914619570
         N            2.062508116122     0.648027606686     0.186993125607    14.003074004430
         C            0.772556116122    -1.604911393314    -0.861277874393    12.000000000000
         C            1.816337216122    -1.807855193314     0.245828525607    12.000000000000
         C           -0.433623883878    -0.842444393314    -0.372461874393    12.000000000000
         C            2.042823116122    -0.539598393314     1.034919125607    12.000000000000
         C           -0.348958883878     0.535182606686    -0.082335874393    12.000000000000
         C            0.928049116122     1.309520606686    -0.214039874393    12.000000000000
         C           -1.675238883878    -1.473002393314    -0.227849874393    12.000000000000
         C           -1.487465883878     1.253742606686     0.300627125607    12.000000000000
         C           -2.805087883878    -0.764218393314     0.183523125607    12.000000000000
         C           -2.712018883878     0.604895606686     0.444704125607    12.000000000000
         H            0.454473116122    -2.571512393314    -1.267950874393     1.007825032230
         H            1.232720116122    -1.050956393314    -1.686591874393     1.007825032230
         H            1.522665116122    -2.620327393314     0.913388125607     1.007825032230
         H            2.770496116122    -2.137688393314    -0.241396874393     1.007825032230
         H            1.245158116122    -0.438167393314     1.778733125607     1.007825032230
         H            2.989112116122    -0.575795393314     1.582520125607     1.007825032230
         H            2.895443116122     1.227540606686     0.164925125607     1.007825032230
         H           -1.759420883878    -2.534112393314    -0.458123874393     1.007825032230
         H           -1.391954883878     2.322255606686     0.476241125607     1.007825032230
         H           -3.758023883878    -1.277694393314     0.289325125607     1.007825032230
         H           -3.592103883878     1.164678606686     0.751753125607     1.007825032230

  Basis Set: AUG-CC-PVTZ
    Blend: AUG-CC-PVTZ
  Basis Set: (AUG-CC-PVTZ AUX)
    Blend: AUG-CC-PVTZ-JKFIT
	 Reference Energy          =    -514.5957599397117974 [Eh]
	 Singles Energy            =      -0.0000000000000000 [Eh]
	 Same-Spin Energy          =      -0.5587598318263627 [Eh]
	 Opposite-Spin Energy      =      -1.7444935592406234 [Eh]
	 Correlation Energy        =      -2.3032533910669861 [Eh]
	 Total Energy              =    -516.8990133307787573 [Eh]

	 ================> DF-SCS-MP2 Energies <==================
	-----------------------------------------------------------
	 SCS Same-Spin Scale       =       0.3333333333333333 [-]
	 SCS Opposite-Spin Scale   =       1.2000000000000000 [-]
	 SCS Same-Spin Energy      =      -0.1862532772754542 [Eh]
	 SCS Opposite-Spin Energy  =      -2.0933922710887480 [Eh]
	 SCS Correlation Energy    =      -2.2796455483642024 [Eh]
	 SCS Total Energy          =    -516.8754054880760123 [Eh]
	-----------------------------------------------------------

  Dipole Moment: [D]
     X:     0.6168      Y:    -3.6177      Z:     1.7717     Total:     4.0752

*** Psi4 exiting successfully. Buy a developer a beer!
