                               Psi4 1.3.2 release

  ==> Input File <==

--------------------------------------------------------------------------
#psi4
#
memory 32 gb

molecule  {
0 1
  O        0.9417500     2.5148810    -0.6596880
  N        2.0963399     0.7761843     0.1513571
  C        0.7564320    -1.5550710    -0.8733250
  C        1.8157710    -1.7711630     0.2163790
  C       -0.4497480    -0.7926040    -0.3845090
  C        2.0266990    -0.4897580     1.0228720
  C       -0.3650830     0.5850230    -0.0943830
  C        0.9119250     1.3593610    -0.2260870
  C       -1.6913630    -1.4231620    -0.2398970
  C       -1.5035900     1.3035830     0.2885800
  C       -2.8212120    -0.7143780     0.1714760
  C       -2.7281430     0.6547360     0.4326570
  H        0.4383490    -2.5216720    -1.2799980
  H        1.2165960    -1.0011160    -1.6986390
  H        1.5065410    -2.5704870     0.9013410
  H        2.7543720    -2.0878480    -0.2534440
  H        1.2290340    -0.3883270     1.7666860
  H        2.9729880    -0.5259550     1.5704730
  H        2.8793190     1.2773810     0.1528780
  H       -1.7755450    -2.4842720    -0.4701710
  H       -1.4080790     2.3720960     0.4641940
  H       -3.7741480    -1.2278540     0.2772780
  H       -3.6082280     1.2145190     0.7397060
units angstrom
no_reorient  #important for SAPT in psi4, default
symmetry c1  #important for SAPT in psi4, default
}

set PROPERTIES_ORIGIN ["COM"]
properties('MP2/aug-cc-pvtz', properties = ['dipole'])
--------------------------------------------------------------------------

    Molecular point group: c1
  Charge       = 0
  Multiplicity = 1
  Basis Set: AUG-CC-PVTZ
    Blend: AUG-CC-PVTZ
  Basis Set: (AUG-CC-PVTZ AUX)
    Blend: AUG-CC-PVTZ-JKFIT

    Orbital Energies [Eh]
    ---------------------

    Doubly Occupied:

       1A    -20.509576     2A    -15.574958     3A    -11.349429
       4A    -11.280538     5A    -11.259540     6A    -11.250251
       7A    -11.249978     8A    -11.247261     9A    -11.242737
      10A    -11.241100    11A    -11.240922    12A    -11.240342
      13A     -1.367522    14A     -1.222491    15A     -1.166031
      16A     -1.085139    17A     -1.036717    18A     -1.021924
      19A     -0.938512    20A     -0.883049    21A     -0.842453
      22A     -0.798947    23A     -0.787320    24A     -0.704342
      25A     -0.677559    26A     -0.671835    27A     -0.646035
      28A     -0.626734    29A     -0.619297    30A     -0.599740
      31A     -0.584487    32A     -0.573554    33A     -0.556436
      34A     -0.535275    35A     -0.519349    36A     -0.511088
      37A     -0.493574    38A     -0.491245    39A     -0.478981
      40A     -0.419966    41A     -0.389865    42A     -0.344853
      43A     -0.337202

  @DF-RHF Final Energy:  -514.58634918068765

   => Energetics <=

    Nuclear Repulsion Energy =            683.5522991250672931
    One-Electron Energy =               -2055.0409867076496084
    Two-Electron Energy =                 856.9023384018946672
    Total Energy =                       -514.5863491806876482
  Basis Set: (AUG-CC-PVTZ AUX)
    Blend: AUG-CC-PVTZ-RI
    Molecular point group: c1

    Geometry (in Angstrom), charge = 0, multiplicity = 1:

       Center              X                  Y                   Z               Mass
    ------------   -----------------  -----------------  -----------------  -----------------
         O            0.952372448590     2.459212031708    -0.644293889601    15.994914619570
         N            2.106962348590     0.720515331708     0.166751210399    14.003074004430
         C            0.767054448590    -1.610739968292    -0.857930889601    12.000000000000
         C            1.826393448590    -1.826831968292     0.231773110399    12.000000000000
         C           -0.439125551410    -0.848272968292    -0.369114889601    12.000000000000
         C            2.037321448590    -0.545426968292     1.038266110399    12.000000000000
         C           -0.354460551410     0.529354031708    -0.078988889601    12.000000000000
         C            0.922547448590     1.303692031708    -0.210692889601    12.000000000000
         C           -1.680740551410    -1.478830968292    -0.224502889601    12.000000000000
         C           -1.492967551410     1.247914031708     0.303974110399    12.000000000000
         C           -2.810589551410    -0.770046968292     0.186870110399    12.000000000000
         C           -2.717520551410     0.599067031708     0.448051110399    12.000000000000
         H            0.448971448590    -2.577340968292    -1.264603889601     1.007825032230
         H            1.227218448590    -1.056784968292    -1.683244889601     1.007825032230
         H            1.517163448590    -2.626155968292     0.916735110399     1.007825032230
         H            2.764994448590    -2.143516968292    -0.238049889601     1.007825032230
         H            1.239656448590    -0.443995968292     1.782080110399     1.007825032230
         H            2.983610448590    -0.581623968292     1.585867110399     1.007825032230
         H            2.889941448590     1.221712031708     0.168272110399     1.007825032230
         H           -1.764922551410    -2.539940968292    -0.454776889601     1.007825032230
         H           -1.397456551410     2.316427031708     0.479588110399     1.007825032230
         H           -3.763525551410    -1.283522968292     0.292672110399     1.007825032230
         H           -3.597605551410     1.158850031708     0.755100110399     1.007825032230

  Basis Set: AUG-CC-PVTZ
    Blend: AUG-CC-PVTZ
  Basis Set: (AUG-CC-PVTZ AUX)
    Blend: AUG-CC-PVTZ-JKFIT
	 Reference Energy          =    -514.5863491806876482 [Eh]
	 Singles Energy            =      -0.0000000000000000 [Eh]
	 Same-Spin Energy          =      -0.5574585286062883 [Eh]
	 Opposite-Spin Energy      =      -1.7433666693865679 [Eh]
	 Correlation Energy        =      -2.3008251979928565 [Eh]
	 Total Energy              =    -516.8871743786804700 [Eh]

	 ================> DF-SCS-MP2 Energies <==================
	-----------------------------------------------------------
	 SCS Same-Spin Scale       =       0.3333333333333333 [-]
	 SCS Opposite-Spin Scale   =       1.2000000000000000 [-]
	 SCS Same-Spin Energy      =      -0.1858195095354294 [Eh]
	 SCS Opposite-Spin Energy  =      -2.0920400032638815 [Eh]
	 SCS Correlation Energy    =      -2.2778595127993109 [Eh]
	 SCS Total Energy          =    -516.8642086934869440 [Eh]
	-----------------------------------------------------------

  Dipole Moment: [D]
     X:     0.4919      Y:    -3.7784      Z:     1.8030     Total:     4.2154

*** Psi4 exiting successfully. Buy a developer a beer!
