                               Psi4 1.3.2 release

  ==> Input File <==

--------------------------------------------------------------------------
#psi4
#
memory 32 gb

molecule  {
0 1
  O        0.9417500     2.5148810    -0.6596880
  N        2.0463840     0.6978680     0.1749460
  C        0.7564320    -1.5550710    -0.8733250
  C        1.8157710    -1.7711630     0.2163790
  C       -0.4497480    -0.7926040    -0.3845090
  C        2.0742253    -0.4789043     1.0376471
  C       -0.3650830     0.5850230    -0.0943830
  C        0.9119250     1.3593610    -0.2260870
  C       -1.6913630    -1.4231620    -0.2398970
  C       -1.5035900     1.3035830     0.2885800
  C       -2.8212120    -0.7143780     0.1714760
  C       -2.7281430     0.6547360     0.4326570
  H        0.4383490    -2.5216720    -1.2799980
  H        1.2165960    -1.0011160    -1.6986390
  H        1.5065410    -2.5704870     0.9013410
  H        2.7543720    -2.0878480    -0.2534440
  H        1.2290340    -0.3883270     1.7666860
  H        2.9729880    -0.5259550     1.5704730
  H        2.8793190     1.2773810     0.1528780
  H       -1.7755450    -2.4842720    -0.4701710
  H       -1.4080790     2.3720960     0.4641940
  H       -3.7741480    -1.2278540     0.2772780
  H       -3.6082280     1.2145190     0.7397060
units angstrom
no_reorient  #important for SAPT in psi4, default
symmetry c1  #important for SAPT in psi4, default
}

set PROPERTIES_ORIGIN ["COM"]
properties('MP2/aug-cc-pvtz', properties = ['dipole'])
--------------------------------------------------------------------------

    Molecular point group: c1
  Charge       = 0
  Multiplicity = 1
  Basis Set: AUG-CC-PVTZ
    Blend: AUG-CC-PVTZ
  Basis Set: (AUG-CC-PVTZ AUX)
    Blend: AUG-CC-PVTZ-JKFIT

    Orbital Energies [Eh]
    ---------------------

    Doubly Occupied:

       1A    -20.515657     2A    -15.582744     3A    -11.352549
       4A    -11.275283     5A    -11.258245     6A    -11.248747
       7A    -11.247105     8A    -11.245471     9A    -11.241568
      10A    -11.239776    11A    -11.239672    12A    -11.238539
      13A     -1.369353    14A     -1.234125    15A     -1.164135
      16A     -1.080234    17A     -1.036725    18A     -1.019429
      19A     -0.939748    20A     -0.882347    21A     -0.840801
      22A     -0.798051    23A     -0.775731    24A     -0.697173
      25A     -0.686728    26A     -0.670894    27A     -0.655734
      28A     -0.622197    29A     -0.616567    30A     -0.598871
      31A     -0.587706    32A     -0.574188    33A     -0.557400
      34A     -0.538566    35A     -0.516149    36A     -0.509266
      37A     -0.495389    38A     -0.489449    39A     -0.477439
      40A     -0.424279    41A     -0.386825    42A     -0.343846
      43A     -0.335932

  @DF-RHF Final Energy:  -514.59396840986960

   => Energetics <=

    Nuclear Repulsion Energy =            684.3600442704656643
    One-Electron Energy =               -2056.6867598871167502
    Two-Electron Energy =                 857.7327472067815961
    Total Energy =                       -514.5939684098696034
  Basis Set: (AUG-CC-PVTZ AUX)
    Blend: AUG-CC-PVTZ-RI
    Molecular point group: c1

    Geometry (in Angstrom), charge = 0, multiplicity = 1:

       Center              X                  Y                   Z               Mass
    ------------   -----------------  -----------------  -----------------  -----------------
         O            0.953174641939     2.465211536071    -0.647445152984    15.994914619570
         N            2.057808641939     0.648198536071     0.187188847016    14.003074004430
         C            0.767856641939    -1.604740463929    -0.861082152984    12.000000000000
         C            1.827195641939    -1.820832463929     0.228621847016    12.000000000000
         C           -0.438323358061    -0.842273463929    -0.372266152984    12.000000000000
         C            2.085649941939    -0.528573763929     1.049889947016    12.000000000000
         C           -0.353658358061     0.535353536071    -0.082140152984    12.000000000000
         C            0.923349641939     1.309691536071    -0.213844152984    12.000000000000
         C           -1.679938358061    -1.472831463929    -0.227654152984    12.000000000000
         C           -1.492165358061     1.253913536071     0.300822847016    12.000000000000
         C           -2.809787358061    -0.764047463929     0.183718847016    12.000000000000
         C           -2.716718358061     0.605066536071     0.444899847016    12.000000000000
         H            0.449773641939    -2.571341463929    -1.267755152984     1.007825032230
         H            1.228020641939    -1.050785463929    -1.686396152984     1.007825032230
         H            1.517965641939    -2.620156463929     0.913583847016     1.007825032230
         H            2.765796641939    -2.137517463929    -0.241201152984     1.007825032230
         H            1.240458641939    -0.437996463929     1.778928847016     1.007825032230
         H            2.984412641939    -0.575624463929     1.582715847016     1.007825032230
         H            2.890743641939     1.227711536071     0.165120847016     1.007825032230
         H           -1.764120358061    -2.533941463929    -0.457928152984     1.007825032230
         H           -1.396654358061     2.322426536071     0.476436847016     1.007825032230
         H           -3.762723358061    -1.277523463929     0.289520847016     1.007825032230
         H           -3.596803358061     1.164849536071     0.751948847016     1.007825032230

  Basis Set: AUG-CC-PVTZ
    Blend: AUG-CC-PVTZ
  Basis Set: (AUG-CC-PVTZ AUX)
    Blend: AUG-CC-PVTZ-JKFIT
	 Reference Energy          =    -514.5939684098696034 [Eh]
	 Singles Energy            =      -0.0000000000000000 [Eh]
	 Same-Spin Energy          =      -0.5584553559018568 [Eh]
	 Opposite-Spin Energy      =      -1.7442558358493097 [Eh]
	 Correlation Energy        =      -2.3027111917511665 [Eh]
	 Total Energy              =    -516.8966796016208036 [Eh]

	 ================> DF-SCS-MP2 Energies <==================
	-----------------------------------------------------------
	 SCS Same-Spin Scale       =       0.3333333333333333 [-]
	 SCS Opposite-Spin Scale   =       1.2000000000000000 [-]
	 SCS Same-Spin Energy      =      -0.1861517853006189 [Eh]
	 SCS Opposite-Spin Energy  =      -2.0931070030191714 [Eh]
	 SCS Correlation Energy    =      -2.2792587883197903 [Eh]
	 SCS Total Energy          =    -516.8732271981893973 [Eh]
	-----------------------------------------------------------

  Dipole Moment: [D]
     X:     0.6565      Y:    -3.5900      Z:     1.7705     Total:     4.0564

*** Psi4 exiting successfully. Buy a developer a beer!
