                               Psi4 1.3.2 release

  ==> Input File <==

--------------------------------------------------------------------------
#psi4
#
memory 32 gb

molecule  {
0 1
  O        0.9417500     2.5148810    -0.6596880
  N        2.0463840     0.6978680     0.1749460
  C        0.7564320    -1.5550710    -0.8733250
  C        1.8157710    -1.7711630     0.2163790
  C       -0.5451576    -0.7882475    -0.3606510
  C        2.0266990    -0.4897580     1.0228720
  C       -0.3650830     0.5850230    -0.0943830
  C        0.9119250     1.3593610    -0.2260870
  C       -1.6913630    -1.4231620    -0.2398970
  C       -1.5035900     1.3035830     0.2885800
  C       -2.8212120    -0.7143780     0.1714760
  C       -2.7281430     0.6547360     0.4326570
  H        0.4383490    -2.5216720    -1.2799980
  H        1.2165960    -1.0011160    -1.6986390
  H        1.5065410    -2.5704870     0.9013410
  H        2.7543720    -2.0878480    -0.2534440
  H        1.2290340    -0.3883270     1.7666860
  H        2.9729880    -0.5259550     1.5704730
  H        2.8793190     1.2773810     0.1528780
  H       -1.7755450    -2.4842720    -0.4701710
  H       -1.4080790     2.3720960     0.4641940
  H       -3.7741480    -1.2278540     0.2772780
  H       -3.6082280     1.2145190     0.7397060
units angstrom
no_reorient  #important for SAPT in psi4, default
symmetry c1  #important for SAPT in psi4, default
}

set PROPERTIES_ORIGIN ["COM"]
properties('MP2/aug-cc-pvtz', properties = ['dipole'])
--------------------------------------------------------------------------

    Molecular point group: c1
  Charge       = 0
  Multiplicity = 1
  Basis Set: AUG-CC-PVTZ
    Blend: AUG-CC-PVTZ
  Basis Set: (AUG-CC-PVTZ AUX)
    Blend: AUG-CC-PVTZ-JKFIT

    Orbital Energies [Eh]
    ---------------------

    Doubly Occupied:

       1A    -20.516464     2A    -15.582618     3A    -11.354204
       4A    -11.275047     5A    -11.251597     6A    -11.249704
       7A    -11.246963     8A    -11.245760     9A    -11.240500
      10A    -11.239328    11A    -11.236248    12A    -11.232164
      13A     -1.370039    14A     -1.234230    15A     -1.171983
      16A     -1.073764    17A     -1.038113    18A     -1.026253
      19A     -0.935301    20A     -0.883303    21A     -0.836677
      22A     -0.798138    23A     -0.781827    24A     -0.698433
      25A     -0.683803    26A     -0.671819    27A     -0.651450
      28A     -0.627546    29A     -0.613187    30A     -0.600914
      31A     -0.585461    32A     -0.576868    33A     -0.553493
      34A     -0.534749    35A     -0.520338    36A     -0.512654
      37A     -0.494582    38A     -0.490699    39A     -0.458873
      40A     -0.426609    41A     -0.389201    42A     -0.350406
      43A     -0.339085

  @DF-RHF Final Energy:  -514.58665360091982

   => Energetics <=

    Nuclear Repulsion Energy =            685.1296521604923555
    One-Electron Energy =               -2058.2318177999213731
    Two-Electron Energy =                 858.5155120385093142
    Total Energy =                       -514.5866536009198171
  Basis Set: (AUG-CC-PVTZ AUX)
    Blend: AUG-CC-PVTZ-RI
    Molecular point group: c1

    Geometry (in Angstrom), charge = 0, multiplicity = 1:

       Center              X                  Y                   Z               Mass
    ------------   -----------------  -----------------  -----------------  -----------------
         O            0.963822689658     2.465695546705    -0.648121786024    15.994914619570
         N            2.068456689658     0.648682546705     0.186512213976    14.003074004430
         C            0.778504689658    -1.604256453295    -0.861758786024    12.000000000000
         C            1.837843689658    -1.820348453295     0.227945213976    12.000000000000
         C           -0.523084910342    -0.837432953295    -0.349084786024    12.000000000000
         C            2.048771689658    -0.538943453295     1.034438213976    12.000000000000
         C           -0.343010310342     0.535837546705    -0.082816786024    12.000000000000
         C            0.933997689658     1.310175546705    -0.214520786024    12.000000000000
         C           -1.669290310342    -1.472347453295    -0.228330786024    12.000000000000
         C           -1.481517310342     1.254397546705     0.300146213976    12.000000000000
         C           -2.799139310342    -0.763563453295     0.183042213976    12.000000000000
         C           -2.706070310342     0.605550546705     0.444223213976    12.000000000000
         H            0.460421689658    -2.570857453295    -1.268431786024     1.007825032230
         H            1.238668689658    -1.050301453295    -1.687072786024     1.007825032230
         H            1.528613689658    -2.619672453295     0.912907213976     1.007825032230
         H            2.776444689658    -2.137033453295    -0.241877786024     1.007825032230
         H            1.251106689658    -0.437512453295     1.778252213976     1.007825032230
         H            2.995060689658    -0.575140453295     1.582039213976     1.007825032230
         H            2.901391689658     1.228195546705     0.164444213976     1.007825032230
         H           -1.753472310342    -2.533457453295    -0.458604786024     1.007825032230
         H           -1.386006310342     2.322910546705     0.475760213976     1.007825032230
         H           -3.752075310342    -1.277039453295     0.288844213976     1.007825032230
         H           -3.586155310342     1.165333546705     0.751272213976     1.007825032230

  Basis Set: AUG-CC-PVTZ
    Blend: AUG-CC-PVTZ
  Basis Set: (AUG-CC-PVTZ AUX)
    Blend: AUG-CC-PVTZ-JKFIT
	 Reference Energy          =    -514.5866536009198171 [Eh]
	 Singles Energy            =      -0.0000000000000000 [Eh]
	 Same-Spin Energy          =      -0.5579375541161549 [Eh]
	 Opposite-Spin Energy      =      -1.7437510357290282 [Eh]
	 Correlation Energy        =      -2.3016885898451829 [Eh]
	 Total Energy              =    -516.8883421907650018 [Eh]

	 ================> DF-SCS-MP2 Energies <==================
	-----------------------------------------------------------
	 SCS Same-Spin Scale       =       0.3333333333333333 [-]
	 SCS Opposite-Spin Scale   =       1.2000000000000000 [-]
	 SCS Same-Spin Energy      =      -0.1859791847053849 [Eh]
	 SCS Opposite-Spin Energy  =      -2.0925012428748340 [Eh]
	 SCS Correlation Energy    =      -2.2784804275802188 [Eh]
	 SCS Total Energy          =    -516.8651340285000515 [Eh]
	-----------------------------------------------------------

  Dipole Moment: [D]
     X:     0.5686      Y:    -3.5539      Z:     1.7929     Total:     4.0209

*** Psi4 exiting successfully. Buy a developer a beer!
