                               Psi4 1.3.2 release

  ==> Input File <==

--------------------------------------------------------------------------
#psi4
#
memory 32 gb

molecule  {
0 1
  O        0.9417500     2.5148810    -0.6596880
  N        2.0463840     0.6978680     0.1749460
  C        0.7564320    -1.5550710    -0.8733250
  C        1.8157710    -1.7711630     0.2163790
  C       -0.3499064    -0.6774785    -0.3432175
  C        2.0266990    -0.4897580     1.0228720
  C       -0.3650830     0.5850230    -0.0943830
  C        0.9119250     1.3593610    -0.2260870
  C       -1.6913630    -1.4231620    -0.2398970
  C       -1.5035900     1.3035830     0.2885800
  C       -2.8212120    -0.7143780     0.1714760
  C       -2.7281430     0.6547360     0.4326570
  H        0.4383490    -2.5216720    -1.2799980
  H        1.2165960    -1.0011160    -1.6986390
  H        1.5065410    -2.5704870     0.9013410
  H        2.7543720    -2.0878480    -0.2534440
  H        1.2290340    -0.3883270     1.7666860
  H        2.9729880    -0.5259550     1.5704730
  H        2.8793190     1.2773810     0.1528780
  H       -1.7755450    -2.4842720    -0.4701710
  H       -1.4080790     2.3720960     0.4641940
  H       -3.7741480    -1.2278540     0.2772780
  H       -3.6082280     1.2145190     0.7397060
units angstrom
no_reorient  #important for SAPT in psi4, default
symmetry c1  #important for SAPT in psi4, default
}

set PROPERTIES_ORIGIN ["COM"]
properties('MP2/aug-cc-pvtz', properties = ['dipole'])
--------------------------------------------------------------------------

    Molecular point group: c1
  Charge       = 0
  Multiplicity = 1
  Basis Set: AUG-CC-PVTZ
    Blend: AUG-CC-PVTZ
  Basis Set: (AUG-CC-PVTZ AUX)
    Blend: AUG-CC-PVTZ-JKFIT

    Orbital Energies [Eh]
    ---------------------

    Doubly Occupied:

       1A    -20.515140     2A    -15.583535     3A    -11.349527
       4A    -11.276382     5A    -11.257079     6A    -11.252604
       7A    -11.246089     8A    -11.244301     9A    -11.241734
      10A    -11.239586    11A    -11.237458    12A    -11.234953
      13A     -1.369512    14A     -1.237222    15A     -1.167093
      16A     -1.083722    17A     -1.048991    18A     -1.007869
      19A     -0.939545    20A     -0.874418    21A     -0.848255
      22A     -0.806432    23A     -0.770122    24A     -0.694175
      25A     -0.688152    26A     -0.670682    27A     -0.652666
      28A     -0.633334    29A     -0.611548    30A     -0.598502
      31A     -0.589965    32A     -0.573739    33A     -0.557772
      34A     -0.536713    35A     -0.519225    36A     -0.507939
      37A     -0.502575    38A     -0.489522    39A     -0.466704
      40A     -0.416570    41A     -0.390316    42A     -0.360045
      43A     -0.323696

  @DF-RHF Final Energy:  -514.56837811544608

   => Energetics <=

    Nuclear Repulsion Energy =            686.6816686763135067
    One-Electron Energy =               -2061.2692723889708759
    Two-Electron Energy =                 860.0192255972111752
    Total Energy =                       -514.5683781154460803
  Basis Set: (AUG-CC-PVTZ AUX)
    Blend: AUG-CC-PVTZ-RI
    Molecular point group: c1

    Geometry (in Angstrom), charge = 0, multiplicity = 1:

       Center              X                  Y                   Z               Mass
    ------------   -----------------  -----------------  -----------------  -----------------
         O            0.949277399813     2.457443780720    -0.649420499223    15.994914619570
         N            2.053911399813     0.640430780720     0.185213500777    14.003074004430
         C            0.763959399813    -1.612508219280    -0.863057499223    12.000000000000
         C            1.823298399813    -1.828600219280     0.226646500777    12.000000000000
         C           -0.342379000187    -0.734915719280    -0.332949999223    12.000000000000
         C            2.034226399813    -0.547195219280     1.033139500777    12.000000000000
         C           -0.357555600187     0.527585780720    -0.084115499223    12.000000000000
         C            0.919452399813     1.301923780720    -0.215819499223    12.000000000000
         C           -1.683835600187    -1.480599219280    -0.229629499223    12.000000000000
         C           -1.496062600187     1.246145780720     0.298847500777    12.000000000000
         C           -2.813684600187    -0.771815219280     0.181743500777    12.000000000000
         C           -2.720615600187     0.597298780720     0.442924500777    12.000000000000
         H            0.445876399813    -2.579109219280    -1.269730499223     1.007825032230
         H            1.224123399813    -1.058553219280    -1.688371499223     1.007825032230
         H            1.514068399813    -2.627924219280     0.911608500777     1.007825032230
         H            2.761899399813    -2.145285219280    -0.243176499223     1.007825032230
         H            1.236561399813    -0.445764219280     1.776953500777     1.007825032230
         H            2.980515399813    -0.583392219280     1.580740500777     1.007825032230
         H            2.886846399813     1.219943780720     0.163145500777     1.007825032230
         H           -1.768017600187    -2.541709219280    -0.459903499223     1.007825032230
         H           -1.400551600187     2.314658780720     0.474461500777     1.007825032230
         H           -3.766620600187    -1.285291219280     0.287545500777     1.007825032230
         H           -3.600700600187     1.157081780720     0.749973500777     1.007825032230

  Basis Set: AUG-CC-PVTZ
    Blend: AUG-CC-PVTZ
  Basis Set: (AUG-CC-PVTZ AUX)
    Blend: AUG-CC-PVTZ-JKFIT
	 Reference Energy          =    -514.5683781154460803 [Eh]
	 Singles Energy            =      -0.0000000000000000 [Eh]
	 Same-Spin Energy          =      -0.5582382087045940 [Eh]
	 Opposite-Spin Energy      =      -1.7458195316416409 [Eh]
	 Correlation Energy        =      -2.3040577403462348 [Eh]
	 Total Energy              =    -516.8724358557923324 [Eh]

	 ================> DF-SCS-MP2 Energies <==================
	-----------------------------------------------------------
	 SCS Same-Spin Scale       =       0.3333333333333333 [-]
	 SCS Opposite-Spin Scale   =       1.2000000000000000 [-]
	 SCS Same-Spin Energy      =      -0.1860794029015313 [Eh]
	 SCS Opposite-Spin Energy  =      -2.0949834379699692 [Eh]
	 SCS Correlation Energy    =      -2.2810628408715004 [Eh]
	 SCS Total Energy          =    -516.8494409563176077 [Eh]
	-----------------------------------------------------------

  Dipole Moment: [D]
     X:     0.6594      Y:    -3.6635      Z:     1.7340     Total:     4.1064

*** Psi4 exiting successfully. Buy a developer a beer!
