                               Psi4 1.3.2 release

  ==> Input File <==

--------------------------------------------------------------------------
#psi4
#
memory 32 gb

molecule  {
0 1
  O        0.9417500     2.5148810    -0.6596880
  N        2.0463840     0.6978680     0.1749460
  C        0.7564320    -1.5550710    -0.8733250
  C        1.8157710    -1.7711630     0.2163790
  C       -0.6096800    -0.6915056    -0.3196950
  C        2.0266990    -0.4897580     1.0228720
  C       -0.3650830     0.5850230    -0.0943830
  C        0.9119250     1.3593610    -0.2260870
  C       -1.6913630    -1.4231620    -0.2398970
  C       -1.5035900     1.3035830     0.2885800
  C       -2.8212120    -0.7143780     0.1714760
  C       -2.7281430     0.6547360     0.4326570
  H        0.4383490    -2.5216720    -1.2799980
  H        1.2165960    -1.0011160    -1.6986390
  H        1.5065410    -2.5704870     0.9013410
  H        2.7543720    -2.0878480    -0.2534440
  H        1.2290340    -0.3883270     1.7666860
  H        2.9729880    -0.5259550     1.5704730
  H        2.8793190     1.2773810     0.1528780
  H       -1.7755450    -2.4842720    -0.4701710
  H       -1.4080790     2.3720960     0.4641940
  H       -3.7741480    -1.2278540     0.2772780
  H       -3.6082280     1.2145190     0.7397060
units angstrom
no_reorient  #important for SAPT in psi4, default
symmetry c1  #important for SAPT in psi4, default
}

set PROPERTIES_ORIGIN ["COM"]
properties('MP2/aug-cc-pvtz', properties = ['dipole'])
--------------------------------------------------------------------------

    Molecular point group: c1
  Charge       = 0
  Multiplicity = 1
  Basis Set: AUG-CC-PVTZ
    Blend: AUG-CC-PVTZ
  Basis Set: (AUG-CC-PVTZ AUX)
    Blend: AUG-CC-PVTZ-JKFIT

    Orbital Energies [Eh]
    ---------------------

    Doubly Occupied:

       1A    -20.518862     2A    -15.583302     3A    -11.357218
       4A    -11.274479     5A    -11.249861     6A    -11.247321
       7A    -11.246767     8A    -11.240019     9A    -11.238762
      10A    -11.237755    11A    -11.233809    12A    -11.232495
      13A     -1.372136    14A     -1.234988    15A     -1.183814
      16A     -1.065026    17A     -1.047829    18A     -1.025183
      19A     -0.931810    20A     -0.880834    21A     -0.838013
      22A     -0.803501    23A     -0.784996    24A     -0.698449
      25A     -0.684374    26A     -0.675825    27A     -0.652227
      28A     -0.632246    29A     -0.610010    30A     -0.600516
      31A     -0.588078    32A     -0.573934    33A     -0.552126
      34A     -0.534913    35A     -0.523694    36A     -0.514574
      37A     -0.496934    38A     -0.489455    39A     -0.439279
      40A     -0.419187    41A     -0.389249    42A     -0.350470
      43A     -0.348281

  @DF-RHF Final Energy:  -514.55771238541274

   => Energetics <=

    Nuclear Repulsion Energy =            686.1331861033903579
    One-Electron Energy =               -2060.1766007193923542
    Two-Electron Energy =                 859.4857022305891405
    Total Energy =                       -514.5577123854127422
  Basis Set: (AUG-CC-PVTZ AUX)
    Blend: AUG-CC-PVTZ-RI
    Molecular point group: c1

    Geometry (in Angstrom), charge = 0, multiplicity = 1:

       Center              X                  Y                   Z               Mass
    ------------   -----------------  -----------------  -----------------  -----------------
         O            0.968629302931     2.458488733248    -0.651172814089    15.994914619570
         N            2.073263302931     0.641475733248     0.183461185911    14.003074004430
         C            0.783311302931    -1.611463266752    -0.864809814089    12.000000000000
         C            1.842650302931    -1.827555266752     0.224894185911    12.000000000000
         C           -0.582800697069    -0.747897866752    -0.311179814089    12.000000000000
         C            2.053578302931    -0.546150266752     1.031387185911    12.000000000000
         C           -0.338203697069     0.528630733248    -0.085867814089    12.000000000000
         C            0.938804302931     1.302968733248    -0.217571814089    12.000000000000
         C           -1.664483697069    -1.479554266752    -0.231381814089    12.000000000000
         C           -1.476710697069     1.247190733248     0.297095185911    12.000000000000
         C           -2.794332697069    -0.770770266752     0.179991185911    12.000000000000
         C           -2.701263697069     0.598343733248     0.441172185911    12.000000000000
         H            0.465228302931    -2.578064266752    -1.271482814089     1.007825032230
         H            1.243475302931    -1.057508266752    -1.690123814089     1.007825032230
         H            1.533420302931    -2.626879266752     0.909856185911     1.007825032230
         H            2.781251302931    -2.144240266752    -0.244928814089     1.007825032230
         H            1.255913302931    -0.444719266752     1.775201185911     1.007825032230
         H            2.999867302931    -0.582347266752     1.578988185911     1.007825032230
         H            2.906198302931     1.220988733248     0.161393185911     1.007825032230
         H           -1.748665697069    -2.540664266752    -0.461655814089     1.007825032230
         H           -1.381199697069     2.315703733248     0.472709185911     1.007825032230
         H           -3.747268697069    -1.284246266752     0.285793185911     1.007825032230
         H           -3.581348697069     1.158126733248     0.748221185911     1.007825032230

  Basis Set: AUG-CC-PVTZ
    Blend: AUG-CC-PVTZ
  Basis Set: (AUG-CC-PVTZ AUX)
    Blend: AUG-CC-PVTZ-JKFIT
	 Reference Energy          =    -514.5577123854127422 [Eh]
	 Singles Energy            =      -0.0000000000000000 [Eh]
	 Same-Spin Energy          =      -0.5584747218490644 [Eh]
	 Opposite-Spin Energy      =      -1.7448875660892875 [Eh]
	 Correlation Energy        =      -2.3033622879383522 [Eh]
	 Total Energy              =    -516.8610746733511405 [Eh]

	 ================> DF-SCS-MP2 Energies <==================
	-----------------------------------------------------------
	 SCS Same-Spin Scale       =       0.3333333333333333 [-]
	 SCS Opposite-Spin Scale   =       1.2000000000000000 [-]
	 SCS Same-Spin Energy      =      -0.1861582406163548 [Eh]
	 SCS Opposite-Spin Energy  =      -2.0938650793071449 [Eh]
	 SCS Correlation Energy    =      -2.2800233199234996 [Eh]
	 SCS Total Energy          =    -516.8377357053362857 [Eh]
	-----------------------------------------------------------

  Dipole Moment: [D]
     X:     0.4894      Y:    -3.4916      Z:     1.8171     Total:     3.9664

*** Psi4 exiting successfully. Buy a developer a beer!
