                               Psi4 1.3.2 release

  ==> Input File <==

--------------------------------------------------------------------------
#psi4
#
memory 32 gb

molecule  {
0 1
  O        0.9417500     2.5148810    -0.6596880
  N        2.0463840     0.6978680     0.1749460
  C        0.7564320    -1.5550710    -0.8733250
  C        1.8157710    -1.7711630     0.2163790
  C       -0.4497480    -0.7926040    -0.3845090
  C        2.0266990    -0.4897580     1.0228720
  C       -0.3650830     0.5850230    -0.0943830
  C        0.8296386     1.4862745    -0.1842765
  C       -1.6913630    -1.4231620    -0.2398970
  C       -1.5035900     1.3035830     0.2885800
  C       -2.8212120    -0.7143780     0.1714760
  C       -2.7281430     0.6547360     0.4326570
  H        0.4383490    -2.5216720    -1.2799980
  H        1.2165960    -1.0011160    -1.6986390
  H        1.5065410    -2.5704870     0.9013410
  H        2.7543720    -2.0878480    -0.2534440
  H        1.2290340    -0.3883270     1.7666860
  H        2.9729880    -0.5259550     1.5704730
  H        2.8793190     1.2773810     0.1528780
  H       -1.7755450    -2.4842720    -0.4701710
  H       -1.4080790     2.3720960     0.4641940
  H       -3.7741480    -1.2278540     0.2772780
  H       -3.6082280     1.2145190     0.7397060
units angstrom
no_reorient  #important for SAPT in psi4, default
symmetry c1  #important for SAPT in psi4, default
}

set PROPERTIES_ORIGIN ["COM"]
properties('MP2/aug-cc-pvtz', properties = ['dipole'])
--------------------------------------------------------------------------

    Molecular point group: c1
  Charge       = 0
  Multiplicity = 1
  Basis Set: AUG-CC-PVTZ
    Blend: AUG-CC-PVTZ
  Basis Set: (AUG-CC-PVTZ AUX)
    Blend: AUG-CC-PVTZ-JKFIT

    Orbital Energies [Eh]
    ---------------------

    Doubly Occupied:

       1A    -20.541741     2A    -15.558687     3A    -11.353427
       4A    -11.262378     5A    -11.260795     6A    -11.249521
       7A    -11.247705     8A    -11.245858     9A    -11.242936
      10A    -11.240195    11A    -11.233933    12A    -11.229276
      13A     -1.443284    14A     -1.204826    15A     -1.161564
      16A     -1.074567    17A     -1.039053    18A     -1.013956
      19A     -0.925779    20A     -0.875987    21A     -0.835716
      22A     -0.795877    23A     -0.764011    24A     -0.689901
      25A     -0.687340    26A     -0.669872    27A     -0.657255
      28A     -0.632893    29A     -0.609584    30A     -0.605020
      31A     -0.595579    32A     -0.576823    33A     -0.566871
      34A     -0.532813    35A     -0.522122    36A     -0.517246
      37A     -0.490873    38A     -0.487451    39A     -0.475196
      40A     -0.422942    41A     -0.379337    42A     -0.346814
      43A     -0.336072

  @DF-RHF Final Energy:  -514.57531312302490

   => Energetics <=

    Nuclear Repulsion Energy =            684.6499678501007793
    One-Electron Energy =               -2057.2444082469337445
    Two-Electron Energy =                 858.0191272738079533
    Total Energy =                       -514.5753131230248982
  Basis Set: (AUG-CC-PVTZ AUX)
    Blend: AUG-CC-PVTZ-RI
    Molecular point group: c1

    Geometry (in Angstrom), charge = 0, multiplicity = 1:

       Center              X                  Y                   Z               Mass
    ------------   -----------------  -----------------  -----------------  -----------------
         O            0.962845073399     2.456565630538    -0.649459162266    15.994914619570
         N            2.067479073399     0.639552630538     0.185174837734    14.003074004430
         C            0.777527073399    -1.613386369462    -0.863096162266    12.000000000000
         C            1.836866073399    -1.829478369462     0.226607837734    12.000000000000
         C           -0.428652926601    -0.850919369462    -0.374280162266    12.000000000000
         C            2.047794073399    -0.548073369462     1.033100837734    12.000000000000
         C           -0.343987926601     0.526707630538    -0.084154162266    12.000000000000
         C            0.850733673399     1.427959130538    -0.174047662266    12.000000000000
         C           -1.670267926601    -1.481477369462    -0.229668162266    12.000000000000
         C           -1.482494926601     1.245267630538     0.298808837734    12.000000000000
         C           -2.800116926601    -0.772693369462     0.181704837734    12.000000000000
         C           -2.707047926601     0.596420630538     0.442885837734    12.000000000000
         H            0.459444073399    -2.579987369462    -1.269769162266     1.007825032230
         H            1.237691073399    -1.059431369462    -1.688410162266     1.007825032230
         H            1.527636073399    -2.628802369462     0.911569837734     1.007825032230
         H            2.775467073399    -2.146163369462    -0.243215162266     1.007825032230
         H            1.250129073399    -0.446642369462     1.776914837734     1.007825032230
         H            2.994083073399    -0.584270369462     1.580701837734     1.007825032230
         H            2.900414073399     1.219065630538     0.163106837734     1.007825032230
         H           -1.754449926601    -2.542587369462    -0.459942162266     1.007825032230
         H           -1.386983926601     2.313780630538     0.474422837734     1.007825032230
         H           -3.753052926601    -1.286169369462     0.287506837734     1.007825032230
         H           -3.587132926601     1.156203630538     0.749934837734     1.007825032230

  Basis Set: AUG-CC-PVTZ
    Blend: AUG-CC-PVTZ
  Basis Set: (AUG-CC-PVTZ AUX)
    Blend: AUG-CC-PVTZ-JKFIT
	 Reference Energy          =    -514.5753131230248982 [Eh]
	 Singles Energy            =      -0.0000000000000000 [Eh]
	 Same-Spin Energy          =      -0.5574572948111911 [Eh]
	 Opposite-Spin Energy      =      -1.7425351620052090 [Eh]
	 Correlation Energy        =      -2.2999924568164003 [Eh]
	 Total Energy              =    -516.8753055798413243 [Eh]

	 ================> DF-SCS-MP2 Energies <==================
	-----------------------------------------------------------
	 SCS Same-Spin Scale       =       0.3333333333333333 [-]
	 SCS Opposite-Spin Scale   =       1.2000000000000000 [-]
	 SCS Same-Spin Energy      =      -0.1858190982703970 [Eh]
	 SCS Opposite-Spin Energy  =      -2.0910421944062505 [Eh]
	 SCS Correlation Energy    =      -2.2768612926766476 [Eh]
	 SCS Total Energy          =    -516.8521744157015974 [Eh]
	-----------------------------------------------------------

  Dipole Moment: [D]
     X:    -0.0037      Y:    -2.7044      Z:     1.4177     Total:     3.0535

*** Psi4 exiting successfully. Buy a developer a beer!
