                               Psi4 1.4a3.dev225

  ==> Input File <==

--------------------------------------------------------------------------
#psi4
#
memory 32 gb

molecule  {
0 1
  O        0.9417500     2.5148810    -0.6596880
  N        2.0463840     0.6978680     0.1749460
  C        0.7564320    -1.5550710    -0.8733250
  C        1.8157710    -1.7711630     0.2163790
  C       -0.4497480    -0.7926040    -0.3845090
  C        2.0239394    -0.5065226     1.0123206
  C       -0.3650830     0.5850230    -0.0943830
  C        0.9119250     1.3593610    -0.2260870
  C       -1.6913630    -1.4231620    -0.2398970
  C       -1.5035900     1.3035830     0.2885800
  C       -2.8212120    -0.7143780     0.1714760
  C       -2.7281430     0.6547360     0.4326570
  H        0.4383490    -2.5216720    -1.2799980
  H        1.2165960    -1.0011160    -1.6986390
  H        1.5065410    -2.5704870     0.9013410
  H        2.7543720    -2.0878480    -0.2534440
  H        1.2290340    -0.3883270     1.7666860
  H        2.9729880    -0.5259550     1.5704730
  H        2.8793190     1.2773810     0.1528780
  H       -1.7755450    -2.4842720    -0.4701710
  H       -1.4080790     2.3720960     0.4641940
  H       -3.7741480    -1.2278540     0.2772780
  H       -3.6082280     1.2145190     0.7397060
units angstrom
no_reorient  #important for SAPT in psi4, default
symmetry c1  #important for SAPT in psi4, default
}

set PROPERTIES_ORIGIN ["COM"]
properties('MP2/aug-cc-pvtz', properties = ['dipole'])
--------------------------------------------------------------------------

    Molecular point group: c1
  Charge       = 0
  Multiplicity = 1
  Basis Set: AUG-CC-PVTZ
    Blend: AUG-CC-PVTZ
  Basis Set: (AUG-CC-PVTZ AUX)
    Blend: AUG-CC-PVTZ-JKFIT

    Orbital Energies [Eh]
    ---------------------

    Doubly Occupied:

       1A    -20.514629     2A    -15.582511     3A    -11.351015
       4A    -11.276797     5A    -11.258291     6A    -11.248754
       7A    -11.247124     8A    -11.245436     9A    -11.241800
      10A    -11.239816    11A    -11.239712    12A    -11.237714
      13A     -1.368525    14A     -1.233444    15A     -1.164090
      16A     -1.083965    17A     -1.037036    18A     -1.021935
      19A     -0.938330    20A     -0.881237    21A     -0.841122
      22A     -0.798423    23A     -0.775912    24A     -0.696444
      25A     -0.684883    26A     -0.672296    27A     -0.651783
      28A     -0.623938    29A     -0.616599    30A     -0.600756
      31A     -0.586856    32A     -0.576085    33A     -0.556928
      34A     -0.534691    35A     -0.518477    36A     -0.510650
      37A     -0.493388    38A     -0.490446    39A     -0.477887
      40A     -0.422812    41A     -0.390074    42A     -0.343760
      43A     -0.336154

  @DF-RHF Final Energy:  -514.59602559509972

   => Energetics <=

    Nuclear Repulsion Energy =            685.2470269048465070
    One-Electron Energy =               -2058.4610549366684609
    Two-Electron Energy =                 858.6180024367222359
    Total Energy =                       -514.5960255950997180
  Basis Set: (AUG-CC-PVTZ AUX)
    Blend: AUG-CC-PVTZ-RI
    Molecular point group: c1

    Geometry (in Angstrom), charge = 0, multiplicity = 1:

       Center              X                  Y                   Z               Mass
    ------------   -----------------  -----------------  -----------------  -----------------
         O            0.956920703375     2.467268968643    -0.645558448660    15.994914619570
         N            2.061554703375     0.650255968643     0.189075551340    14.003074004430
         C            0.771602703375    -1.602683031357    -0.859195448660    12.000000000000
         C            1.830941703375    -1.818775031357     0.230508551340    12.000000000000
         C           -0.434577296625    -0.840216031357    -0.370379448660    12.000000000000
         C            2.039110103375    -0.554134631357     1.026450151340    12.000000000000
         C           -0.349912296625     0.537410968643    -0.080253448660    12.000000000000
         C            0.927095703375     1.311748968643    -0.211957448660    12.000000000000
         C           -1.676192296625    -1.470774031357    -0.225767448660    12.000000000000
         C           -1.488419296625     1.255970968643     0.302709551340    12.000000000000
         C           -2.806041296625    -0.761990031357     0.185605551340    12.000000000000
         C           -2.712972296625     0.607123968643     0.446786551340    12.000000000000
         H            0.453519703375    -2.569284031357    -1.265868448660     1.007825032230
         H            1.231766703375    -1.048728031357    -1.684509448660     1.007825032230
         H            1.521711703375    -2.618099031357     0.915470551340     1.007825032230
         H            2.769542703375    -2.135460031357    -0.239314448660     1.007825032230
         H            1.244204703375    -0.435939031357     1.780815551340     1.007825032230
         H            2.988158703375    -0.573567031357     1.584602551340     1.007825032230
         H            2.894489703375     1.229768968643     0.167007551340     1.007825032230
         H           -1.760374296625    -2.531884031357    -0.456041448660     1.007825032230
         H           -1.392908296625     2.324483968643     0.478323551340     1.007825032230
         H           -3.758977296625    -1.275466031357     0.291407551340     1.007825032230
         H           -3.593057296625     1.166906968643     0.753835551340     1.007825032230

  Basis Set: AUG-CC-PVTZ
    Blend: AUG-CC-PVTZ
  Basis Set: (AUG-CC-PVTZ AUX)
    Blend: AUG-CC-PVTZ-JKFIT
	 Reference Energy          =    -514.5960255950997180 [Eh]
	 Singles Energy            =      -0.0000000000000000 [Eh]
	 Same-Spin Energy          =      -0.5587751410017180 [Eh]
	 Opposite-Spin Energy      =      -1.7445436306804383 [Eh]
	 Correlation Energy        =      -2.3033187716821564 [Eh]
	 Total Energy              =    -516.8993443667818610 [Eh]

	 ================> DF-SCS-MP2 Energies <==================
	-----------------------------------------------------------
	 SCS Same-Spin Scale       =       0.3333333333333333 [-]
	 SCS Opposite-Spin Scale   =       1.2000000000000000 [-]
	 SCS Same-Spin Energy      =      -0.1862583803339060 [Eh]
	 SCS Opposite-Spin Energy  =      -2.0934523568165258 [Eh]
	 SCS Correlation Energy    =      -2.2797107371504319 [Eh]
	 SCS Total Energy          =    -516.8757363322501988 [Eh]
	-----------------------------------------------------------

  Dipole Moment: [D]
     X:     0.6324      Y:    -3.6532      Z:     1.7660     Total:     4.1066

*** Psi4 exiting successfully. Buy a developer a beer!
