                               Psi4 1.3.2 release

  ==> Input File <==

--------------------------------------------------------------------------
#psi4
#
memory 32 gb

molecule  {
0 1
  O        0.9417500     2.5148810    -0.6596880
  N        2.0463840     0.6978680     0.1749460
  C        0.7564320    -1.5550710    -0.8733250
  C        1.8157710    -1.7711630     0.2163790
  C       -0.4497480    -0.7926040    -0.3845090
  C        2.0775731    -0.4910902     1.0206571
  C       -0.3650830     0.5850230    -0.0943830
  C        0.9119250     1.3593610    -0.2260870
  C       -1.6913630    -1.4231620    -0.2398970
  C       -1.5035900     1.3035830     0.2885800
  C       -2.8212120    -0.7143780     0.1714760
  C       -2.7281430     0.6547360     0.4326570
  H        0.4383490    -2.5216720    -1.2799980
  H        1.2165960    -1.0011160    -1.6986390
  H        1.5065410    -2.5704870     0.9013410
  H        2.7543720    -2.0878480    -0.2534440
  H        1.2290340    -0.3883270     1.7666860
  H        2.9729880    -0.5259550     1.5704730
  H        2.8793190     1.2773810     0.1528780
  H       -1.7755450    -2.4842720    -0.4701710
  H       -1.4080790     2.3720960     0.4641940
  H       -3.7741480    -1.2278540     0.2772780
  H       -3.6082280     1.2145190     0.7397060
units angstrom
no_reorient  #important for SAPT in psi4, default
symmetry c1  #important for SAPT in psi4, default
}

set PROPERTIES_ORIGIN ["COM"]
properties('MP2/aug-cc-pvtz', properties = ['dipole'])
--------------------------------------------------------------------------

    Molecular point group: c1
  Charge       = 0
  Multiplicity = 1
  Basis Set: AUG-CC-PVTZ
    Blend: AUG-CC-PVTZ
  Basis Set: (AUG-CC-PVTZ AUX)
    Blend: AUG-CC-PVTZ-JKFIT

    Orbital Energies [Eh]
    ---------------------

    Doubly Occupied:

       1A    -20.515479     2A    -15.582835     3A    -11.352513
       4A    -11.276167     5A    -11.258268     6A    -11.248711
       7A    -11.247092     8A    -11.245418     9A    -11.241597
      10A    -11.240071    11A    -11.239660    12A    -11.238250
      13A     -1.369235    14A     -1.234330    15A     -1.164127
      16A     -1.081556    17A     -1.037036    18A     -1.020544
      19A     -0.939446    20A     -0.882548    21A     -0.840560
      22A     -0.798324    23A     -0.775433    24A     -0.697134
      25A     -0.686334    26A     -0.671003    27A     -0.655657
      28A     -0.622832    29A     -0.616812    30A     -0.599753
      31A     -0.587372    32A     -0.574170    33A     -0.557288
      34A     -0.537092    35A     -0.515075    36A     -0.510459
      37A     -0.496122    38A     -0.489943    39A     -0.476857
      40A     -0.424116    41A     -0.387189    42A     -0.343761
      43A     -0.335921

  @DF-RHF Final Energy:  -514.59376349365368

   => Energetics <=

    Nuclear Repulsion Energy =            684.5314162330819272
    One-Electron Energy =               -2057.0221789939741939
    Two-Electron Energy =                 857.8969992672385843
    Total Energy =                       -514.5937634936536824
  Basis Set: (AUG-CC-PVTZ AUX)
    Blend: AUG-CC-PVTZ-RI
    Molecular point group: c1

    Geometry (in Angstrom), charge = 0, multiplicity = 1:

       Center              X                  Y                   Z               Mass
    ------------   -----------------  -----------------  -----------------  -----------------
         O            0.952925246691     2.466119327918    -0.646179478435    15.994914619570
         N            2.057559246691     0.649106327918     0.188454521565    14.003074004430
         C            0.767607246691    -1.603832672082    -0.859816478435    12.000000000000
         C            1.826946246691    -1.819924672082     0.229887521565    12.000000000000
         C           -0.438572753309    -0.841365672082    -0.371000478435    12.000000000000
         C            2.088748346691    -0.539851872082     1.034165621565    12.000000000000
         C           -0.353907753309     0.536261327918    -0.080874478435    12.000000000000
         C            0.923100246691     1.310599327918    -0.212578478435    12.000000000000
         C           -1.680187753309    -1.471923672082    -0.226388478435    12.000000000000
         C           -1.492414753309     1.254821327918     0.302088521565    12.000000000000
         C           -2.810036753309    -0.763139672082     0.184984521565    12.000000000000
         C           -2.716967753309     0.605974327918     0.446165521565    12.000000000000
         H            0.449524246691    -2.570433672082    -1.266489478435     1.007825032230
         H            1.227771246691    -1.049877672082    -1.685130478435     1.007825032230
         H            1.517716246691    -2.619248672082     0.914849521565     1.007825032230
         H            2.765547246691    -2.136609672082    -0.239935478435     1.007825032230
         H            1.240209246691    -0.437088672082     1.780194521565     1.007825032230
         H            2.984163246691    -0.574716672082     1.583981521565     1.007825032230
         H            2.890494246691     1.228619327918     0.166386521565     1.007825032230
         H           -1.764369753309    -2.533033672082    -0.456662478435     1.007825032230
         H           -1.396903753309     2.323334327918     0.477702521565     1.007825032230
         H           -3.762972753309    -1.276615672082     0.290786521565     1.007825032230
         H           -3.597052753309     1.165757327918     0.753214521565     1.007825032230

  Basis Set: AUG-CC-PVTZ
    Blend: AUG-CC-PVTZ
  Basis Set: (AUG-CC-PVTZ AUX)
    Blend: AUG-CC-PVTZ-JKFIT
	 Reference Energy          =    -514.5937634936536824 [Eh]
	 Singles Energy            =      -0.0000000000000000 [Eh]
	 Same-Spin Energy          =      -0.5585891037334678 [Eh]
	 Opposite-Spin Energy      =      -1.7443754256633808 [Eh]
	 Correlation Energy        =      -2.3029645293968484 [Eh]
	 Total Energy              =    -516.8967280230505139 [Eh]

	 ================> DF-SCS-MP2 Energies <==================
	-----------------------------------------------------------
	 SCS Same-Spin Scale       =       0.3333333333333333 [-]
	 SCS Opposite-Spin Scale   =       1.2000000000000000 [-]
	 SCS Same-Spin Energy      =      -0.1861963679111559 [Eh]
	 SCS Opposite-Spin Energy  =      -2.0932505107960568 [Eh]
	 SCS Correlation Energy    =      -2.2794468787072129 [Eh]
	 SCS Total Energy          =    -516.8732103723608589 [Eh]
	-----------------------------------------------------------

  Dipole Moment: [D]
     X:     0.6618      Y:    -3.6117      Z:     1.7549     Total:     4.0696

*** Psi4 exiting successfully. Buy a developer a beer!
