                               Psi4 1.3.2 release

  ==> Input File <==

--------------------------------------------------------------------------
#psi4
#
memory 32 gb

molecule  {
0 1
  O        0.9417500     2.5148810    -0.6596880
  N        2.0193172     0.6598951     0.1860146
  C        0.7564320    -1.5550710    -0.8733250
  C        1.8157710    -1.7711630     0.2163790
  C       -0.4497480    -0.7926040    -0.3845090
  C        2.0266990    -0.4897580     1.0228720
  C       -0.3650830     0.5850230    -0.0943830
  C        0.9119250     1.3593610    -0.2260870
  C       -1.6913630    -1.4231620    -0.2398970
  C       -1.5035900     1.3035830     0.2885800
  C       -2.8212120    -0.7143780     0.1714760
  C       -2.7281430     0.6547360     0.4326570
  H        0.4383490    -2.5216720    -1.2799980
  H        1.2165960    -1.0011160    -1.6986390
  H        1.5065410    -2.5704870     0.9013410
  H        2.7543720    -2.0878480    -0.2534440
  H        1.2290340    -0.3883270     1.7666860
  H        2.9729880    -0.5259550     1.5704730
  H        2.8793190     1.2773810     0.1528780
  H       -1.7755450    -2.4842720    -0.4701710
  H       -1.4080790     2.3720960     0.4641940
  H       -3.7741480    -1.2278540     0.2772780
  H       -3.6082280     1.2145190     0.7397060
units angstrom
no_reorient  #important for SAPT in psi4, default
symmetry c1  #important for SAPT in psi4, default
}

set PROPERTIES_ORIGIN ["COM"]
properties('MP2/aug-cc-pvtz', properties = ['dipole'])
--------------------------------------------------------------------------

    Molecular point group: c1
  Charge       = 0
  Multiplicity = 1
  Basis Set: AUG-CC-PVTZ
    Blend: AUG-CC-PVTZ
  Basis Set: (AUG-CC-PVTZ AUX)
    Blend: AUG-CC-PVTZ-JKFIT

    Orbital Energies [Eh]
    ---------------------

    Doubly Occupied:

       1A    -20.518100     2A    -15.586397     3A    -11.353163
       4A    -11.273405     5A    -11.257744     6A    -11.248290
       7A    -11.245897     8A    -11.244639     9A    -11.241323
      10A    -11.239334    11A    -11.238801    12A    -11.236494
      13A     -1.370239    14A     -1.242638    15A     -1.163509
      16A     -1.080998    17A     -1.037380    18A     -1.019958
      19A     -0.938953    20A     -0.881823    21A     -0.840543
      22A     -0.798524    23A     -0.771679    24A     -0.693792
      25A     -0.690606    26A     -0.671857    27A     -0.655336
      28A     -0.624706    29A     -0.612198    30A     -0.600050
      31A     -0.589655    32A     -0.574796    33A     -0.557217
      34A     -0.536095    35A     -0.518089    36A     -0.508998
      37A     -0.492242    38A     -0.488874    39A     -0.478131
      40A     -0.424555    41A     -0.388760    42A     -0.343427
      43A     -0.335647

  @DF-RHF Final Energy:  -514.59157117718019

   => Energetics <=

    Nuclear Repulsion Energy =            685.9686773763932024
    One-Electron Energy =               -2059.8907713262933612
    Two-Electron Energy =                 859.3305227727198599
    Total Energy =                       -514.5915711771801853
  Basis Set: (AUG-CC-PVTZ AUX)
    Blend: AUG-CC-PVTZ-RI
    Molecular point group: c1

    Geometry (in Angstrom), charge = 0, multiplicity = 1:

       Center              X                  Y                   Z               Mass
    ------------   -----------------  -----------------  -----------------  -----------------
         O            0.959068049269     2.469321078086    -0.647306673891    15.994914619570
         N            2.036635249269     0.614335178086     0.198395926109    14.003074004430
         C            0.773750049269    -1.600630921914    -0.860943673891    12.000000000000
         C            1.833089049269    -1.816722921914     0.228760326109    12.000000000000
         C           -0.432429950731    -0.838163921914    -0.372127673891    12.000000000000
         C            2.044017049269    -0.535317921914     1.035253326109    12.000000000000
         C           -0.347764950731     0.539463078086    -0.082001673891    12.000000000000
         C            0.929243049269     1.313801078086    -0.213705673891    12.000000000000
         C           -1.674044950731    -1.468721921914    -0.227515673891    12.000000000000
         C           -1.486271950731     1.258023078086     0.300961326109    12.000000000000
         C           -2.803893950731    -0.759937921914     0.183857326109    12.000000000000
         C           -2.710824950731     0.609176078086     0.445038326109    12.000000000000
         H            0.455667049269    -2.567231921914    -1.267616673891     1.007825032230
         H            1.233914049269    -1.046675921914    -1.686257673891     1.007825032230
         H            1.523859049269    -2.616046921914     0.913722326109     1.007825032230
         H            2.771690049269    -2.133407921914    -0.241062673891     1.007825032230
         H            1.246352049269    -0.433886921914     1.779067326109     1.007825032230
         H            2.990306049269    -0.571514921914     1.582854326109     1.007825032230
         H            2.896637049269     1.231821078086     0.165259326109     1.007825032230
         H           -1.758226950731    -2.529831921914    -0.457789673891     1.007825032230
         H           -1.390760950731     2.326536078086     0.476575326109     1.007825032230
         H           -3.756829950731    -1.273413921914     0.289659326109     1.007825032230
         H           -3.590909950731     1.168959078086     0.752087326109     1.007825032230

  Basis Set: AUG-CC-PVTZ
    Blend: AUG-CC-PVTZ
  Basis Set: (AUG-CC-PVTZ AUX)
    Blend: AUG-CC-PVTZ-JKFIT
	 Reference Energy          =    -514.5915711771801853 [Eh]
	 Singles Energy            =      -0.0000000000000000 [Eh]
	 Same-Spin Energy          =      -0.5595099706844977 [Eh]
	 Opposite-Spin Energy      =      -1.7455271522948528 [Eh]
	 Correlation Energy        =      -2.3050371229793507 [Eh]
	 Total Energy              =    -516.8966083001595280 [Eh]

	 ================> DF-SCS-MP2 Energies <==================
	-----------------------------------------------------------
	 SCS Same-Spin Scale       =       0.3333333333333333 [-]
	 SCS Opposite-Spin Scale   =       1.2000000000000000 [-]
	 SCS Same-Spin Energy      =      -0.1865033235614992 [Eh]
	 SCS Opposite-Spin Energy  =      -2.0946325827538232 [Eh]
	 SCS Correlation Energy    =      -2.2811359063153223 [Eh]
	 SCS Total Energy          =    -516.8727070834954702 [Eh]
	-----------------------------------------------------------

  Dipole Moment: [D]
     X:     0.6875      Y:    -3.5360      Z:     1.7503     Total:     4.0049

*** Psi4 exiting successfully. Buy a developer a beer!
