                               Psi4 1.3.2 release

  ==> Input File <==

--------------------------------------------------------------------------
#psi4
#
memory 32 gb

molecule  {
0 1
  O        0.9417500     2.5148810    -0.6596880
  N        2.0463840     0.6978680     0.1749460
  C        0.7564320    -1.5550710    -0.8733250
  C        1.7231830    -1.7302446     0.1826390
  C       -0.4497480    -0.7926040    -0.3845090
  C        2.0266990    -0.4897580     1.0228720
  C       -0.3650830     0.5850230    -0.0943830
  C        0.9119250     1.3593610    -0.2260870
  C       -1.6913630    -1.4231620    -0.2398970
  C       -1.5035900     1.3035830     0.2885800
  C       -2.8212120    -0.7143780     0.1714760
  C       -2.7281430     0.6547360     0.4326570
  H        0.4383490    -2.5216720    -1.2799980
  H        1.2165960    -1.0011160    -1.6986390
  H        1.5065410    -2.5704870     0.9013410
  H        2.7543720    -2.0878480    -0.2534440
  H        1.2290340    -0.3883270     1.7666860
  H        2.9729880    -0.5259550     1.5704730
  H        2.8793190     1.2773810     0.1528780
  H       -1.7755450    -2.4842720    -0.4701710
  H       -1.4080790     2.3720960     0.4641940
  H       -3.7741480    -1.2278540     0.2772780
  H       -3.6082280     1.2145190     0.7397060
units angstrom
no_reorient  #important for SAPT in psi4, default
symmetry c1  #important for SAPT in psi4, default
}

set PROPERTIES_ORIGIN ["COM"]
properties('MP2/aug-cc-pvtz', properties = ['dipole'])
--------------------------------------------------------------------------

    Molecular point group: c1
  Charge       = 0
  Multiplicity = 1
  Basis Set: AUG-CC-PVTZ
    Blend: AUG-CC-PVTZ
  Basis Set: (AUG-CC-PVTZ AUX)
    Blend: AUG-CC-PVTZ-JKFIT

    Orbital Energies [Eh]
    ---------------------

    Doubly Occupied:

       1A    -20.515446     2A    -15.582289     3A    -11.351772
       4A    -11.276700     5A    -11.258372     6A    -11.249250
       7A    -11.247851     8A    -11.246080     9A    -11.242912
      10A    -11.242240    11A    -11.240274    12A    -11.236420
      13A     -1.369385    14A     -1.236400    15A     -1.165880
      16A     -1.094317    17A     -1.036935    18A     -1.020330
      19A     -0.944753    20A     -0.881102    21A     -0.838632
      22A     -0.794584    23A     -0.777325    24A     -0.697787
      25A     -0.687656    26A     -0.673241    27A     -0.654263
      28A     -0.625260    29A     -0.617476    30A     -0.600412
      31A     -0.589765    32A     -0.578347    33A     -0.555662
      34A     -0.542053    35A     -0.521094    36A     -0.510594
      37A     -0.500631    38A     -0.485145    39A     -0.460325
      40A     -0.423385    41A     -0.387885    42A     -0.344328
      43A     -0.337766

  @DF-RHF Final Energy:  -514.58374887594391

   => Energetics <=

    Nuclear Repulsion Energy =            687.0058935917400049
    One-Electron Energy =               -2061.8946403501122404
    Two-Electron Energy =                 860.3049978824283244
    Total Energy =                       -514.5837488759439111
  Basis Set: (AUG-CC-PVTZ AUX)
    Blend: AUG-CC-PVTZ-RI
    Molecular point group: c1

    Geometry (in Angstrom), charge = 0, multiplicity = 1:

       Center              X                  Y                   Z               Mass
    ------------   -----------------  -----------------  -----------------  -----------------
         O            0.963612493819     2.462971858284    -0.643831007763    15.994914619570
         N            2.068246493819     0.645958858284     0.190802992237    14.003074004430
         C            0.778294493819    -1.606980141716    -0.857468007763    12.000000000000
         C            1.745045493819    -1.782153741716     0.198495992237    12.000000000000
         C           -0.427885506181    -0.844513141716    -0.368652007763    12.000000000000
         C            2.048561493819    -0.541667141716     1.038728992237    12.000000000000
         C           -0.343220506181     0.533113858284    -0.078526007763    12.000000000000
         C            0.933787493819     1.307451858284    -0.210230007763    12.000000000000
         C           -1.669500506181    -1.475071141716    -0.224040007763    12.000000000000
         C           -1.481727506181     1.251673858284     0.304436992237    12.000000000000
         C           -2.799349506181    -0.766287141716     0.187332992237    12.000000000000
         C           -2.706280506181     0.602826858284     0.448513992237    12.000000000000
         H            0.460211493819    -2.573581141716    -1.264141007763     1.007825032230
         H            1.238458493819    -1.053025141716    -1.682782007763     1.007825032230
         H            1.528403493819    -2.622396141716     0.917197992237     1.007825032230
         H            2.776234493819    -2.139757141716    -0.237587007763     1.007825032230
         H            1.250896493819    -0.440236141716     1.782542992237     1.007825032230
         H            2.994850493819    -0.577864141716     1.586329992237     1.007825032230
         H            2.901181493819     1.225471858284     0.168734992237     1.007825032230
         H           -1.753682506181    -2.536181141716    -0.454314007763     1.007825032230
         H           -1.386216506181     2.320186858284     0.480050992237     1.007825032230
         H           -3.752285506181    -1.279763141716     0.293134992237     1.007825032230
         H           -3.586365506181     1.162609858284     0.755562992237     1.007825032230

  Basis Set: AUG-CC-PVTZ
    Blend: AUG-CC-PVTZ
  Basis Set: (AUG-CC-PVTZ AUX)
    Blend: AUG-CC-PVTZ-JKFIT
	 Reference Energy          =    -514.5837488759439111 [Eh]
	 Singles Energy            =      -0.0000000000000000 [Eh]
	 Same-Spin Energy          =      -0.5595756218882730 [Eh]
	 Opposite-Spin Energy      =      -1.7456563137561165 [Eh]
	 Correlation Energy        =      -2.3052319356443896 [Eh]
	 Total Energy              =    -516.8889808115883397 [Eh]

	 ================> DF-SCS-MP2 Energies <==================
	-----------------------------------------------------------
	 SCS Same-Spin Scale       =       0.3333333333333333 [-]
	 SCS Opposite-Spin Scale   =       1.2000000000000000 [-]
	 SCS Same-Spin Energy      =      -0.1865252072960910 [Eh]
	 SCS Opposite-Spin Energy  =      -2.0947875765073398 [Eh]
	 SCS Correlation Energy    =      -2.2813127838034308 [Eh]
	 SCS Total Energy          =    -516.8650616597473118 [Eh]
	-----------------------------------------------------------

  Dipole Moment: [D]
     X:     0.5557      Y:    -3.5674      Z:     1.7655     Total:     4.0190

*** Psi4 exiting successfully. Buy a developer a beer!
