                               Psi4 1.3.2 release

  ==> Input File <==

--------------------------------------------------------------------------
#psi4
#
memory 32 gb

molecule  {
0 1
  O        0.9417500     2.5148810    -0.6596880
  N        2.0463840     0.6978680     0.1749460
  C        0.7564320    -1.5550710    -0.8733250
  C        1.8157710    -1.7711630     0.2163790
  C       -0.4975335    -0.7912642    -0.3727496
  C        2.0266990    -0.4897580     1.0228720
  C       -0.3650830     0.5850230    -0.0943830
  C        0.9119250     1.3593610    -0.2260870
  C       -1.6913630    -1.4231620    -0.2398970
  C       -1.5035900     1.3035830     0.2885800
  C       -2.8212120    -0.7143780     0.1714760
  C       -2.7281430     0.6547360     0.4326570
  H        0.4383490    -2.5216720    -1.2799980
  H        1.2165960    -1.0011160    -1.6986390
  H        1.5065410    -2.5704870     0.9013410
  H        2.7543720    -2.0878480    -0.2534440
  H        1.2290340    -0.3883270     1.7666860
  H        2.9729880    -0.5259550     1.5704730
  H        2.8793190     1.2773810     0.1528780
  H       -1.7755450    -2.4842720    -0.4701710
  H       -1.4080790     2.3720960     0.4641940
  H       -3.7741480    -1.2278540     0.2772780
  H       -3.6082280     1.2145190     0.7397060
units angstrom
no_reorient  #important for SAPT in psi4, default
symmetry c1  #important for SAPT in psi4, default
}

set PROPERTIES_ORIGIN ["COM"]
properties('MP2/aug-cc-pvtz', properties = ['dipole'])
--------------------------------------------------------------------------

    Molecular point group: c1
  Charge       = 0
  Multiplicity = 1
  Basis Set: AUG-CC-PVTZ
    Blend: AUG-CC-PVTZ
  Basis Set: (AUG-CC-PVTZ AUX)
    Blend: AUG-CC-PVTZ-JKFIT

    Orbital Energies [Eh]
    ---------------------

    Doubly Occupied:

       1A    -20.515832     2A    -15.582679     3A    -11.352851
       4A    -11.275414     5A    -11.254894     6A    -11.249228
       7A    -11.246969     8A    -11.245645     9A    -11.240063
      10A    -11.239598    11A    -11.237076    12A    -11.237067
      13A     -1.369567    14A     -1.234511    15A     -1.167697
      16A     -1.077701    17A     -1.036881    18A     -1.023808
      19A     -0.936799    20A     -0.882443    21A     -0.839088
      22A     -0.798274    23A     -0.779035    24A     -0.697615
      25A     -0.684692    26A     -0.671657    27A     -0.651833
      28A     -0.625057    29A     -0.614847    30A     -0.600439
      31A     -0.586200    32A     -0.576838    33A     -0.555138
      34A     -0.535130    35A     -0.518810    36A     -0.511709
      37A     -0.493171    38A     -0.490905    39A     -0.469940
      40A     -0.425152    41A     -0.389344    42A     -0.345753
      43A     -0.338905

  @DF-RHF Final Energy:  -514.59483590193929

   => Energetics <=

    Nuclear Repulsion Energy =            685.0994994751882814
    One-Electron Energy =               -2058.1761617976326306
    Two-Electron Energy =                 858.4818264205051719
    Total Energy =                       -514.5948359019392910
  Basis Set: (AUG-CC-PVTZ AUX)
    Blend: AUG-CC-PVTZ-RI
    Molecular point group: c1

    Geometry (in Angstrom), charge = 0, multiplicity = 1:

       Center              X                  Y                   Z               Mass
    ------------   -----------------  -----------------  -----------------  -----------------
         O            0.960274919718     2.465920276571    -0.647220497614    15.994914619570
         N            2.064908919718     0.648907276571     0.187413502386    14.003074004430
         C            0.774956919718    -1.604031723429    -0.860857497614    12.000000000000
         C            1.834295919718    -1.820123723429     0.228846502386    12.000000000000
         C           -0.479008580282    -0.840224923429    -0.360282097614    12.000000000000
         C            2.045223919718    -0.538718723429     1.035339502386    12.000000000000
         C           -0.346558080282     0.536062276571    -0.081915497614    12.000000000000
         C            0.930449919718     1.310400276571    -0.213619497614    12.000000000000
         C           -1.672838080282    -1.472122723429    -0.227429497614    12.000000000000
         C           -1.485065080282     1.254622276571     0.301047502386    12.000000000000
         C           -2.802687080282    -0.763338723429     0.183943502386    12.000000000000
         C           -2.709618080282     0.605775276571     0.445124502386    12.000000000000
         H            0.456873919718    -2.570632723429    -1.267530497614     1.007825032230
         H            1.235120919718    -1.050076723429    -1.686171497614     1.007825032230
         H            1.525065919718    -2.619447723429     0.913808502386     1.007825032230
         H            2.772896919718    -2.136808723429    -0.240976497614     1.007825032230
         H            1.247558919718    -0.437287723429     1.779153502386     1.007825032230
         H            2.991512919718    -0.574915723429     1.582940502386     1.007825032230
         H            2.897843919718     1.228420276571     0.165345502386     1.007825032230
         H           -1.757020080282    -2.533232723429    -0.457703497614     1.007825032230
         H           -1.389554080282     2.323135276571     0.476661502386     1.007825032230
         H           -3.755623080282    -1.276814723429     0.289745502386     1.007825032230
         H           -3.589703080282     1.165558276571     0.752173502386     1.007825032230

  Basis Set: AUG-CC-PVTZ
    Blend: AUG-CC-PVTZ
  Basis Set: (AUG-CC-PVTZ AUX)
    Blend: AUG-CC-PVTZ-JKFIT
	 Reference Energy          =    -514.5948359019392910 [Eh]
	 Singles Energy            =      -0.0000000000000000 [Eh]
	 Same-Spin Energy          =      -0.5582060842787088 [Eh]
	 Opposite-Spin Energy      =      -1.7438690776413055 [Eh]
	 Correlation Energy        =      -2.3020751619200142 [Eh]
	 Total Energy              =    -516.8969110638593065 [Eh]

	 ================> DF-SCS-MP2 Energies <==================
	-----------------------------------------------------------
	 SCS Same-Spin Scale       =       0.3333333333333333 [-]
	 SCS Opposite-Spin Scale   =       1.2000000000000000 [-]
	 SCS Same-Spin Energy      =      -0.1860686947595696 [Eh]
	 SCS Opposite-Spin Energy  =      -2.0926428931695664 [Eh]
	 SCS Correlation Energy    =      -2.2787115879291360 [Eh]
	 SCS Total Energy          =    -516.8735474898684288 [Eh]
	-----------------------------------------------------------

  Dipole Moment: [D]
     X:     0.5987      Y:    -3.5850      Z:     1.7807     Total:     4.0474

*** Psi4 exiting successfully. Buy a developer a beer!
