                               Psi4 1.3.2 release

  ==> Input File <==

--------------------------------------------------------------------------
#psi4
#
memory 32 gb

molecule  {
0 1
  O        0.9417500     2.5148810    -0.6596880
  N        2.0463840     0.6978680     0.1749460
  C        0.7564320    -1.5550710    -0.8733250
  C        1.8157710    -1.7711630     0.2163790
  C       -0.4497480    -0.7926040    -0.3845090
  C        2.0266990    -0.4897580     1.0228720
  C       -0.3650830     0.5850230    -0.0943830
  C        0.7415700     1.2560630    -0.2085175
  C       -1.6913630    -1.4231620    -0.2398970
  C       -1.5035900     1.3035830     0.2885800
  C       -2.8212120    -0.7143780     0.1714760
  C       -2.7281430     0.6547360     0.4326570
  H        0.4383490    -2.5216720    -1.2799980
  H        1.2165960    -1.0011160    -1.6986390
  H        1.5065410    -2.5704870     0.9013410
  H        2.7543720    -2.0878480    -0.2534440
  H        1.2290340    -0.3883270     1.7666860
  H        2.9729880    -0.5259550     1.5704730
  H        2.8793190     1.2773810     0.1528780
  H       -1.7755450    -2.4842720    -0.4701710
  H       -1.4080790     2.3720960     0.4641940
  H       -3.7741480    -1.2278540     0.2772780
  H       -3.6082280     1.2145190     0.7397060
units angstrom
no_reorient  #important for SAPT in psi4, default
symmetry c1  #important for SAPT in psi4, default
}

set PROPERTIES_ORIGIN ["COM"]
properties('MP2/aug-cc-pvtz', properties = ['dipole'])
--------------------------------------------------------------------------

    Molecular point group: c1
  Charge       = 0
  Multiplicity = 1
  Basis Set: AUG-CC-PVTZ
    Blend: AUG-CC-PVTZ
  Basis Set: (AUG-CC-PVTZ AUX)
    Blend: AUG-CC-PVTZ-JKFIT

    Orbital Energies [Eh]
    ---------------------

    Doubly Occupied:

       1A    -20.500436     2A    -15.573118     3A    -11.353972
       4A    -11.276961     5A    -11.267208     6A    -11.264760
       7A    -11.264544     8A    -11.251949     9A    -11.250130
      10A    -11.243810    11A    -11.241604    12A    -11.236369
      13A     -1.304925    14A     -1.201280    15A     -1.177517
      16A     -1.083875    17A     -1.075066    18A     -1.023964
      19A     -0.935634    20A     -0.912562    21A     -0.846585
      22A     -0.803450    23A     -0.777399    24A     -0.709208
      25A     -0.685640    26A     -0.675515    27A     -0.645200
      28A     -0.629151    29A     -0.617319    30A     -0.603912
      31A     -0.583233    32A     -0.559258    33A     -0.551412
      34A     -0.532701    35A     -0.522630    36A     -0.512576
      37A     -0.492300    38A     -0.486497    39A     -0.469417
      40A     -0.407624    41A     -0.368263    42A     -0.354268
      43A     -0.346274

  @DF-RHF Final Energy:  -514.52469088540738

   => Energetics <=

    Nuclear Repulsion Energy =            686.4805197390770672
    One-Electron Energy =               -2060.7713930022764544
    Two-Electron Energy =                 859.7661823777921200
    Total Energy =                       -514.5246908854073808
  Basis Set: (AUG-CC-PVTZ AUX)
    Blend: AUG-CC-PVTZ-RI
    Molecular point group: c1

    Geometry (in Angstrom), charge = 0, multiplicity = 1:

       Center              X                  Y                   Z               Mass
    ------------   -----------------  -----------------  -----------------  -----------------
         O            0.969405767076     2.473715297189    -0.647653322552    15.994914619570
         N            2.074039767076     0.656702297189     0.186980677448    14.003074004430
         C            0.784087767076    -1.596236702811    -0.861290322552    12.000000000000
         C            1.843426767076    -1.812328702811     0.228413677448    12.000000000000
         C           -0.422092232924    -0.833769702811    -0.372474322552    12.000000000000
         C            2.054354767076    -0.530923702811     1.034906677448    12.000000000000
         C           -0.337427232924     0.543857297189    -0.082348322552    12.000000000000
         C            0.769225767076     1.214897297189    -0.196482822552    12.000000000000
         C           -1.663707232924    -1.464327702811    -0.227862322552    12.000000000000
         C           -1.475934232924     1.262417297189     0.300614677448    12.000000000000
         C           -2.793556232924    -0.755543702811     0.183510677448    12.000000000000
         C           -2.700487232924     0.613570297189     0.444691677448    12.000000000000
         H            0.466004767076    -2.562837702811    -1.267963322552     1.007825032230
         H            1.244251767076    -1.042281702811    -1.686604322552     1.007825032230
         H            1.534196767076    -2.611652702811     0.913375677448     1.007825032230
         H            2.782027767076    -2.129013702811    -0.241409322552     1.007825032230
         H            1.256689767076    -0.429492702811     1.778720677448     1.007825032230
         H            3.000643767076    -0.567120702811     1.582507677448     1.007825032230
         H            2.906974767076     1.236215297189     0.164912677448     1.007825032230
         H           -1.747889232924    -2.525437702811    -0.458136322552     1.007825032230
         H           -1.380423232924     2.330930297189     0.476228677448     1.007825032230
         H           -3.746492232924    -1.269019702811     0.289312677448     1.007825032230
         H           -3.580572232924     1.173353297189     0.751740677448     1.007825032230

  Basis Set: AUG-CC-PVTZ
    Blend: AUG-CC-PVTZ
  Basis Set: (AUG-CC-PVTZ AUX)
    Blend: AUG-CC-PVTZ-JKFIT
	 Reference Energy          =    -514.5246908854073808 [Eh]
	 Singles Energy            =      -0.0000000000000000 [Eh]
	 Same-Spin Energy          =      -0.5643219373779464 [Eh]
	 Opposite-Spin Energy      =      -1.7552304111129535 [Eh]
	 Correlation Energy        =      -2.3195523484909000 [Eh]
	 Total Energy              =    -516.8442432338982826 [Eh]

	 ================> DF-SCS-MP2 Energies <==================
	-----------------------------------------------------------
	 SCS Same-Spin Scale       =       0.3333333333333333 [-]
	 SCS Opposite-Spin Scale   =       1.2000000000000000 [-]
	 SCS Same-Spin Energy      =      -0.1881073124593155 [Eh]
	 SCS Opposite-Spin Energy  =      -2.1062764933355442 [Eh]
	 SCS Correlation Energy    =      -2.2943838057948596 [Eh]
	 SCS Total Energy          =    -516.8190746912022178 [Eh]
	-----------------------------------------------------------

  Dipole Moment: [D]
     X:    -0.5901      Y:    -4.1237      Z:     1.7796     Total:     4.5299

*** Psi4 exiting successfully. Buy a developer a beer!
