                               Psi4 1.3.2 release

  ==> Input File <==

--------------------------------------------------------------------------
#psi4
#
memory 32 gb

molecule  {
0 1
  O        0.9417500     2.5148810    -0.6596880
  N        2.0500360     0.7122935     0.1956180
  C        0.7564320    -1.5550710    -0.8733250
  C        1.8157710    -1.7711630     0.2163790
  C       -0.4497480    -0.7926040    -0.3845090
  C        2.0266990    -0.4897580     1.0228720
  C       -0.3650830     0.5850230    -0.0943830
  C        0.9119250     1.3593610    -0.2260870
  C       -1.6913630    -1.4231620    -0.2398970
  C       -1.5035900     1.3035830     0.2885800
  C       -2.8212120    -0.7143780     0.1714760
  C       -2.7281430     0.6547360     0.4326570
  H        0.4383490    -2.5216720    -1.2799980
  H        1.2165960    -1.0011160    -1.6986390
  H        1.5065410    -2.5704870     0.9013410
  H        2.7543720    -2.0878480    -0.2534440
  H        1.2290340    -0.3883270     1.7666860
  H        2.9729880    -0.5259550     1.5704730
  H        2.8793190     1.2773810     0.1528780
  H       -1.7755450    -2.4842720    -0.4701710
  H       -1.4080790     2.3720960     0.4641940
  H       -3.7741480    -1.2278540     0.2772780
  H       -3.6082280     1.2145190     0.7397060
units angstrom
no_reorient  #important for SAPT in psi4, default
symmetry c1  #important for SAPT in psi4, default
}

set PROPERTIES_ORIGIN ["COM"]
properties('MP2/aug-cc-pvtz', properties = ['dipole'])
--------------------------------------------------------------------------

    Molecular point group: c1
  Charge       = 0
  Multiplicity = 1
  Basis Set: AUG-CC-PVTZ
    Blend: AUG-CC-PVTZ
  Basis Set: (AUG-CC-PVTZ AUX)
    Blend: AUG-CC-PVTZ-JKFIT

    Orbital Energies [Eh]
    ---------------------

    Doubly Occupied:

       1A    -20.514677     2A    -15.581649     3A    -11.351534
       4A    -11.275585     5A    -11.258446     6A    -11.248927
       7A    -11.247518     8A    -11.245743     9A    -11.241873
      10A    -11.239951    11A    -11.239784    12A    -11.238350
      13A     -1.368769    14A     -1.234272    15A     -1.164480
      16A     -1.082647    17A     -1.036773    18A     -1.020708
      19A     -0.938445    20A     -0.882007    21A     -0.841827
      22A     -0.798708    23A     -0.777578    24A     -0.697838
      25A     -0.684188    26A     -0.672291    27A     -0.652766
      28A     -0.623206    29A     -0.616810    30A     -0.600065
      31A     -0.586971    32A     -0.577237    33A     -0.556863
      34A     -0.536198    35A     -0.518681    36A     -0.510329
      37A     -0.492901    38A     -0.490359    39A     -0.478535
      40A     -0.423000    41A     -0.388416    42A     -0.344018
      43A     -0.336247

  @DF-RHF Final Energy:  -514.59694840589134

   => Energetics <=

    Nuclear Repulsion Energy =            684.9278974593667044
    One-Electron Energy =               -2057.8153535238898257
    Two-Electron Energy =                 858.2905076586317819
    Total Energy =                       -514.5969484058913395
  Basis Set: (AUG-CC-PVTZ AUX)
    Blend: AUG-CC-PVTZ-RI
    Molecular point group: c1

    Geometry (in Angstrom), charge = 0, multiplicity = 1:

       Center              X                  Y                   Z               Mass
    ------------   -----------------  -----------------  -----------------  -----------------
         O            0.956397657058     2.464766073359    -0.648141499618    15.994914619570
         N            2.064683657058     0.662178573359     0.207164500382    14.003074004430
         C            0.771079657058    -1.605185926641    -0.861778499618    12.000000000000
         C            1.830418657058    -1.821277926641     0.227925500382    12.000000000000
         C           -0.435100342942    -0.842718926641    -0.372962499618    12.000000000000
         C            2.041346657058    -0.539872926641     1.034418500382    12.000000000000
         C           -0.350435342942     0.534908073359    -0.082836499618    12.000000000000
         C            0.926572657058     1.309246073359    -0.214540499618    12.000000000000
         C           -1.676715342942    -1.473276926641    -0.228350499618    12.000000000000
         C           -1.488942342942     1.253468073359     0.300126500382    12.000000000000
         C           -2.806564342942    -0.764492926641     0.183022500382    12.000000000000
         C           -2.713495342942     0.604621073359     0.444203500382    12.000000000000
         H            0.452996657058    -2.571786926641    -1.268451499618     1.007825032230
         H            1.231243657058    -1.051230926641    -1.687092499618     1.007825032230
         H            1.521188657058    -2.620601926641     0.912887500382     1.007825032230
         H            2.769019657058    -2.137962926641    -0.241897499618     1.007825032230
         H            1.243681657058    -0.438441926641     1.778232500382     1.007825032230
         H            2.987635657058    -0.576069926641     1.582019500382     1.007825032230
         H            2.893966657058     1.227266073359     0.164424500382     1.007825032230
         H           -1.760897342942    -2.534386926641    -0.458624499618     1.007825032230
         H           -1.393431342942     2.321981073359     0.475740500382     1.007825032230
         H           -3.759500342942    -1.277968926641     0.288824500382     1.007825032230
         H           -3.593580342942     1.164404073359     0.751252500382     1.007825032230

  Basis Set: AUG-CC-PVTZ
    Blend: AUG-CC-PVTZ
  Basis Set: (AUG-CC-PVTZ AUX)
    Blend: AUG-CC-PVTZ-JKFIT
	 Reference Energy          =    -514.5969484058913395 [Eh]
	 Singles Energy            =      -0.0000000000000000 [Eh]
	 Same-Spin Energy          =      -0.5585122757942885 [Eh]
	 Opposite-Spin Energy      =      -1.7441459300668518 [Eh]
	 Correlation Energy        =      -2.3026582058611402 [Eh]
	 Total Energy              =    -516.8996066117524606 [Eh]

	 ================> DF-SCS-MP2 Energies <==================
	-----------------------------------------------------------
	 SCS Same-Spin Scale       =       0.3333333333333333 [-]
	 SCS Opposite-Spin Scale   =       1.2000000000000000 [-]
	 SCS Same-Spin Energy      =      -0.1861707585980962 [Eh]
	 SCS Opposite-Spin Energy  =      -2.0929751160802219 [Eh]
	 SCS Correlation Energy    =      -2.2791458746783180 [Eh]
	 SCS Total Energy          =    -516.8760942805696459 [Eh]
	-----------------------------------------------------------

  Dipole Moment: [D]
     X:     0.6220      Y:    -3.6459      Z:     1.7318     Total:     4.0840

*** Psi4 exiting successfully. Buy a developer a beer!
