                               Psi4 1.3.2 release

  ==> Input File <==

--------------------------------------------------------------------------
#psi4
#
memory 32 gb

molecule  {
0 1
  O        0.9417500     2.5148810    -0.6596880
  N        2.0463840     0.6978680     0.1749460
  C        0.7564320    -1.5550710    -0.8733250
  C        1.8157710    -1.7711630     0.2163790
  C       -0.4497480    -0.7926040    -0.3845090
  C        2.0266990    -0.4897580     1.0228720
  C       -0.3650830     0.5850230    -0.0943830
  C        0.9095091     1.2657629    -0.1909649
  C       -1.6913630    -1.4231620    -0.2398970
  C       -1.5035900     1.3035830     0.2885800
  C       -2.8212120    -0.7143780     0.1714760
  C       -2.7281430     0.6547360     0.4326570
  H        0.4383490    -2.5216720    -1.2799980
  H        1.2165960    -1.0011160    -1.6986390
  H        1.5065410    -2.5704870     0.9013410
  H        2.7543720    -2.0878480    -0.2534440
  H        1.2290340    -0.3883270     1.7666860
  H        2.9729880    -0.5259550     1.5704730
  H        2.8793190     1.2773810     0.1528780
  H       -1.7755450    -2.4842720    -0.4701710
  H       -1.4080790     2.3720960     0.4641940
  H       -3.7741480    -1.2278540     0.2772780
  H       -3.6082280     1.2145190     0.7397060
units angstrom
no_reorient  #important for SAPT in psi4, default
symmetry c1  #important for SAPT in psi4, default
}

set PROPERTIES_ORIGIN ["COM"]
properties('MP2/aug-cc-pvtz', properties = ['dipole'])
--------------------------------------------------------------------------

    Molecular point group: c1
  Charge       = 0
  Multiplicity = 1
  Basis Set: AUG-CC-PVTZ
    Blend: AUG-CC-PVTZ
  Basis Set: (AUG-CC-PVTZ AUX)
    Blend: AUG-CC-PVTZ-JKFIT

    Orbital Energies [Eh]
    ---------------------

    Doubly Occupied:

       1A    -20.494095     2A    -15.596130     3A    -11.350261
       4A    -11.280892     5A    -11.261585     6A    -11.252489
       7A    -11.249941     8A    -11.248162     9A    -11.243832
      10A    -11.243709    11A    -11.243031    12A    -11.242047
      13A     -1.328521    14A     -1.228464    15A     -1.169226
      16A     -1.087265    17A     -1.044170    18A     -1.025199
      19A     -0.945112    20A     -0.893453    21A     -0.846770
      22A     -0.801860    23A     -0.787813    24A     -0.707683
      25A     -0.690137    26A     -0.674138    27A     -0.654732
      28A     -0.627653    29A     -0.616601    30A     -0.602852
      31A     -0.583851    32A     -0.559672    33A     -0.553730
      34A     -0.537946    35A     -0.517323    36A     -0.507037
      37A     -0.492734    38A     -0.491351    39A     -0.476560
      40A     -0.409976    41A     -0.382192    42A     -0.343812
      43A     -0.338571

  @DF-RHF Final Energy:  -514.57510709135761

   => Energetics <=

    Nuclear Repulsion Energy =            685.8584369444060940
    One-Electron Energy =               -2059.6019305864301714
    Two-Electron Energy =                 859.1683865506664688
    Total Energy =                       -514.5751070913576086
  Basis Set: (AUG-CC-PVTZ AUX)
    Blend: AUG-CC-PVTZ-RI
    Molecular point group: c1

    Geometry (in Angstrom), charge = 0, multiplicity = 1:

       Center              X                  Y                   Z               Mass
    ------------   -----------------  -----------------  -----------------  -----------------
         O            0.956895099352     2.472992700570    -0.648960908137    15.994914619570
         N            2.061529099352     0.655979700570     0.185673091863    14.003074004430
         C            0.771577099352    -1.596959299430    -0.862597908137    12.000000000000
         C            1.830916099352    -1.813051299430     0.227106091863    12.000000000000
         C           -0.434602900648    -0.834492299430    -0.373781908137    12.000000000000
         C            2.041844099352    -0.531646299430     1.033599091863    12.000000000000
         C           -0.349937900648     0.543134700570    -0.083655908137    12.000000000000
         C            0.924654199352     1.223874600570    -0.180237808137    12.000000000000
         C           -1.676217900648    -1.465050299430    -0.229169908137    12.000000000000
         C           -1.488444900648     1.261694700570     0.299307091863    12.000000000000
         C           -2.806066900648    -0.756266299430     0.182203091863    12.000000000000
         C           -2.712997900648     0.612847700570     0.443384091863    12.000000000000
         H            0.453494099352    -2.563560299430    -1.269270908137     1.007825032230
         H            1.231741099352    -1.043004299430    -1.687911908137     1.007825032230
         H            1.521686099352    -2.612375299430     0.912068091863     1.007825032230
         H            2.769517099352    -2.129736299430    -0.242716908137     1.007825032230
         H            1.244179099352    -0.430215299430     1.777413091863     1.007825032230
         H            2.988133099352    -0.567843299430     1.581200091863     1.007825032230
         H            2.894464099352     1.235492700570     0.163605091863     1.007825032230
         H           -1.760399900648    -2.526160299430    -0.459443908137     1.007825032230
         H           -1.392933900648     2.330207700570     0.474921091863     1.007825032230
         H           -3.759002900648    -1.269742299430     0.288005091863     1.007825032230
         H           -3.593082900648     1.172630700570     0.750433091863     1.007825032230

  Basis Set: AUG-CC-PVTZ
    Blend: AUG-CC-PVTZ
  Basis Set: (AUG-CC-PVTZ AUX)
    Blend: AUG-CC-PVTZ-JKFIT
	 Reference Energy          =    -514.5751070913576086 [Eh]
	 Singles Energy            =      -0.0000000000000000 [Eh]
	 Same-Spin Energy          =      -0.5610309601619402 [Eh]
	 Opposite-Spin Energy      =      -1.7488531924168509 [Eh]
	 Correlation Energy        =      -2.3098841525787912 [Eh]
	 Total Energy              =    -516.8849912439363834 [Eh]

	 ================> DF-SCS-MP2 Energies <==================
	-----------------------------------------------------------
	 SCS Same-Spin Scale       =       0.3333333333333333 [-]
	 SCS Opposite-Spin Scale   =       1.2000000000000000 [-]
	 SCS Same-Spin Energy      =      -0.1870103200539801 [Eh]
	 SCS Opposite-Spin Energy  =      -2.0986238309002210 [Eh]
	 SCS Correlation Energy    =      -2.2856341509542011 [Eh]
	 SCS Total Energy          =    -516.8607412423118603 [Eh]
	-----------------------------------------------------------

  Dipole Moment: [D]
     X:     0.6937      Y:    -4.2848      Z:     2.0378     Total:     4.7951

*** Psi4 exiting successfully. Buy a developer a beer!
