                               Psi4 1.3.2 release

  ==> Input File <==

--------------------------------------------------------------------------
#psi4
#
memory 32 gb

molecule  {
0 1
  O        0.9417500     2.5148810    -0.6596880
  N        2.0427260     0.6830808     0.1545323
  C        0.7564320    -1.5550710    -0.8733250
  C        1.8157710    -1.7711630     0.2163790
  C       -0.4497480    -0.7926040    -0.3845090
  C        2.0266990    -0.4897580     1.0228720
  C       -0.3650830     0.5850230    -0.0943830
  C        0.9119250     1.3593610    -0.2260870
  C       -1.6913630    -1.4231620    -0.2398970
  C       -1.5035900     1.3035830     0.2885800
  C       -2.8212120    -0.7143780     0.1714760
  C       -2.7281430     0.6547360     0.4326570
  H        0.4383490    -2.5216720    -1.2799980
  H        1.2165960    -1.0011160    -1.6986390
  H        1.5065410    -2.5704870     0.9013410
  H        2.7543720    -2.0878480    -0.2534440
  H        1.2290340    -0.3883270     1.7666860
  H        2.9729880    -0.5259550     1.5704730
  H        2.8793190     1.2773810     0.1528780
  H       -1.7755450    -2.4842720    -0.4701710
  H       -1.4080790     2.3720960     0.4641940
  H       -3.7741480    -1.2278540     0.2772780
  H       -3.6082280     1.2145190     0.7397060
units angstrom
no_reorient  #important for SAPT in psi4, default
symmetry c1  #important for SAPT in psi4, default
}

set PROPERTIES_ORIGIN ["COM"]
properties('MP2/aug-cc-pvtz', properties = ['dipole'])
--------------------------------------------------------------------------

    Molecular point group: c1
  Charge       = 0
  Multiplicity = 1
  Basis Set: AUG-CC-PVTZ
    Blend: AUG-CC-PVTZ
  Basis Set: (AUG-CC-PVTZ AUX)
    Blend: AUG-CC-PVTZ-JKFIT

    Orbital Energies [Eh]
    ---------------------

    Doubly Occupied:

       1A    -20.515848     2A    -15.583858     3A    -11.351527
       4A    -11.275936     5A    -11.258150     6A    -11.248710
       7A    -11.246878     8A    -11.245342     9A    -11.241634
      10A    -11.239702    11A    -11.238940    12A    -11.237512
      13A     -1.369430    14A     -1.235354    15A     -1.163937
      16A     -1.081863    17A     -1.036766    18A     -1.020560
      19A     -0.938232    20A     -0.881096    21A     -0.840768
      22A     -0.797848    23A     -0.775054    24A     -0.695749
      25A     -0.687122    26A     -0.671883    27A     -0.652297
      28A     -0.623630    29A     -0.615248    30A     -0.599758
      31A     -0.587420    32A     -0.575353    33A     -0.557120
      34A     -0.535506    35A     -0.518615    36A     -0.509392
      37A     -0.492712    38A     -0.489561    39A     -0.478223
      40A     -0.423854    41A     -0.390595    42A     -0.343741
      43A     -0.336000

  @DF-RHF Final Energy:  -514.59588102856185

   => Energetics <=

    Nuclear Repulsion Energy =            685.3042136610598618
    One-Electron Energy =               -2058.5827451179138734
    Two-Electron Energy =                 858.6826504282922770
    Total Energy =                       -514.5958810285618483
  Basis Set: (AUG-CC-PVTZ AUX)
    Blend: AUG-CC-PVTZ-RI
    Molecular point group: c1

    Geometry (in Angstrom), charge = 0, multiplicity = 1:

       Center              X                  Y                   Z               Mass
    ------------   -----------------  -----------------  -----------------  -----------------
         O            0.957033117007     2.467305539957    -0.644569910453    15.994914619570
         N            2.058009117007     0.635505339957     0.169650389547    14.003074004430
         C            0.771715117007    -1.602646460043    -0.858206910453    12.000000000000
         C            1.831054117007    -1.818738460043     0.231497089547    12.000000000000
         C           -0.434464882993    -0.840179460043    -0.369390910453    12.000000000000
         C            2.041982117007    -0.537333460043     1.037990089547    12.000000000000
         C           -0.349799882993     0.537447539957    -0.079264910453    12.000000000000
         C            0.927208117007     1.311785539957    -0.210968910453    12.000000000000
         C           -1.676079882993    -1.470737460043    -0.224778910453    12.000000000000
         C           -1.488306882993     1.256007539957     0.303698089547    12.000000000000
         C           -2.805928882993    -0.761953460043     0.186594089547    12.000000000000
         C           -2.712859882993     0.607160539957     0.447775089547    12.000000000000
         H            0.453632117007    -2.569247460043    -1.264879910453     1.007825032230
         H            1.231879117007    -1.048691460043    -1.683520910453     1.007825032230
         H            1.521824117007    -2.618062460043     0.916459089547     1.007825032230
         H            2.769655117007    -2.135423460043    -0.238325910453     1.007825032230
         H            1.244317117007    -0.435902460043     1.781804089547     1.007825032230
         H            2.988271117007    -0.573530460043     1.585591089547     1.007825032230
         H            2.894602117007     1.229805539957     0.167996089547     1.007825032230
         H           -1.760261882993    -2.531847460043    -0.455052910453     1.007825032230
         H           -1.392795882993     2.324520539957     0.479312089547     1.007825032230
         H           -3.758864882993    -1.275429460043     0.292396089547     1.007825032230
         H           -3.592944882993     1.166943539957     0.754824089547     1.007825032230

  Basis Set: AUG-CC-PVTZ
    Blend: AUG-CC-PVTZ
  Basis Set: (AUG-CC-PVTZ AUX)
    Blend: AUG-CC-PVTZ-JKFIT
	 Reference Energy          =    -514.5958810285618483 [Eh]
	 Singles Energy            =      -0.0000000000000000 [Eh]
	 Same-Spin Energy          =      -0.5588020849317300 [Eh]
	 Opposite-Spin Energy      =      -1.7446713509413772 [Eh]
	 Correlation Energy        =      -2.3034734358731073 [Eh]
	 Total Energy              =    -516.8993544644349640 [Eh]

	 ================> DF-SCS-MP2 Energies <==================
	-----------------------------------------------------------
	 SCS Same-Spin Scale       =       0.3333333333333333 [-]
	 SCS Opposite-Spin Scale   =       1.2000000000000000 [-]
	 SCS Same-Spin Energy      =      -0.1862673616439100 [Eh]
	 SCS Opposite-Spin Energy  =      -2.0936056211296523 [Eh]
	 SCS Correlation Energy    =      -2.2798729827735622 [Eh]
	 SCS Total Energy          =    -516.8757540113354025 [Eh]
	-----------------------------------------------------------

  Dipole Moment: [D]
     X:     0.6330      Y:    -3.5820      Z:     1.8026     Total:     4.0596

*** Psi4 exiting successfully. Buy a developer a beer!
