                               Psi4 1.4a3.dev225

  ==> Input File <==

--------------------------------------------------------------------------
#psi4
#
memory 32 gb

molecule  {
0 1
  O        0.9417500     2.5148810    -0.6596880
  N        2.0463840     0.6978680     0.1749460
  C        0.7564320    -1.5550710    -0.8733250
  C        1.8157710    -1.7711630     0.2163790
  C       -0.4897310    -0.7673294    -0.3683055
  C        2.0266990    -0.4897580     1.0228720
  C       -0.3650830     0.5850230    -0.0943830
  C        0.9119250     1.3593610    -0.2260870
  C       -1.6913630    -1.4231620    -0.2398970
  C       -1.5035900     1.3035830     0.2885800
  C       -2.8212120    -0.7143780     0.1714760
  C       -2.7281430     0.6547360     0.4326570
  H        0.4383490    -2.5216720    -1.2799980
  H        1.2165960    -1.0011160    -1.6986390
  H        1.5065410    -2.5704870     0.9013410
  H        2.7543720    -2.0878480    -0.2534440
  H        1.2290340    -0.3883270     1.7666860
  H        2.9729880    -0.5259550     1.5704730
  H        2.8793190     1.2773810     0.1528780
  H       -1.7755450    -2.4842720    -0.4701710
  H       -1.4080790     2.3720960     0.4641940
  H       -3.7741480    -1.2278540     0.2772780
  H       -3.6082280     1.2145190     0.7397060
units angstrom
no_reorient  #important for SAPT in psi4, default
symmetry c1  #important for SAPT in psi4, default
}

set PROPERTIES_ORIGIN ["COM"]
properties('MP2/aug-cc-pvtz', properties = ['dipole'])
--------------------------------------------------------------------------

    Molecular point group: c1
  Charge       = 0
  Multiplicity = 1
  Basis Set: AUG-CC-PVTZ
    Blend: AUG-CC-PVTZ
  Basis Set: (AUG-CC-PVTZ AUX)
    Blend: AUG-CC-PVTZ-JKFIT

    Orbital Energies [Eh]
    ---------------------

    Doubly Occupied:

       1A    -20.516062     2A    -15.582853     3A    -11.352864
       4A    -11.275459     5A    -11.254687     6A    -11.248891
       7A    -11.246066     8A    -11.244262     9A    -11.240303
      10A    -11.239335    11A    -11.238987    12A    -11.236854
      13A     -1.369814    14A     -1.234806    15A     -1.168252
      16A     -1.076966    17A     -1.038812    18A     -1.021941
      19A     -0.936513    20A     -0.881280    21A     -0.840035
      22A     -0.799837    23A     -0.778739    24A     -0.697084
      25A     -0.685017    26A     -0.671451    27A     -0.651988
      28A     -0.625782    29A     -0.614587    30A     -0.600250
      31A     -0.586797    32A     -0.576216    33A     -0.555280
      34A     -0.535027    35A     -0.517722    36A     -0.512414
      37A     -0.493889    38A     -0.491186    39A     -0.469231
      40A     -0.424941    41A     -0.389493    42A     -0.344771
      43A     -0.340222

  @DF-RHF Final Energy:  -514.59516893609748

   => Energetics <=

    Nuclear Repulsion Energy =            685.3399591229916723
    One-Electron Energy =               -2058.6563255486985327
    Two-Electron Energy =                 858.7211974896092670
    Total Energy =                       -514.5951689360974797
  Basis Set: (AUG-CC-PVTZ AUX)
    Blend: AUG-CC-PVTZ-RI
    Molecular point group: c1

    Geometry (in Angstrom), charge = 0, multiplicity = 1:

       Center              X                  Y                   Z               Mass
    ------------   -----------------  -----------------  -----------------  -----------------
         O            0.959693670414     2.464137247307    -0.647551562020    15.994914619570
         N            2.064327670414     0.647124247307     0.187082437980    14.003074004430
         C            0.774375670414    -1.605814752693    -0.861188562020    12.000000000000
         C            1.833714670414    -1.821906752693     0.228515437980    12.000000000000
         C           -0.471787329586    -0.818073152693    -0.356169062020    12.000000000000
         C            2.044642670414    -0.540501752693     1.035008437980    12.000000000000
         C           -0.347139329586     0.534279247307    -0.082246562020    12.000000000000
         C            0.929868670414     1.308617247307    -0.213950562020    12.000000000000
         C           -1.673419329586    -1.473905752693    -0.227760562020    12.000000000000
         C           -1.485646329586     1.252839247307     0.300716437980    12.000000000000
         C           -2.803268329586    -0.765121752693     0.183612437980    12.000000000000
         C           -2.710199329586     0.603992247307     0.444793437980    12.000000000000
         H            0.456292670414    -2.572415752693    -1.267861562020     1.007825032230
         H            1.234539670414    -1.051859752693    -1.686502562020     1.007825032230
         H            1.524484670414    -2.621230752693     0.913477437980     1.007825032230
         H            2.772315670414    -2.138591752693    -0.241307562020     1.007825032230
         H            1.246977670414    -0.439070752693     1.778822437980     1.007825032230
         H            2.990931670414    -0.576698752693     1.582609437980     1.007825032230
         H            2.897262670414     1.226637247307     0.165014437980     1.007825032230
         H           -1.757601329586    -2.535015752693    -0.458034562020     1.007825032230
         H           -1.390135329586     2.321352247307     0.476330437980     1.007825032230
         H           -3.756204329586    -1.278597752693     0.289414437980     1.007825032230
         H           -3.590284329586     1.163775247307     0.751842437980     1.007825032230

  Basis Set: AUG-CC-PVTZ
    Blend: AUG-CC-PVTZ
  Basis Set: (AUG-CC-PVTZ AUX)
    Blend: AUG-CC-PVTZ-JKFIT
	 Reference Energy          =    -514.5951689360974797 [Eh]
	 Singles Energy            =      -0.0000000000000000 [Eh]
	 Same-Spin Energy          =      -0.5581825193020657 [Eh]
	 Opposite-Spin Energy      =      -1.7438055134427486 [Eh]
	 Correlation Energy        =      -2.3019880327448146 [Eh]
	 Total Energy              =    -516.8971569688422960 [Eh]

	 ================> DF-SCS-MP2 Energies <==================
	-----------------------------------------------------------
	 SCS Same-Spin Scale       =       0.3333333333333333 [-]
	 SCS Opposite-Spin Scale   =       1.2000000000000000 [-]
	 SCS Same-Spin Energy      =      -0.1860608397673552 [Eh]
	 SCS Opposite-Spin Energy  =      -2.0925666161312981 [Eh]
	 SCS Correlation Energy    =      -2.2786274558986532 [Eh]
	 SCS Total Energy          =    -516.8737963919961658 [Eh]
	-----------------------------------------------------------

  Dipole Moment: [D]
     X:     0.5963      Y:    -3.5888      Z:     1.7789     Total:     4.0496

*** Psi4 exiting successfully. Buy a developer a beer!
