                               Psi4 1.3.2 release

  ==> Input File <==

--------------------------------------------------------------------------
#psi4
#
memory 32 gb

molecule  {
0 1
  O        1.0271146     2.5138605    -0.6479734
  N        2.0463840     0.6978680     0.1749460
  C        0.7564320    -1.5550710    -0.8733250
  C        1.8157710    -1.7711630     0.2163790
  C       -0.4497480    -0.7926040    -0.3845090
  C        2.0266990    -0.4897580     1.0228720
  C       -0.3650830     0.5850230    -0.0943830
  C        0.9119250     1.3593610    -0.2260870
  C       -1.6913630    -1.4231620    -0.2398970
  C       -1.5035900     1.3035830     0.2885800
  C       -2.8212120    -0.7143780     0.1714760
  C       -2.7281430     0.6547360     0.4326570
  H        0.4383490    -2.5216720    -1.2799980
  H        1.2165960    -1.0011160    -1.6986390
  H        1.5065410    -2.5704870     0.9013410
  H        2.7543720    -2.0878480    -0.2534440
  H        1.2290340    -0.3883270     1.7666860
  H        2.9729880    -0.5259550     1.5704730
  H        2.8793190     1.2773810     0.1528780
  H       -1.7755450    -2.4842720    -0.4701710
  H       -1.4080790     2.3720960     0.4641940
  H       -3.7741480    -1.2278540     0.2772780
  H       -3.6082280     1.2145190     0.7397060
units angstrom
no_reorient  #important for SAPT in psi4, default
symmetry c1  #important for SAPT in psi4, default
}

set PROPERTIES_ORIGIN ["COM"]
properties('MP2/aug-cc-pvtz', properties = ['dipole'])
--------------------------------------------------------------------------

    Molecular point group: c1
  Charge       = 0
  Multiplicity = 1
  Basis Set: AUG-CC-PVTZ
    Blend: AUG-CC-PVTZ
  Basis Set: (AUG-CC-PVTZ AUX)
    Blend: AUG-CC-PVTZ-JKFIT

    Orbital Energies [Eh]
    ---------------------

    Doubly Occupied:

       1A    -20.513582     2A    -15.577949     3A    -11.350874
       4A    -11.273274     5A    -11.260745     6A    -11.250944
       7A    -11.250404     8A    -11.248261     9A    -11.243487
      10A    -11.241642    11A    -11.239662    12A    -11.237201
      13A     -1.369538    14A     -1.230003    15A     -1.166038
      16A     -1.082314    17A     -1.039024    18A     -1.021260
      19A     -0.937747    20A     -0.882632    21A     -0.841927
      22A     -0.799041    23A     -0.776291    24A     -0.696542
      25A     -0.684650    26A     -0.672863    27A     -0.652272
      28A     -0.624601    29A     -0.614893    30A     -0.600976
      31A     -0.587123    32A     -0.576490    33A     -0.557164
      34A     -0.535739    35A     -0.518727    36A     -0.511288
      37A     -0.493142    38A     -0.490650    39A     -0.478894
      40A     -0.422906    41A     -0.385378    42A     -0.346794
      43A     -0.337834

  @DF-RHF Final Energy:  -514.59548198484390

   => Energetics <=

    Nuclear Repulsion Energy =            684.8016919880460591
    One-Electron Energy =               -2057.5488186062916611
    Two-Electron Energy =                 858.1516446334017019
    Total Energy =                       -514.5954819848439001
  Basis Set: (AUG-CC-PVTZ AUX)
    Blend: AUG-CC-PVTZ-RI
    Molecular point group: c1

    Geometry (in Angstrom), charge = 0, multiplicity = 1:

       Center              X                  Y                   Z               Mass
    ------------   -----------------  -----------------  -----------------  -----------------
         O            1.033603409871     2.465100916333    -0.635793084476    15.994914619570
         N            2.052872809871     0.649108416333     0.187126315524    14.003074004430
         C            0.762920809871    -1.603830583667    -0.861144684476    12.000000000000
         C            1.822259809871    -1.819922583667     0.228559315524    12.000000000000
         C           -0.443259190129    -0.841363583667    -0.372328684476    12.000000000000
         C            2.033187809871    -0.538517583667     1.035052315524    12.000000000000
         C           -0.358594190129     0.536263416333    -0.082202684476    12.000000000000
         C            0.918413809871     1.310601416333    -0.213906684476    12.000000000000
         C           -1.684874190129    -1.471921583667    -0.227716684476    12.000000000000
         C           -1.497101190129     1.254823416333     0.300760315524    12.000000000000
         C           -2.814723190129    -0.763137583667     0.183656315524    12.000000000000
         C           -2.721654190129     0.605976416333     0.444837315524    12.000000000000
         H            0.444837809871    -2.570431583667    -1.267817684476     1.007825032230
         H            1.223084809871    -1.049875583667    -1.686458684476     1.007825032230
         H            1.513029809871    -2.619246583667     0.913521315524     1.007825032230
         H            2.760860809871    -2.136607583667    -0.241263684476     1.007825032230
         H            1.235522809871    -0.437086583667     1.778866315524     1.007825032230
         H            2.979476809871    -0.574714583667     1.582653315524     1.007825032230
         H            2.885807809871     1.228621416333     0.165058315524     1.007825032230
         H           -1.769056190129    -2.533031583667    -0.457990684476     1.007825032230
         H           -1.401590190129     2.323336416333     0.476374315524     1.007825032230
         H           -3.767659190129    -1.276613583667     0.289458315524     1.007825032230
         H           -3.601739190129     1.165759416333     0.751886315524     1.007825032230

  Basis Set: AUG-CC-PVTZ
    Blend: AUG-CC-PVTZ
  Basis Set: (AUG-CC-PVTZ AUX)
    Blend: AUG-CC-PVTZ-JKFIT
	 Reference Energy          =    -514.5954819848439001 [Eh]
	 Singles Energy            =      -0.0000000000000000 [Eh]
	 Same-Spin Energy          =      -0.5585981988988566 [Eh]
	 Opposite-Spin Energy      =      -1.7443071829844699 [Eh]
	 Correlation Energy        =      -2.3029053818833267 [Eh]
	 Total Energy              =    -516.8983873667272064 [Eh]

	 ================> DF-SCS-MP2 Energies <==================
	-----------------------------------------------------------
	 SCS Same-Spin Scale       =       0.3333333333333333 [-]
	 SCS Opposite-Spin Scale   =       1.2000000000000000 [-]
	 SCS Same-Spin Energy      =      -0.1861993996329522 [Eh]
	 SCS Opposite-Spin Energy  =      -2.0931686195813639 [Eh]
	 SCS Correlation Energy    =      -2.2793680192143162 [Eh]
	 SCS Total Energy          =    -516.8748500040582030 [Eh]
	-----------------------------------------------------------

  Dipole Moment: [D]
     X:     0.3512      Y:    -3.6586      Z:     1.7397     Total:     4.0664

*** Psi4 exiting successfully. Buy a developer a beer!
