                               Psi4 1.3.2 release

  ==> Input File <==

--------------------------------------------------------------------------
#psi4
#
memory 32 gb

molecule  {
0 1
  O        0.9417500     2.5148810    -0.6596880
  N        2.0463840     0.6978680     0.1749460
  C        0.7564320    -1.5550710    -0.8733250
  C        1.8157710    -1.7711630     0.2163790
  C       -0.4339976    -0.7728010    -0.3772422
  C        2.0266990    -0.4897580     1.0228720
  C       -0.3650830     0.5850230    -0.0943830
  C        0.9119250     1.3593610    -0.2260870
  C       -1.6913630    -1.4231620    -0.2398970
  C       -1.5035900     1.3035830     0.2885800
  C       -2.8212120    -0.7143780     0.1714760
  C       -2.7281430     0.6547360     0.4326570
  H        0.4383490    -2.5216720    -1.2799980
  H        1.2165960    -1.0011160    -1.6986390
  H        1.5065410    -2.5704870     0.9013410
  H        2.7543720    -2.0878480    -0.2534440
  H        1.2290340    -0.3883270     1.7666860
  H        2.9729880    -0.5259550     1.5704730
  H        2.8793190     1.2773810     0.1528780
  H       -1.7755450    -2.4842720    -0.4701710
  H       -1.4080790     2.3720960     0.4641940
  H       -3.7741480    -1.2278540     0.2772780
  H       -3.6082280     1.2145190     0.7397060
units angstrom
no_reorient  #important for SAPT in psi4, default
symmetry c1  #important for SAPT in psi4, default
}

set PROPERTIES_ORIGIN ["COM"]
properties('MP2/aug-cc-pvtz', properties = ['dipole'])
--------------------------------------------------------------------------

    Molecular point group: c1
  Charge       = 0
  Multiplicity = 1
  Basis Set: AUG-CC-PVTZ
    Blend: AUG-CC-PVTZ
  Basis Set: (AUG-CC-PVTZ AUX)
    Blend: AUG-CC-PVTZ-JKFIT

    Orbital Energies [Eh]
    ---------------------

    Doubly Occupied:

       1A    -20.515190     2A    -15.582870     3A    -11.351207
       4A    -11.275865     5A    -11.258429     6A    -11.248458
       7A    -11.246001     8A    -11.244743     9A    -11.243859
      10A    -11.239673    11A    -11.239582    12A    -11.237815
      13A     -1.369163    14A     -1.235171    15A     -1.164313
      16A     -1.082382    17A     -1.038647    18A     -1.018408
      19A     -0.938363    20A     -0.880392    21A     -0.842317
      22A     -0.799653    23A     -0.775662    24A     -0.696255
      25A     -0.686095    26A     -0.671939    27A     -0.652646
      28A     -0.624554    29A     -0.615582    30A     -0.599709
      31A     -0.587662    32A     -0.575767    33A     -0.557352
      34A     -0.535860    35A     -0.517962    36A     -0.509745
      37A     -0.494755    38A     -0.489881    39A     -0.477672
      40A     -0.422823    41A     -0.389584    42A     -0.345194
      43A     -0.334750

  @DF-RHF Final Energy:  -514.59591981229005

   => Energetics <=

    Nuclear Repulsion Energy =            685.3665215815605052
    One-Electron Energy =               -2058.6969843441265766
    Two-Electron Energy =                 858.7345429502761363
    Total Energy =                       -514.5959198122900489
  Basis Set: (AUG-CC-PVTZ AUX)
    Blend: AUG-CC-PVTZ-RI
    Molecular point group: c1

    Geometry (in Angstrom), charge = 0, multiplicity = 1:

       Center              X                  Y                   Z               Mass
    ------------   -----------------  -----------------  -----------------  -----------------
         O            0.955541796023     2.464544855598    -0.646885820187    15.994914619570
         N            2.060175796023     0.647531855598     0.187748179813    14.003074004430
         C            0.770223796023    -1.605407144402    -0.860522820187    12.000000000000
         C            1.829562796023    -1.821499144402     0.229181179813    12.000000000000
         C           -0.420205803977    -0.823137144402    -0.364440020187    12.000000000000
         C            2.040490796023    -0.540094144402     1.035674179813    12.000000000000
         C           -0.351291203977     0.534686855598    -0.081580820187    12.000000000000
         C            0.925716796023     1.309024855598    -0.213284820187    12.000000000000
         C           -1.677571203977    -1.473498144402    -0.227094820187    12.000000000000
         C           -1.489798203977     1.253246855598     0.301382179813    12.000000000000
         C           -2.807420203977    -0.764714144402     0.184278179813    12.000000000000
         C           -2.714351203977     0.604399855598     0.445459179813    12.000000000000
         H            0.452140796023    -2.572008144402    -1.267195820187     1.007825032230
         H            1.230387796023    -1.051452144402    -1.685836820187     1.007825032230
         H            1.520332796023    -2.620823144402     0.914143179813     1.007825032230
         H            2.768163796023    -2.138184144402    -0.240641820187     1.007825032230
         H            1.242825796023    -0.438663144402     1.779488179813     1.007825032230
         H            2.986779796023    -0.576291144402     1.583275179813     1.007825032230
         H            2.893110796023     1.227044855598     0.165680179813     1.007825032230
         H           -1.761753203977    -2.534608144402    -0.457368820187     1.007825032230
         H           -1.394287203977     2.321759855598     0.476996179813     1.007825032230
         H           -3.760356203977    -1.278190144402     0.290080179813     1.007825032230
         H           -3.594436203977     1.164182855598     0.752508179813     1.007825032230

  Basis Set: AUG-CC-PVTZ
    Blend: AUG-CC-PVTZ
  Basis Set: (AUG-CC-PVTZ AUX)
    Blend: AUG-CC-PVTZ-JKFIT
	 Reference Energy          =    -514.5959198122900489 [Eh]
	 Singles Energy            =      -0.0000000000000000 [Eh]
	 Same-Spin Energy          =      -0.5586458187061391 [Eh]
	 Opposite-Spin Energy      =      -1.7444453521878813 [Eh]
	 Correlation Energy        =      -2.3030911708940205 [Eh]
	 Total Energy              =    -516.8990109831840982 [Eh]

	 ================> DF-SCS-MP2 Energies <==================
	-----------------------------------------------------------
	 SCS Same-Spin Scale       =       0.3333333333333333 [-]
	 SCS Opposite-Spin Scale   =       1.2000000000000000 [-]
	 SCS Same-Spin Energy      =      -0.1862152729020463 [Eh]
	 SCS Opposite-Spin Energy  =      -2.0933344226254573 [Eh]
	 SCS Correlation Energy    =      -2.2795496955275039 [Eh]
	 SCS Total Energy          =    -516.8754695078175700 [Eh]
	-----------------------------------------------------------

  Dipole Moment: [D]
     X:     0.6302      Y:    -3.6241      Z:     1.7632     Total:     4.0793

*** Psi4 exiting successfully. Buy a developer a beer!
