                               Psi4 1.3.2 release

  ==> Input File <==

--------------------------------------------------------------------------
#psi4
#
memory 32 gb

molecule  {
0 1
  O        0.9417500     2.5148810    -0.6596880
  N        2.0463840     0.6978680     0.1749460
  C        0.7564320    -1.5550710    -0.8733250
  C        1.8157710    -1.7711630     0.2163790
  C       -0.4497480    -0.7926040    -0.3845090
  C        2.0504628    -0.4845113     1.0303899
  C       -0.3650830     0.5850230    -0.0943830
  C        0.9119250     1.3593610    -0.2260870
  C       -1.6913630    -1.4231620    -0.2398970
  C       -1.5035900     1.3035830     0.2885800
  C       -2.8212120    -0.7143780     0.1714760
  C       -2.7281430     0.6547360     0.4326570
  H        0.4383490    -2.5216720    -1.2799980
  H        1.2165960    -1.0011160    -1.6986390
  H        1.5065410    -2.5704870     0.9013410
  H        2.7543720    -2.0878480    -0.2534440
  H        1.2290340    -0.3883270     1.7666860
  H        2.9729880    -0.5259550     1.5704730
  H        2.8793190     1.2773810     0.1528780
  H       -1.7755450    -2.4842720    -0.4701710
  H       -1.4080790     2.3720960     0.4641940
  H       -3.7741480    -1.2278540     0.2772780
  H       -3.6082280     1.2145190     0.7397060
units angstrom
no_reorient  #important for SAPT in psi4, default
symmetry c1  #important for SAPT in psi4, default
}

set PROPERTIES_ORIGIN ["COM"]
properties('MP2/aug-cc-pvtz', properties = ['dipole'])
--------------------------------------------------------------------------

    Molecular point group: c1
  Charge       = 0
  Multiplicity = 1
  Basis Set: AUG-CC-PVTZ
    Blend: AUG-CC-PVTZ
  Basis Set: (AUG-CC-PVTZ AUX)
    Blend: AUG-CC-PVTZ-JKFIT

    Orbital Energies [Eh]
    ---------------------

    Doubly Occupied:

       1A    -20.515393     2A    -15.582700     3A    -11.351992
       4A    -11.275454     5A    -11.258256     6A    -11.248768
       7A    -11.247132     8A    -11.245491     9A    -11.241648
      10A    -11.239736    11A    -11.239561    12A    -11.238206
      13A     -1.369195    14A     -1.234454    15A     -1.164157
      16A     -1.081211    17A     -1.036726    18A     -1.020027
      19A     -0.938977    20A     -0.881967    21A     -0.841004
      22A     -0.798136    23A     -0.776048    24A     -0.696913
      25A     -0.685802    26A     -0.671586    27A     -0.654128
      28A     -0.622697    29A     -0.616397    30A     -0.599323
      31A     -0.587498    32A     -0.575309    33A     -0.557196
      34A     -0.537173    35A     -0.517465    36A     -0.509632
      37A     -0.494195    38A     -0.489728    39A     -0.478061
      40A     -0.423830    41A     -0.388197    42A     -0.343849
      43A     -0.336015

  @DF-RHF Final Energy:  -514.59614473516945

   => Energetics <=

    Nuclear Repulsion Energy =            684.7386458464574162
    One-Electron Energy =               -2057.4471162329241452
    Two-Electron Energy =                 858.1123256512971693
    Total Energy =                       -514.5961447351694460
  Basis Set: (AUG-CC-PVTZ AUX)
    Blend: AUG-CC-PVTZ-RI
    Molecular point group: c1

    Geometry (in Angstrom), charge = 0, multiplicity = 1:

       Center              X                  Y                   Z               Mass
    ------------   -----------------  -----------------  -----------------  -----------------
         O            0.954944835668     2.465629231021    -0.646904525948    15.994914619570
         N            2.059578835668     0.648616231021     0.187729474052    14.003074004430
         C            0.769626835668    -1.604322768979    -0.860541525948    12.000000000000
         C            1.828965835668    -1.820414768979     0.229162474052    12.000000000000
         C           -0.436553164332    -0.841855768979    -0.371725525948    12.000000000000
         C            2.063657635668    -0.533763068979     1.043173374052    12.000000000000
         C           -0.351888164332     0.535771231021    -0.081599525948    12.000000000000
         C            0.925119835668     1.310109231021    -0.213303525948    12.000000000000
         C           -1.678168164332    -1.472413768979    -0.227113525948    12.000000000000
         C           -1.490395164332     1.254331231021     0.301363474052    12.000000000000
         C           -2.808017164332    -0.763629768979     0.184259474052    12.000000000000
         C           -2.714948164332     0.605484231021     0.445440474052    12.000000000000
         H            0.451543835668    -2.570923768979    -1.267214525948     1.007825032230
         H            1.229790835668    -1.050367768979    -1.685855525948     1.007825032230
         H            1.519735835668    -2.619738768979     0.914124474052     1.007825032230
         H            2.767566835668    -2.137099768979    -0.240660525948     1.007825032230
         H            1.242228835668    -0.437578768979     1.779469474052     1.007825032230
         H            2.986182835668    -0.575206768979     1.583256474052     1.007825032230
         H            2.892513835668     1.228129231021     0.165661474052     1.007825032230
         H           -1.762350164332    -2.533523768979    -0.457387525948     1.007825032230
         H           -1.394884164332     2.322844231021     0.476977474052     1.007825032230
         H           -3.760953164332    -1.277105768979     0.290061474052     1.007825032230
         H           -3.595033164332     1.165267231021     0.752489474052     1.007825032230

  Basis Set: AUG-CC-PVTZ
    Blend: AUG-CC-PVTZ
  Basis Set: (AUG-CC-PVTZ AUX)
    Blend: AUG-CC-PVTZ-JKFIT
	 Reference Energy          =    -514.5961447351694460 [Eh]
	 Singles Energy            =      -0.0000000000000000 [Eh]
	 Same-Spin Energy          =      -0.5585303535728710 [Eh]
	 Opposite-Spin Energy      =      -1.7442674142530872 [Eh]
	 Correlation Energy        =      -2.3027977678259584 [Eh]
	 Total Energy              =    -516.8989425029953964 [Eh]

	 ================> DF-SCS-MP2 Energies <==================
	-----------------------------------------------------------
	 SCS Same-Spin Scale       =       0.3333333333333333 [-]
	 SCS Opposite-Spin Scale   =       1.2000000000000000 [-]
	 SCS Same-Spin Energy      =      -0.1861767845242903 [Eh]
	 SCS Opposite-Spin Energy  =      -2.0931208971037045 [Eh]
	 SCS Correlation Energy    =      -2.2792976816279946 [Eh]
	 SCS Total Energy          =    -516.8754424167974548 [Eh]
	-----------------------------------------------------------

  Dipole Moment: [D]
     X:     0.6443      Y:    -3.6032      Z:     1.7711     Total:     4.0663

*** Psi4 exiting successfully. Buy a developer a beer!
