                               Psi4 1.3.2 release

  ==> Input File <==

--------------------------------------------------------------------------
#psi4
#
memory 32 gb

molecule  {
0 1
  O        0.9417500     2.5148810    -0.6596880
  N        2.0463840     0.6978680     0.1749460
  C        0.7564320    -1.5550710    -0.8733250
  C        1.8157710    -1.7711630     0.2163790
  C       -0.4497480    -0.7926040    -0.3845090
  C        2.0266990    -0.4897580     1.0228720
  C       -0.3650830     0.5850230    -0.0943830
  C        0.9802203     1.2239637    -0.2664545
  C       -1.6913630    -1.4231620    -0.2398970
  C       -1.5035900     1.3035830     0.2885800
  C       -2.8212120    -0.7143780     0.1714760
  C       -2.7281430     0.6547360     0.4326570
  H        0.4383490    -2.5216720    -1.2799980
  H        1.2165960    -1.0011160    -1.6986390
  H        1.5065410    -2.5704870     0.9013410
  H        2.7543720    -2.0878480    -0.2534440
  H        1.2290340    -0.3883270     1.7666860
  H        2.9729880    -0.5259550     1.5704730
  H        2.8793190     1.2773810     0.1528780
  H       -1.7755450    -2.4842720    -0.4701710
  H       -1.4080790     2.3720960     0.4641940
  H       -3.7741480    -1.2278540     0.2772780
  H       -3.6082280     1.2145190     0.7397060
units angstrom
no_reorient  #important for SAPT in psi4, default
symmetry c1  #important for SAPT in psi4, default
}

set PROPERTIES_ORIGIN ["COM"]
properties('MP2/aug-cc-pvtz', properties = ['dipole'])
--------------------------------------------------------------------------

    Molecular point group: c1
  Charge       = 0
  Multiplicity = 1
  Basis Set: AUG-CC-PVTZ
    Blend: AUG-CC-PVTZ
  Basis Set: (AUG-CC-PVTZ AUX)
    Blend: AUG-CC-PVTZ-JKFIT

    Orbital Energies [Eh]
    ---------------------

    Doubly Occupied:

       1A    -20.487383     2A    -15.604887     3A    -11.348066
       4A    -11.287441     5A    -11.256777     6A    -11.250440
       7A    -11.248842     8A    -11.247091     9A    -11.246635
      10A    -11.245062    11A    -11.241345    12A    -11.240255
      13A     -1.338581    14A     -1.229807    15A     -1.166319
      16A     -1.090565    17A     -1.038309    18A     -1.024846
      19A     -0.951213    20A     -0.890058    21A     -0.849573
      22A     -0.799675    23A     -0.793305    24A     -0.704742
      25A     -0.697307    26A     -0.671506    27A     -0.659826
      28A     -0.630181    29A     -0.615450    30A     -0.603124
      31A     -0.585287    32A     -0.561367    33A     -0.550443
      34A     -0.539293    35A     -0.517080    36A     -0.503722
      37A     -0.494110    38A     -0.487809    39A     -0.478249
      40A     -0.402428    41A     -0.381259    42A     -0.340772
      43A     -0.336555

  @DF-RHF Final Energy:  -514.56310667447065

   => Energetics <=

    Nuclear Repulsion Energy =            685.8045536987843889
    One-Electron Energy =               -2059.4613524353790126
    Two-Electron Energy =                 859.0936920621240915
    Total Energy =                       -514.5631066744706459
  Basis Set: (AUG-CC-PVTZ AUX)
    Blend: AUG-CC-PVTZ-RI
    Molecular point group: c1

    Geometry (in Angstrom), charge = 0, multiplicity = 1:

       Center              X                  Y                   Z               Mass
    ------------   -----------------  -----------------  -----------------  -----------------
         O            0.951627449784     2.476106543042    -0.643337290395    15.994914619570
         N            2.056261449784     0.659093543042     0.191296709605    14.003074004430
         C            0.766309449784    -1.593845456958    -0.856974290395    12.000000000000
         C            1.825648449784    -1.809937456958     0.232729709605    12.000000000000
         C           -0.439870550216    -0.831378456958    -0.368158290395    12.000000000000
         C            2.036576449784    -0.528532456958     1.039222709605    12.000000000000
         C           -0.355205550216     0.546248543042    -0.078032290395    12.000000000000
         C            0.990097749784     1.185189243042    -0.250103790395    12.000000000000
         C           -1.681485550216    -1.461936456958    -0.223546290395    12.000000000000
         C           -1.493712550216     1.264808543042     0.304930709605    12.000000000000
         C           -2.811334550216    -0.753152456958     0.187826709605    12.000000000000
         C           -2.718265550216     0.615961543042     0.449007709605    12.000000000000
         H            0.448226449784    -2.560446456958    -1.263647290395     1.007825032230
         H            1.226473449784    -1.039890456958    -1.682288290395     1.007825032230
         H            1.516418449784    -2.609261456958     0.917691709605     1.007825032230
         H            2.764249449784    -2.126622456958    -0.237093290395     1.007825032230
         H            1.238911449784    -0.427101456958     1.783036709605     1.007825032230
         H            2.982865449784    -0.564729456958     1.586823709605     1.007825032230
         H            2.889196449784     1.238606543042     0.169228709605     1.007825032230
         H           -1.765667550216    -2.523046456958    -0.453820290395     1.007825032230
         H           -1.398201550216     2.333321543042     0.480544709605     1.007825032230
         H           -3.764270550216    -1.266628456958     0.293628709605     1.007825032230
         H           -3.598350550216     1.175744543042     0.756056709605     1.007825032230

  Basis Set: AUG-CC-PVTZ
    Blend: AUG-CC-PVTZ
  Basis Set: (AUG-CC-PVTZ AUX)
    Blend: AUG-CC-PVTZ-JKFIT
	 Reference Energy          =    -514.5631066744706459 [Eh]
	 Singles Energy            =      -0.0000000000000000 [Eh]
	 Same-Spin Energy          =      -0.5609542643917900 [Eh]
	 Opposite-Spin Energy      =      -1.7488433374577839 [Eh]
	 Correlation Energy        =      -2.3097976018495738 [Eh]
	 Total Energy              =    -516.8729042763202415 [Eh]

	 ================> DF-SCS-MP2 Energies <==================
	-----------------------------------------------------------
	 SCS Same-Spin Scale       =       0.3333333333333333 [-]
	 SCS Opposite-Spin Scale   =       1.2000000000000000 [-]
	 SCS Same-Spin Energy      =      -0.1869847547972633 [Eh]
	 SCS Opposite-Spin Energy  =      -2.0986120049493406 [Eh]
	 SCS Correlation Energy    =      -2.2855967597466038 [Eh]
	 SCS Total Energy          =    -516.8487034342172137 [Eh]
	-----------------------------------------------------------

  Dipole Moment: [D]
     X:     1.0889      Y:    -4.5025      Z:     2.1336     Total:     5.1000

*** Psi4 exiting successfully. Buy a developer a beer!
