                               Psi4 1.4a3.dev225

  ==> Input File <==

--------------------------------------------------------------------------
#psi4
#
memory 32 gb

molecule  {
0 1
  O        0.9417500     2.5148810    -0.6596880
  N        2.0463840     0.6978680     0.1749460
  C        0.7564320    -1.5550710    -0.8733250
  C        1.8157710    -1.7711630     0.2163790
  C       -0.4497480    -0.7926040    -0.3845090
  C        2.0266990    -0.4897580     1.0228720
  C       -0.3650830     0.5850230    -0.0943830
  C        0.9119250     1.3593610    -0.2260870
  C       -1.6913630    -1.4231620    -0.2398970
  C       -1.5035900     1.3035830     0.2885800
  C       -2.8212120    -0.7143780     0.1714760
  C       -2.7281430     0.6547360     0.4326570
  H        0.4383490    -2.5216720    -1.2799980
  H        1.2249982    -0.9910012    -1.7137086
  H        1.5065410    -2.5704870     0.9013410
  H        2.7543720    -2.0878480    -0.2534440
  H        1.2290340    -0.3883270     1.7666860
  H        2.9729880    -0.5259550     1.5704730
  H        2.8793190     1.2773810     0.1528780
  H       -1.7755450    -2.4842720    -0.4701710
  H       -1.4080790     2.3720960     0.4641940
  H       -3.7741480    -1.2278540     0.2772780
  H       -3.6082280     1.2145190     0.7397060
units angstrom
no_reorient  #important for SAPT in psi4, default
symmetry c1  #important for SAPT in psi4, default
}

set PROPERTIES_ORIGIN ["COM"]
properties('MP2/aug-cc-pvtz', properties = ['dipole'])
--------------------------------------------------------------------------

    Molecular point group: c1
  Charge       = 0
  Multiplicity = 1
  Basis Set: AUG-CC-PVTZ
    Blend: AUG-CC-PVTZ
  Basis Set: (AUG-CC-PVTZ AUX)
    Blend: AUG-CC-PVTZ-JKFIT

    Orbital Energies [Eh]
    ---------------------

    Doubly Occupied:

       1A    -20.515145     2A    -15.582682     3A    -11.351451
       4A    -11.275823     5A    -11.258425     6A    -11.248862
       7A    -11.247221     8A    -11.245565     9A    -11.241855
      10A    -11.241661    11A    -11.239873    12A    -11.238145
      13A     -1.369048    14A     -1.234800    15A     -1.164209
      16A     -1.081807    17A     -1.036795    18A     -1.020714
      19A     -0.937539    20A     -0.881610    21A     -0.841253
      22A     -0.797570    23A     -0.776235    24A     -0.696651
      25A     -0.685695    26A     -0.671834    27A     -0.651849
      28A     -0.623397    29A     -0.615985    30A     -0.599955
      31A     -0.587165    32A     -0.575580    33A     -0.557081
      34A     -0.535259    35A     -0.518542    36A     -0.509856
      37A     -0.492944    38A     -0.489050    39A     -0.478204
      40A     -0.423367    41A     -0.389395    42A     -0.343905
      43A     -0.336064

  @DF-RHF Final Energy:  -514.59608717167066

   => Energetics <=

    Nuclear Repulsion Energy =            685.0268726008836211
    One-Electron Energy =               -2058.0257838035040550
    Two-Electron Energy =                 858.4028240309498869
    Total Energy =                       -514.5960871716706606
  Basis Set: (AUG-CC-PVTZ AUX)
    Blend: AUG-CC-PVTZ-RI
    Molecular point group: c1

    Geometry (in Angstrom), charge = 0, multiplicity = 1:

       Center              X                  Y                   Z               Mass
    ------------   -----------------  -----------------  -----------------  -----------------
         O            0.956662557743     2.465956801918    -0.646250194803    15.994914619570
         N            2.061296557743     0.648943801918     0.188383805197    14.003074004430
         C            0.771344557743    -1.603995198082    -0.859887194803    12.000000000000
         C            1.830683557743    -1.820087198082     0.229816805197    12.000000000000
         C           -0.434835442257    -0.841528198082    -0.371071194803    12.000000000000
         C            2.041611557743    -0.538682198082     1.036309805197    12.000000000000
         C           -0.350170442257     0.536098801918    -0.080945194803    12.000000000000
         C            0.926837557743     1.310436801918    -0.212649194803    12.000000000000
         C           -1.676450442257    -1.472086198082    -0.226459194803    12.000000000000
         C           -1.488677442257     1.254658801918     0.302017805197    12.000000000000
         C           -2.806299442257    -0.763302198082     0.184913805197    12.000000000000
         C           -2.713230442257     0.605811801918     0.446094805197    12.000000000000
         H            0.453261557743    -2.570596198082    -1.266560194803     1.007825032230
         H            1.239910757743    -1.039925398082    -1.700270794803     1.007825032230
         H            1.521453557743    -2.619411198082     0.914778805197     1.007825032230
         H            2.769284557743    -2.136772198082    -0.240006194803     1.007825032230
         H            1.243946557743    -0.437251198082     1.780123805197     1.007825032230
         H            2.987900557743    -0.574879198082     1.583910805197     1.007825032230
         H            2.894231557743     1.228456801918     0.166315805197     1.007825032230
         H           -1.760632442257    -2.533196198082    -0.456733194803     1.007825032230
         H           -1.393166442257     2.323171801918     0.477631805197     1.007825032230
         H           -3.759235442257    -1.276778198082     0.290715805197     1.007825032230
         H           -3.593315442257     1.165594801918     0.753143805197     1.007825032230

  Basis Set: AUG-CC-PVTZ
    Blend: AUG-CC-PVTZ
  Basis Set: (AUG-CC-PVTZ AUX)
    Blend: AUG-CC-PVTZ-JKFIT
	 Reference Energy          =    -514.5960871716706606 [Eh]
	 Singles Energy            =      -0.0000000000000000 [Eh]
	 Same-Spin Energy          =      -0.5586800296608131 [Eh]
	 Opposite-Spin Energy      =      -1.7445421017982552 [Eh]
	 Correlation Energy        =      -2.3032221314590684 [Eh]
	 Total Energy              =    -516.8993093031297121 [Eh]

	 ================> DF-SCS-MP2 Energies <==================
	-----------------------------------------------------------
	 SCS Same-Spin Scale       =       0.3333333333333333 [-]
	 SCS Opposite-Spin Scale   =       1.2000000000000000 [-]
	 SCS Same-Spin Energy      =      -0.1862266765536044 [Eh]
	 SCS Opposite-Spin Energy  =      -2.0934505221579061 [Eh]
	 SCS Correlation Energy    =      -2.2796771987115103 [Eh]
	 SCS Total Energy          =    -516.8757643703821714 [Eh]
	-----------------------------------------------------------

  Dipole Moment: [D]
     X:     0.6263      Y:    -3.6166      Z:     1.7767     Total:     4.0778

*** Psi4 exiting successfully. Buy a developer a beer!
