                               Psi4 1.3.2 release

  ==> Input File <==

--------------------------------------------------------------------------
#psi4
#
memory 32 gb

molecule  {
0 1
  O        0.9417500     2.5148810    -0.6596880
  N        2.0463840     0.6978680     0.1749460
  C        0.7564320    -1.5550710    -0.8733250
  C        1.8459142    -1.7972579     0.1805838
  C       -0.4497480    -0.7926040    -0.3845090
  C        2.0266990    -0.4897580     1.0228720
  C       -0.3650830     0.5850230    -0.0943830
  C        0.9119250     1.3593610    -0.2260870
  C       -1.6913630    -1.4231620    -0.2398970
  C       -1.5035900     1.3035830     0.2885800
  C       -2.8212120    -0.7143780     0.1714760
  C       -2.7281430     0.6547360     0.4326570
  H        0.4383490    -2.5216720    -1.2799980
  H        1.2165960    -1.0011160    -1.6986390
  H        1.5065410    -2.5704870     0.9013410
  H        2.7543720    -2.0878480    -0.2534440
  H        1.2290340    -0.3883270     1.7666860
  H        2.9729880    -0.5259550     1.5704730
  H        2.8793190     1.2773810     0.1528780
  H       -1.7755450    -2.4842720    -0.4701710
  H       -1.4080790     2.3720960     0.4641940
  H       -3.7741480    -1.2278540     0.2772780
  H       -3.6082280     1.2145190     0.7397060
units angstrom
no_reorient  #important for SAPT in psi4, default
symmetry c1  #important for SAPT in psi4, default
}

set PROPERTIES_ORIGIN ["COM"]
properties('MP2/aug-cc-pvtz', properties = ['dipole'])
--------------------------------------------------------------------------

    Molecular point group: c1
  Charge       = 0
  Multiplicity = 1
  Basis Set: AUG-CC-PVTZ
    Blend: AUG-CC-PVTZ
  Basis Set: (AUG-CC-PVTZ AUX)
    Blend: AUG-CC-PVTZ-JKFIT

    Orbital Energies [Eh]
    ---------------------

    Doubly Occupied:

       1A    -20.514937     2A    -15.582410     3A    -11.351248
       4A    -11.276932     5A    -11.258894     6A    -11.248856
       7A    -11.247337     8A    -11.245543     9A    -11.242074
      10A    -11.240060    11A    -11.238993    12A    -11.236816
      13A     -1.368834    14A     -1.233589    15A     -1.164208
      16A     -1.080635    17A     -1.036324    18A     -1.019163
      19A     -0.936376    20A     -0.882133    21A     -0.843585
      22A     -0.799210    23A     -0.776017    24A     -0.696907
      25A     -0.684570    26A     -0.671881    27A     -0.651466
      28A     -0.622211    29A     -0.618852    30A     -0.598451
      31A     -0.587132    32A     -0.575290    33A     -0.558468
      34A     -0.537163    35A     -0.519348    36A     -0.508031
      37A     -0.490194    38A     -0.487657    39A     -0.483286
      40A     -0.423248    41A     -0.387535    42A     -0.343878
      43A     -0.336344

  @DF-RHF Final Energy:  -514.59370728014653

   => Energetics <=

    Nuclear Repulsion Energy =            684.4267089122735115
    One-Electron Energy =               -2056.8286578864431249
    Two-Electron Energy =                 857.8082416940229677
    Total Energy =                       -514.5937072801465320
  Basis Set: (AUG-CC-PVTZ AUX)
    Blend: AUG-CC-PVTZ-RI
    Molecular point group: c1

    Geometry (in Angstrom), charge = 0, multiplicity = 1:

       Center              X                  Y                   Z               Mass
    ------------   -----------------  -----------------  -----------------  -----------------
         O            0.954469600576     2.467964031812    -0.643677905095    15.994914619570
         N            2.059103600576     0.650951031812     0.190956094905    14.003074004430
         C            0.769151600576    -1.601987968188    -0.857314905095    12.000000000000
         C            1.858633800576    -1.844174868188     0.196593894905    12.000000000000
         C           -0.437028399424    -0.839520968188    -0.368498905095    12.000000000000
         C            2.039418600576    -0.536674968188     1.038882094905    12.000000000000
         C           -0.352363399424     0.538106031812    -0.078372905095    12.000000000000
         C            0.924644600576     1.312444031812    -0.210076905095    12.000000000000
         C           -1.678643399424    -1.470078968188    -0.223886905095    12.000000000000
         C           -1.490870399424     1.256666031812     0.304590094905    12.000000000000
         C           -2.808492399424    -0.761294968188     0.187486094905    12.000000000000
         C           -2.715423399424     0.607819031812     0.448667094905    12.000000000000
         H            0.451068600576    -2.568588968188    -1.263987905095     1.007825032230
         H            1.229315600576    -1.048032968188    -1.682628905095     1.007825032230
         H            1.519260600576    -2.617403968188     0.917351094905     1.007825032230
         H            2.767091600576    -2.134764968188    -0.237433905095     1.007825032230
         H            1.241753600576    -0.435243968188     1.782696094905     1.007825032230
         H            2.985707600576    -0.572871968188     1.586483094905     1.007825032230
         H            2.892038600576     1.230464031812     0.168888094905     1.007825032230
         H           -1.762825399424    -2.531188968188    -0.454160905095     1.007825032230
         H           -1.395359399424     2.325179031812     0.480204094905     1.007825032230
         H           -3.761428399424    -1.274770968188     0.293288094905     1.007825032230
         H           -3.595508399424     1.167602031812     0.755716094905     1.007825032230

  Basis Set: AUG-CC-PVTZ
    Blend: AUG-CC-PVTZ
  Basis Set: (AUG-CC-PVTZ AUX)
    Blend: AUG-CC-PVTZ-JKFIT
	 Reference Energy          =    -514.5937072801465320 [Eh]
	 Singles Energy            =      -0.0000000000000000 [Eh]
	 Same-Spin Energy          =      -0.5585400503386831 [Eh]
	 Opposite-Spin Energy      =      -1.7444263515458651 [Eh]
	 Correlation Energy        =      -2.3029664018845484 [Eh]
	 Total Energy              =    -516.8966736820310643 [Eh]

	 ================> DF-SCS-MP2 Energies <==================
	-----------------------------------------------------------
	 SCS Same-Spin Scale       =       0.3333333333333333 [-]
	 SCS Opposite-Spin Scale   =       1.2000000000000000 [-]
	 SCS Same-Spin Energy      =      -0.1861800167795610 [Eh]
	 SCS Opposite-Spin Energy  =      -2.0933116218550381 [Eh]
	 SCS Correlation Energy    =      -2.2794916386345991 [Eh]
	 SCS Total Energy          =    -516.8731989187810996 [Eh]
	-----------------------------------------------------------

  Dipole Moment: [D]
     X:     0.6475      Y:    -3.6044      Z:     1.7641     Total:     4.0648

*** Psi4 exiting successfully. Buy a developer a beer!
