                               Psi4 1.3.2 release

  ==> Input File <==

--------------------------------------------------------------------------
#psi4
#
memory 32 gb

molecule  {
0 1
  O        0.9417500     2.5148810    -0.6596880
  N        2.0463840     0.6978680     0.1749460
  C        0.7564320    -1.5550710    -0.8733250
  C        1.7843372    -1.7448048     0.2508465
  C       -0.4497480    -0.7926040    -0.3845090
  C        2.0266990    -0.4897580     1.0228720
  C       -0.3650830     0.5850230    -0.0943830
  C        0.9119250     1.3593610    -0.2260870
  C       -1.6913630    -1.4231620    -0.2398970
  C       -1.5035900     1.3035830     0.2885800
  C       -2.8212120    -0.7143780     0.1714760
  C       -2.7281430     0.6547360     0.4326570
  H        0.4383490    -2.5216720    -1.2799980
  H        1.2165960    -1.0011160    -1.6986390
  H        1.5065410    -2.5704870     0.9013410
  H        2.7543720    -2.0878480    -0.2534440
  H        1.2290340    -0.3883270     1.7666860
  H        2.9729880    -0.5259550     1.5704730
  H        2.8793190     1.2773810     0.1528780
  H       -1.7755450    -2.4842720    -0.4701710
  H       -1.4080790     2.3720960     0.4641940
  H       -3.7741480    -1.2278540     0.2772780
  H       -3.6082280     1.2145190     0.7397060
units angstrom
no_reorient  #important for SAPT in psi4, default
symmetry c1  #important for SAPT in psi4, default
}

set PROPERTIES_ORIGIN ["COM"]
properties('MP2/aug-cc-pvtz', properties = ['dipole'])
--------------------------------------------------------------------------

    Molecular point group: c1
  Charge       = 0
  Multiplicity = 1
  Basis Set: AUG-CC-PVTZ
    Blend: AUG-CC-PVTZ
  Basis Set: (AUG-CC-PVTZ AUX)
    Blend: AUG-CC-PVTZ-JKFIT

    Orbital Energies [Eh]
    ---------------------

    Doubly Occupied:

       1A    -20.515435     2A    -15.583170     3A    -11.351766
       4A    -11.274822     5A    -11.257843     6A    -11.248844
       7A    -11.247130     8A    -11.245603     9A    -11.241514
      10A    -11.240310    11A    -11.239702    12A    -11.239650
      13A     -1.369372    14A     -1.236316    15A     -1.164324
      16A     -1.084371    17A     -1.037465    18A     -1.022368
      19A     -0.940468    20A     -0.881312    21A     -0.839398
      22A     -0.797828    23A     -0.776715    24A     -0.697218
      25A     -0.686890    26A     -0.672348    27A     -0.653915
      28A     -0.624924    29A     -0.614624    30A     -0.601576
      31A     -0.587032    32A     -0.577630    33A     -0.556494
      34A     -0.535336    35A     -0.517705    36A     -0.512631
      37A     -0.496348    38A     -0.491577    39A     -0.468553
      40A     -0.423561    41A     -0.390837    42A     -0.343937
      43A     -0.335919

  @DF-RHF Final Energy:  -514.59337502495418

   => Energetics <=

    Nuclear Repulsion Energy =            685.8327587703805648
    One-Electron Energy =               -2059.6027046093768149
    Two-Electron Energy =                 859.1765708140419520
    Total Energy =                       -514.5933750249541845
  Basis Set: (AUG-CC-PVTZ AUX)
    Blend: AUG-CC-PVTZ-RI
    Molecular point group: c1

    Geometry (in Angstrom), charge = 0, multiplicity = 1:

       Center              X                  Y                   Z               Mass
    ------------   -----------------  -----------------  -----------------  -----------------
         O            0.959056795496     2.464056524238    -0.648912143536    15.994914619570
         N            2.063690795496     0.647043524238     0.185721856464    14.003074004430
         C            0.773738795496    -1.605895475762    -0.862549143536    12.000000000000
         C            1.801643995496    -1.795629275762     0.261622356464    12.000000000000
         C           -0.432441204504    -0.843428475762    -0.373733143536    12.000000000000
         C            2.044005795496    -0.540582475762     1.033647856464    12.000000000000
         C           -0.347776204504     0.534198524238    -0.083607143536    12.000000000000
         C            0.929231795496     1.308536524238    -0.215311143536    12.000000000000
         C           -1.674056204504    -1.473986475762    -0.229121143536    12.000000000000
         C           -1.486283204504     1.252758524238     0.299355856464    12.000000000000
         C           -2.803905204504    -0.765202475762     0.182251856464    12.000000000000
         C           -2.710836204504     0.603911524238     0.443432856464    12.000000000000
         H            0.455655795496    -2.572496475762    -1.269222143536     1.007825032230
         H            1.233902795496    -1.051940475762    -1.687863143536     1.007825032230
         H            1.523847795496    -2.621311475762     0.912116856464     1.007825032230
         H            2.771678795496    -2.138672475762    -0.242668143536     1.007825032230
         H            1.246340795496    -0.439151475762     1.777461856464     1.007825032230
         H            2.990294795496    -0.576779475762     1.581248856464     1.007825032230
         H            2.896625795496     1.226556524238     0.163653856464     1.007825032230
         H           -1.758238204504    -2.535096475762    -0.459395143536     1.007825032230
         H           -1.390772204504     2.321271524238     0.474969856464     1.007825032230
         H           -3.756841204504    -1.278678475762     0.288053856464     1.007825032230
         H           -3.590921204504     1.163694524238     0.750481856464     1.007825032230

  Basis Set: AUG-CC-PVTZ
    Blend: AUG-CC-PVTZ
  Basis Set: (AUG-CC-PVTZ AUX)
    Blend: AUG-CC-PVTZ-JKFIT
	 Reference Energy          =    -514.5933750249541845 [Eh]
	 Singles Energy            =      -0.0000000000000000 [Eh]
	 Same-Spin Energy          =      -0.5589134568188523 [Eh]
	 Opposite-Spin Energy      =      -1.7447007206972045 [Eh]
	 Correlation Energy        =      -2.3036141775160566 [Eh]
	 Total Energy              =    -516.8969892024701949 [Eh]

	 ================> DF-SCS-MP2 Energies <==================
	-----------------------------------------------------------
	 SCS Same-Spin Scale       =       0.3333333333333333 [-]
	 SCS Opposite-Spin Scale   =       1.2000000000000000 [-]
	 SCS Same-Spin Energy      =      -0.1863044856062841 [Eh]
	 SCS Opposite-Spin Energy  =      -2.0936408648366451 [Eh]
	 SCS Correlation Energy    =      -2.2799453504429295 [Eh]
	 SCS Total Energy          =    -516.8733203753971566 [Eh]
	-----------------------------------------------------------

  Dipole Moment: [D]
     X:     0.6012      Y:    -3.6176      Z:     1.7747     Total:     4.0741

*** Psi4 exiting successfully. Buy a developer a beer!
