                               Psi4 1.4a3.dev225

  ==> Input File <==

--------------------------------------------------------------------------
#psi4
#
memory 32 gb

molecule  {
0 1
  O        0.9417500     2.5148810    -0.6596880
  N        2.0463840     0.6978680     0.1749460
  C        0.7564320    -1.5550710    -0.8733250
  C        1.8157710    -1.7711630     0.2163790
  C       -0.4497480    -0.7926040    -0.3845090
  C        2.0266990    -0.4897580     1.0228720
  C       -0.3650830     0.5850230    -0.0943830
  C        0.9119250     1.3593610    -0.2260870
  C       -1.6913630    -1.4231620    -0.2398970
  C       -1.5035900     1.3035830     0.2885800
  C       -2.8212120    -0.7143780     0.1714760
  C       -2.7281430     0.6547360     0.4326570
  H        0.4383490    -2.5216720    -1.2799980
  H        1.2165960    -1.0011160    -1.6986390
  H        1.5206336    -2.5340594     0.8701252
  H        2.7543720    -2.0878480    -0.2534440
  H        1.2290340    -0.3883270     1.7666860
  H        2.9729880    -0.5259550     1.5704730
  H        2.8793190     1.2773810     0.1528780
  H       -1.7755450    -2.4842720    -0.4701710
  H       -1.4080790     2.3720960     0.4641940
  H       -3.7741480    -1.2278540     0.2772780
  H       -3.6082280     1.2145190     0.7397060
units angstrom
no_reorient  #important for SAPT in psi4, default
symmetry c1  #important for SAPT in psi4, default
}

set PROPERTIES_ORIGIN ["COM"]
properties('MP2/aug-cc-pvtz', properties = ['dipole'])
--------------------------------------------------------------------------

    Molecular point group: c1
  Charge       = 0
  Multiplicity = 1
  Basis Set: AUG-CC-PVTZ
    Blend: AUG-CC-PVTZ
  Basis Set: (AUG-CC-PVTZ AUX)
    Blend: AUG-CC-PVTZ-JKFIT

    Orbital Energies [Eh]
    ---------------------

    Doubly Occupied:

       1A    -20.514923     2A    -15.582389     3A    -11.351246
       4A    -11.275402     5A    -11.258169     6A    -11.248743
       7A    -11.247049     8A    -11.245439     9A    -11.241658
      10A    -11.239723    11A    -11.238842    12A    -11.231753
      13A     -1.368838    14A     -1.234581    15A     -1.164109
      16A     -1.083339    17A     -1.036892    18A     -1.021410
      19A     -0.938094    20A     -0.882290    21A     -0.843110
      22A     -0.800034    23A     -0.776202    24A     -0.697005
      25A     -0.686001    26A     -0.672534    27A     -0.653163
      28A     -0.623643    29A     -0.616229    30A     -0.600298
      31A     -0.587488    32A     -0.576665    33A     -0.557322
      34A     -0.536700    35A     -0.520347    36A     -0.509824
      37A     -0.492667    38A     -0.491826    39A     -0.478301
      40A     -0.423213    41A     -0.389117    42A     -0.343791
      43A     -0.335975

  @DF-RHF Final Energy:  -514.59579790399425

   => Energetics <=

    Nuclear Repulsion Energy =            685.3809779310728345
    One-Electron Energy =               -2058.7208652942376830
    Two-Electron Energy =                 858.7440894591707092
    Total Energy =                       -514.5957979039942529
  Basis Set: (AUG-CC-PVTZ AUX)
    Blend: AUG-CC-PVTZ-RI
    Molecular point group: c1

    Geometry (in Angstrom), charge = 0, multiplicity = 1:

       Center              X                  Y                   Z               Mass
    ------------   -----------------  -----------------  -----------------  -----------------
         O            0.956626955664     2.465792175462    -0.646149175843    15.994914619570
         N            2.061260955664     0.648779175462     0.188484824157    14.003074004430
         C            0.771308955664    -1.604159824538    -0.859786175843    12.000000000000
         C            1.830647955664    -1.820251824538     0.229917824157    12.000000000000
         C           -0.434871044336    -0.841692824538    -0.370970175843    12.000000000000
         C            2.041575955664    -0.538846824538     1.036410824157    12.000000000000
         C           -0.350206044336     0.535934175462    -0.080844175843    12.000000000000
         C            0.926801955664     1.310272175462    -0.212548175843    12.000000000000
         C           -1.676486044336    -1.472250824538    -0.226358175843    12.000000000000
         C           -1.488713044336     1.254494175462     0.302118824157    12.000000000000
         C           -2.806335044336    -0.763466824538     0.185014824157    12.000000000000
         C           -2.713266044336     0.605647175462     0.446195824157    12.000000000000
         H            0.453225955664    -2.570760824538    -1.266459175843     1.007825032230
         H            1.231472955664    -1.050204824538    -1.685100175843     1.007825032230
         H            1.535510555664    -2.583148224538     0.883664024157     1.007825032230
         H            2.769248955664    -2.136936824538    -0.239905175843     1.007825032230
         H            1.243910955664    -0.437415824538     1.780224824157     1.007825032230
         H            2.987864955664    -0.575043824538     1.584011824157     1.007825032230
         H            2.894195955664     1.228292175462     0.166416824157     1.007825032230
         H           -1.760668044336    -2.533360824538    -0.456632175843     1.007825032230
         H           -1.393202044336     2.323007175462     0.477732824157     1.007825032230
         H           -3.759271044336    -1.276942824538     0.290816824157     1.007825032230
         H           -3.593351044336     1.165430175462     0.753244824157     1.007825032230

  Basis Set: AUG-CC-PVTZ
    Blend: AUG-CC-PVTZ
  Basis Set: (AUG-CC-PVTZ AUX)
    Blend: AUG-CC-PVTZ-JKFIT
	 Reference Energy          =    -514.5957979039942529 [Eh]
	 Singles Energy            =      -0.0000000000000000 [Eh]
	 Same-Spin Energy          =      -0.5586326977809073 [Eh]
	 Opposite-Spin Energy      =      -1.7440656133454264 [Eh]
	 Correlation Energy        =      -2.3026983111263339 [Eh]
	 Total Energy              =    -516.8984962151205309 [Eh]

	 ================> DF-SCS-MP2 Energies <==================
	-----------------------------------------------------------
	 SCS Same-Spin Scale       =       0.3333333333333333 [-]
	 SCS Opposite-Spin Scale   =       1.2000000000000000 [-]
	 SCS Same-Spin Energy      =      -0.1862108992603024 [Eh]
	 SCS Opposite-Spin Energy  =      -2.0928787360145118 [Eh]
	 SCS Correlation Energy    =      -2.2790896352748140 [Eh]
	 SCS Total Energy          =    -516.8748875392690252 [Eh]
	-----------------------------------------------------------

  Dipole Moment: [D]
     X:     0.6351      Y:    -3.6424      Z:     1.7881     Total:     4.1071

*** Psi4 exiting successfully. Buy a developer a beer!
