                               Psi4 1.3.2 release

  ==> Input File <==

--------------------------------------------------------------------------
#psi4
#
memory 32 gb

molecule  {
0 1
  O        0.9417500     2.5148810    -0.6596880
  N        2.0463840     0.6978680     0.1749460
  C        0.7564320    -1.5550710    -0.8733250
  C        1.8157710    -1.7711630     0.2163790
  C       -0.4497480    -0.7926040    -0.3845090
  C        2.0266990    -0.4897580     1.0228720
  C       -0.3650830     0.5850230    -0.0943830
  C        0.9661265     1.4372627    -0.2394655
  C       -1.6913630    -1.4231620    -0.2398970
  C       -1.5035900     1.3035830     0.2885800
  C       -2.8212120    -0.7143780     0.1714760
  C       -2.7281430     0.6547360     0.4326570
  H        0.4383490    -2.5216720    -1.2799980
  H        1.2165960    -1.0011160    -1.6986390
  H        1.5065410    -2.5704870     0.9013410
  H        2.7543720    -2.0878480    -0.2534440
  H        1.2290340    -0.3883270     1.7666860
  H        2.9729880    -0.5259550     1.5704730
  H        2.8793190     1.2773810     0.1528780
  H       -1.7755450    -2.4842720    -0.4701710
  H       -1.4080790     2.3720960     0.4641940
  H       -3.7741480    -1.2278540     0.2772780
  H       -3.6082280     1.2145190     0.7397060
units angstrom
no_reorient  #important for SAPT in psi4, default
symmetry c1  #important for SAPT in psi4, default
}

set PROPERTIES_ORIGIN ["COM"]
properties('MP2/aug-cc-pvtz', properties = ['dipole'])
--------------------------------------------------------------------------

    Molecular point group: c1
  Charge       = 0
  Multiplicity = 1
  Basis Set: AUG-CC-PVTZ
    Blend: AUG-CC-PVTZ
  Basis Set: (AUG-CC-PVTZ AUX)
    Blend: AUG-CC-PVTZ-JKFIT

    Orbital Energies [Eh]
    ---------------------

    Doubly Occupied:

       1A    -20.529343     2A    -15.579812     3A    -11.350374
       4A    -11.276668     5A    -11.251372     6A    -11.242981
       7A    -11.242221     8A    -11.238731     9A    -11.237506
      10A    -11.236192    11A    -11.235544    12A    -11.235521
      13A     -1.424516    14A     -1.240129    15A     -1.157366
      16A     -1.079776    17A     -1.024873    18A     -1.016842
      19A     -0.936727    20A     -0.867584    21A     -0.836777
      22A     -0.794178    23A     -0.770492    24A     -0.691699
      25A     -0.688968    26A     -0.671988    27A     -0.654634
      28A     -0.631074    29A     -0.613723    30A     -0.598830
      31A     -0.597427    32A     -0.575829    33A     -0.566516
      34A     -0.534240    35A     -0.522528    36A     -0.512652
      37A     -0.490548    38A     -0.487160    39A     -0.477520
      40A     -0.417328    41A     -0.397249    42A     -0.338489
      43A     -0.331085

  @DF-RHF Final Energy:  -514.58989099203734

   => Energetics <=

    Nuclear Repulsion Energy =            684.5694337928410960
    One-Electron Energy =               -2057.1086241635898659
    Two-Electron Energy =                 857.9492993787113164
    Total Energy =                       -514.5898909920373399
  Basis Set: (AUG-CC-PVTZ AUX)
    Blend: AUG-CC-PVTZ-RI
    Molecular point group: c1

    Geometry (in Angstrom), charge = 0, multiplicity = 1:

       Center              X                  Y                   Z               Mass
    ------------   -----------------  -----------------  -----------------  -----------------
         O            0.952677371147     2.460216777557    -0.645347843097    15.994914619570
         N            2.057311371147     0.643203777557     0.189286156903    14.003074004430
         C            0.767359371147    -1.609735222443    -0.858984843097    12.000000000000
         C            1.826698371147    -1.825827222443     0.230719156903    12.000000000000
         C           -0.438820628853    -0.847268222443    -0.370168843097    12.000000000000
         C            2.037626371147    -0.544422222443     1.037212156903    12.000000000000
         C           -0.354155628853     0.530358777557    -0.080042843097    12.000000000000
         C            0.977053871147     1.382598477557    -0.225125343097    12.000000000000
         C           -1.680435628853    -1.477826222443    -0.225556843097    12.000000000000
         C           -1.492662628853     1.248918777557     0.302920156903    12.000000000000
         C           -2.810284628853    -0.769042222443     0.185816156903    12.000000000000
         C           -2.717215628853     0.600071777557     0.446997156903    12.000000000000
         H            0.449276371147    -2.576336222443    -1.265657843097     1.007825032230
         H            1.227523371147    -1.055780222443    -1.684298843097     1.007825032230
         H            1.517468371147    -2.625151222443     0.915681156903     1.007825032230
         H            2.765299371147    -2.142512222443    -0.239103843097     1.007825032230
         H            1.239961371147    -0.442991222443     1.781026156903     1.007825032230
         H            2.983915371147    -0.580619222443     1.584813156903     1.007825032230
         H            2.890246371147     1.222716777557     0.167218156903     1.007825032230
         H           -1.764617628853    -2.538936222443    -0.455830843097     1.007825032230
         H           -1.397151628853     2.317431777557     0.478534156903     1.007825032230
         H           -3.763220628853    -1.282518222443     0.291618156903     1.007825032230
         H           -3.597300628853     1.159854777557     0.754046156903     1.007825032230

  Basis Set: AUG-CC-PVTZ
    Blend: AUG-CC-PVTZ
  Basis Set: (AUG-CC-PVTZ AUX)
    Blend: AUG-CC-PVTZ-JKFIT
	 Reference Energy          =    -514.5898909920373399 [Eh]
	 Singles Energy            =      -0.0000000000000000 [Eh]
	 Same-Spin Energy          =      -0.5569338999229150 [Eh]
	 Opposite-Spin Energy      =      -1.7409360262867994 [Eh]
	 Correlation Energy        =      -2.2978699262097146 [Eh]
	 Total Energy              =    -516.8877609182470678 [Eh]

	 ================> DF-SCS-MP2 Energies <==================
	-----------------------------------------------------------
	 SCS Same-Spin Scale       =       0.3333333333333333 [-]
	 SCS Opposite-Spin Scale   =       1.2000000000000000 [-]
	 SCS Same-Spin Energy      =      -0.1856446333076383 [Eh]
	 SCS Opposite-Spin Energy  =      -2.0891232315441592 [Eh]
	 SCS Correlation Energy    =      -2.2747678648517975 [Eh]
	 SCS Total Energy          =    -516.8646588568891502 [Eh]
	-----------------------------------------------------------

  Dipole Moment: [D]
     X:     1.0022      Y:    -3.0595      Z:     1.6212     Total:     3.6046

*** Psi4 exiting successfully. Buy a developer a beer!
