                               Psi4 1.3.2 release

  ==> Input File <==

--------------------------------------------------------------------------
#psi4
#
memory 32 gb

molecule  {
0 1
  O        0.9417500     2.5148810    -0.6596880
  N        2.0463840     0.6978680     0.1749460
  C        0.7564320    -1.5550710    -0.8733250
  C        1.8747299    -1.8230578     0.1435046
  C       -0.4497480    -0.7926040    -0.3845090
  C        2.0266990    -0.4897580     1.0228720
  C       -0.3650830     0.5850230    -0.0943830
  C        0.9119250     1.3593610    -0.2260870
  C       -1.6913630    -1.4231620    -0.2398970
  C       -1.5035900     1.3035830     0.2885800
  C       -2.8212120    -0.7143780     0.1714760
  C       -2.7281430     0.6547360     0.4326570
  H        0.4383490    -2.5216720    -1.2799980
  H        1.2165960    -1.0011160    -1.6986390
  H        1.5065410    -2.5704870     0.9013410
  H        2.7543720    -2.0878480    -0.2534440
  H        1.2290340    -0.3883270     1.7666860
  H        2.9729880    -0.5259550     1.5704730
  H        2.8793190     1.2773810     0.1528780
  H       -1.7755450    -2.4842720    -0.4701710
  H       -1.4080790     2.3720960     0.4641940
  H       -3.7741480    -1.2278540     0.2772780
  H       -3.6082280     1.2145190     0.7397060
units angstrom
no_reorient  #important for SAPT in psi4, default
symmetry c1  #important for SAPT in psi4, default
}

set PROPERTIES_ORIGIN ["COM"]
properties('MP2/aug-cc-pvtz', properties = ['dipole'])
--------------------------------------------------------------------------

    Molecular point group: c1
  Charge       = 0
  Multiplicity = 1
  Basis Set: AUG-CC-PVTZ
    Blend: AUG-CC-PVTZ
  Basis Set: (AUG-CC-PVTZ AUX)
    Blend: AUG-CC-PVTZ-JKFIT

    Orbital Energies [Eh]
    ---------------------

    Doubly Occupied:

       1A    -20.514778     2A    -15.582196     3A    -11.351093
       4A    -11.278191     5A    -11.259651     6A    -11.248981
       7A    -11.247581     8A    -11.245629     9A    -11.242490
      10A    -11.240370    11A    -11.239063    12A    -11.236445
      13A     -1.368667    14A     -1.232525    15A     -1.164323
      16A     -1.079445    17A     -1.036110    18A     -1.018034
      19A     -0.934547    20A     -0.883066    21A     -0.846295
      22A     -0.800684    23A     -0.775657    24A     -0.697397
      25A     -0.683617    26A     -0.671657    27A     -0.650733
      28A     -0.622837    29A     -0.621348    30A     -0.597212
      31A     -0.586837    32A     -0.574743    33A     -0.560664
      34A     -0.538774    35A     -0.519058    36A     -0.507249
      37A     -0.492875    38A     -0.487322    39A     -0.477118
      40A     -0.423161    41A     -0.385014    42A     -0.343961
      43A     -0.336602

  @DF-RHF Final Energy:  -514.58384346116998

   => Energetics <=

    Nuclear Repulsion Energy =            683.7508203111327703
    One-Electron Energy =               -2055.4613266020101037
    Two-Electron Energy =                 857.1266628297072430
    Total Energy =                       -514.5838434611699768
  Basis Set: (AUG-CC-PVTZ AUX)
    Blend: AUG-CC-PVTZ-RI
    Molecular point group: c1

    Geometry (in Angstrom), charge = 0, multiplicity = 1:

       Center              X                  Y                   Z               Mass
    ------------   -----------------  -----------------  -----------------  -----------------
         O            0.952322967375     2.469886002194    -0.640915680272    15.994914619570
         N            2.056956967375     0.652873002194     0.193718319728    14.003074004430
         C            0.767004967375    -1.600065997806    -0.854552680272    12.000000000000
         C            1.885302867375    -1.868052797806     0.162276919728    12.000000000000
         C           -0.439175032625    -0.837598997806    -0.365736680272    12.000000000000
         C            2.037271967375    -0.534752997806     1.041644319728    12.000000000000
         C           -0.354510032625     0.540028002194    -0.075610680272    12.000000000000
         C            0.922497967375     1.314366002194    -0.207314680272    12.000000000000
         C           -1.680790032625    -1.468156997806    -0.221124680272    12.000000000000
         C           -1.493017032625     1.258588002194     0.307352319728    12.000000000000
         C           -2.810639032625    -0.759372997806     0.190248319728    12.000000000000
         C           -2.717570032625     0.609741002194     0.451429319728    12.000000000000
         H            0.448921967375    -2.566666997806    -1.261225680272     1.007825032230
         H            1.227168967375    -1.046110997806    -1.679866680272     1.007825032230
         H            1.517113967375    -2.615481997806     0.920113319728     1.007825032230
         H            2.764944967375    -2.132842997806    -0.234671680272     1.007825032230
         H            1.239606967375    -0.433321997806     1.785458319728     1.007825032230
         H            2.983560967375    -0.570949997806     1.589245319728     1.007825032230
         H            2.889891967375     1.232386002194     0.171650319728     1.007825032230
         H           -1.764972032625    -2.529266997806    -0.451398680272     1.007825032230
         H           -1.397506032625     2.327101002194     0.482966319728     1.007825032230
         H           -3.763575032625    -1.272848997806     0.296050319728     1.007825032230
         H           -3.597655032625     1.169524002194     0.758478319728     1.007825032230

  Basis Set: AUG-CC-PVTZ
    Blend: AUG-CC-PVTZ
  Basis Set: (AUG-CC-PVTZ AUX)
    Blend: AUG-CC-PVTZ-JKFIT
	 Reference Energy          =    -514.5838434611699768 [Eh]
	 Singles Energy            =      -0.0000000000000000 [Eh]
	 Same-Spin Energy          =      -0.5585983265482892 [Eh]
	 Opposite-Spin Energy      =      -1.7448682061997882 [Eh]
	 Correlation Energy        =      -2.3034665327480774 [Eh]
	 Total Energy              =    -516.8873099939180520 [Eh]

	 ================> DF-SCS-MP2 Energies <==================
	-----------------------------------------------------------
	 SCS Same-Spin Scale       =       0.3333333333333333 [-]
	 SCS Opposite-Spin Scale   =       1.2000000000000000 [-]
	 SCS Same-Spin Energy      =      -0.1861994421827631 [Eh]
	 SCS Opposite-Spin Energy  =      -2.0938418474397458 [Eh]
	 SCS Correlation Energy    =      -2.2800412896225088 [Eh]
	 SCS Total Energy          =    -516.8638847507925220 [Eh]
	-----------------------------------------------------------

  Dipole Moment: [D]
     X:     0.6546      Y:    -3.5837      Z:     1.7597     Total:     4.0457

*** Psi4 exiting successfully. Buy a developer a beer!
