                               Psi4 1.3.2 release

  ==> Input File <==

--------------------------------------------------------------------------
#psi4
#
memory 32 gb

molecule  {
0 1
  O        0.9417500     2.5148810    -0.6596880
  N        2.0609450     0.7533560     0.2591205
  C        0.7564320    -1.5550710    -0.8733250
  C        1.8157710    -1.7711630     0.2163790
  C       -0.4497480    -0.7926040    -0.3845090
  C        2.0266990    -0.4897580     1.0228720
  C       -0.3650830     0.5850230    -0.0943830
  C        0.9119250     1.3593610    -0.2260870
  C       -1.6913630    -1.4231620    -0.2398970
  C       -1.5035900     1.3035830     0.2885800
  C       -2.8212120    -0.7143780     0.1714760
  C       -2.7281430     0.6547360     0.4326570
  H        0.4383490    -2.5216720    -1.2799980
  H        1.2165960    -1.0011160    -1.6986390
  H        1.5065410    -2.5704870     0.9013410
  H        2.7543720    -2.0878480    -0.2534440
  H        1.2290340    -0.3883270     1.7666860
  H        2.9729880    -0.5259550     1.5704730
  H        2.8793190     1.2773810     0.1528780
  H       -1.7755450    -2.4842720    -0.4701710
  H       -1.4080790     2.3720960     0.4641940
  H       -3.7741480    -1.2278540     0.2772780
  H       -3.6082280     1.2145190     0.7397060
units angstrom
no_reorient  #important for SAPT in psi4, default
symmetry c1  #important for SAPT in psi4, default
}

set PROPERTIES_ORIGIN ["COM"]
properties('MP2/aug-cc-pvtz', properties = ['dipole'])
--------------------------------------------------------------------------

    Molecular point group: c1
  Charge       = 0
  Multiplicity = 1
  Basis Set: AUG-CC-PVTZ
    Blend: AUG-CC-PVTZ
  Basis Set: (AUG-CC-PVTZ AUX)
    Blend: AUG-CC-PVTZ-JKFIT

    Orbital Energies [Eh]
    ---------------------

    Doubly Occupied:

       1A    -20.514561     2A    -15.578601     3A    -11.352392
       4A    -11.274556     5A    -11.259023     6A    -11.249400
       7A    -11.248650     8A    -11.246491     9A    -11.242322
      10A    -11.240955    11A    -11.240431    12A    -11.239436
      13A     -1.368267    14A     -1.232108    15A     -1.165330
      16A     -1.083629    17A     -1.036943    18A     -1.020786
      19A     -0.938478    20A     -0.882848    21A     -0.843311
      22A     -0.800026    23A     -0.780169    24A     -0.700223
      25A     -0.679787    26A     -0.672845    27A     -0.653444
      28A     -0.623028    29A     -0.618094    30A     -0.600653
      31A     -0.586412    32A     -0.579518    33A     -0.556191
      34A     -0.537113    35A     -0.518928    36A     -0.511504
      37A     -0.492964    38A     -0.491224    39A     -0.478997
      40A     -0.422339    41A     -0.386005    42A     -0.344605
      43A     -0.336696

  @DF-RHF Final Energy:  -514.59511781794617

   => Energetics <=

    Nuclear Repulsion Energy =            684.2766632513613558
    One-Electron Energy =               -2056.4849935430333971
    Two-Electron Energy =                 857.6132124737259801
    Total Energy =                       -514.5951178179461749
  Basis Set: (AUG-CC-PVTZ AUX)
    Blend: AUG-CC-PVTZ-RI
    Molecular point group: c1

    Geometry (in Angstrom), charge = 0, multiplicity = 1:

       Center              X                  Y                   Z               Mass
    ------------   -----------------  -----------------  -----------------  -----------------
         O            0.955449335229     2.461196500975    -0.653661786262    15.994914619570
         N            2.074644335229     0.699671500975     0.265146713738    14.003074004430
         C            0.770131335229    -1.608755499025    -0.867298786262    12.000000000000
         C            1.829470335229    -1.824847499025     0.222405213738    12.000000000000
         C           -0.436048664771    -0.846288499025    -0.378482786262    12.000000000000
         C            2.040398335229    -0.543442499025     1.028898213738    12.000000000000
         C           -0.351383664771     0.531338500975    -0.088356786262    12.000000000000
         C            0.925624335229     1.305676500975    -0.220060786262    12.000000000000
         C           -1.677663664771    -1.476846499025    -0.233870786262    12.000000000000
         C           -1.489890664771     1.249898500975     0.294606213738    12.000000000000
         C           -2.807512664771    -0.768062499025     0.177502213738    12.000000000000
         C           -2.714443664771     0.601051500975     0.438683213738    12.000000000000
         H            0.452048335229    -2.575356499025    -1.273971786262     1.007825032230
         H            1.230295335229    -1.054800499025    -1.692612786262     1.007825032230
         H            1.520240335229    -2.624171499025     0.907367213738     1.007825032230
         H            2.768071335229    -2.141532499025    -0.247417786262     1.007825032230
         H            1.242733335229    -0.442011499025     1.772712213738     1.007825032230
         H            2.986687335229    -0.579639499025     1.576499213738     1.007825032230
         H            2.893018335229     1.223696500975     0.158904213738     1.007825032230
         H           -1.761845664771    -2.537956499025    -0.464144786262     1.007825032230
         H           -1.394379664771     2.318411500975     0.470220213738     1.007825032230
         H           -3.760448664771    -1.281538499025     0.283304213738     1.007825032230
         H           -3.594528664771     1.160834500975     0.745732213738     1.007825032230

  Basis Set: AUG-CC-PVTZ
    Blend: AUG-CC-PVTZ
  Basis Set: (AUG-CC-PVTZ AUX)
    Blend: AUG-CC-PVTZ-JKFIT
	 Reference Energy          =    -514.5951178179461749 [Eh]
	 Singles Energy            =      -0.0000000000000000 [Eh]
	 Same-Spin Energy          =      -0.5582344082274858 [Eh]
	 Opposite-Spin Energy      =      -1.7438126944233077 [Eh]
	 Correlation Energy        =      -2.3020471026507936 [Eh]
	 Total Energy              =    -516.8971649205969925 [Eh]

	 ================> DF-SCS-MP2 Energies <==================
	-----------------------------------------------------------
	 SCS Same-Spin Scale       =       0.3333333333333333 [-]
	 SCS Opposite-Spin Scale   =       1.2000000000000000 [-]
	 SCS Same-Spin Energy      =      -0.1860781360758286 [Eh]
	 SCS Opposite-Spin Energy  =      -2.0925752333079690 [Eh]
	 SCS Correlation Energy    =      -2.2786533693837976 [Eh]
	 SCS Total Energy          =    -516.8737711873300213 [Eh]
	-----------------------------------------------------------

  Dipole Moment: [D]
     X:     0.5711      Y:    -3.7165      Z:     1.5993     Total:     4.0861

*** Psi4 exiting successfully. Buy a developer a beer!
