                               Psi4 1.3.2 release

  ==> Input File <==

--------------------------------------------------------------------------
#psi4
#
memory 32 gb

molecule  {
0 1
  O        0.9417500     2.5148810    -0.6596880
  N        2.0463840     0.6978680     0.1749460
  C        0.7564320    -1.5550710    -0.8733250
  C        1.8157710    -1.7711630     0.2163790
  C       -0.4497480    -0.7926040    -0.3845090
  C        2.0266990    -0.4897580     1.0228720
  C       -0.3650830     0.5850230    -0.0943830
  C        1.0822800     1.4626590    -0.2436565
  C       -1.6913630    -1.4231620    -0.2398970
  C       -1.5035900     1.3035830     0.2885800
  C       -2.8212120    -0.7143780     0.1714760
  C       -2.7281430     0.6547360     0.4326570
  H        0.4383490    -2.5216720    -1.2799980
  H        1.2165960    -1.0011160    -1.6986390
  H        1.5065410    -2.5704870     0.9013410
  H        2.7543720    -2.0878480    -0.2534440
  H        1.2290340    -0.3883270     1.7666860
  H        2.9729880    -0.5259550     1.5704730
  H        2.8793190     1.2773810     0.1528780
  H       -1.7755450    -2.4842720    -0.4701710
  H       -1.4080790     2.3720960     0.4641940
  H       -3.7741480    -1.2278540     0.2772780
  H       -3.6082280     1.2145190     0.7397060
units angstrom
no_reorient  #important for SAPT in psi4, default
symmetry c1  #important for SAPT in psi4, default
}

set PROPERTIES_ORIGIN ["COM"]
properties('MP2/aug-cc-pvtz', properties = ['dipole'])
--------------------------------------------------------------------------

    Molecular point group: c1
  Charge       = 0
  Multiplicity = 1
  Basis Set: AUG-CC-PVTZ
    Blend: AUG-CC-PVTZ
  Basis Set: (AUG-CC-PVTZ AUX)
    Blend: AUG-CC-PVTZ-JKFIT

    Orbital Energies [Eh]
    ---------------------

    Doubly Occupied:

       1A    -20.531888     2A    -15.594161     3A    -11.353622
       4A    -11.286910     5A    -11.241452     6A    -11.239584
       7A    -11.234454     8A    -11.233789     9A    -11.233605
      10A    -11.231326    11A    -11.230214    12A    -11.228995
      13A     -1.439364    14A     -1.273516    15A     -1.149788
      16A     -1.083658    17A     -1.021040    18A     -1.007779
      19A     -0.943413    20A     -0.861558    21A     -0.833542
      22A     -0.789223    23A     -0.773815    24A     -0.702575
      25A     -0.687389    26A     -0.671715    27A     -0.656207
      28A     -0.636894    29A     -0.612282    30A     -0.605987
      31A     -0.592927    32A     -0.576405    33A     -0.567451
      34A     -0.534167    35A     -0.523872    36A     -0.512097
      37A     -0.490046    38A     -0.483089    39A     -0.475063
      40A     -0.413835    41A     -0.392356    42A     -0.329628
      43A     -0.323744

  @DF-RHF Final Energy:  -514.56153220100828

   => Energetics <=

    Nuclear Repulsion Energy =            684.1065760505545086
    One-Electron Energy =               -2056.1273631253070562
    Two-Electron Energy =                 857.4592548737443849
    Total Energy =                       -514.5615322010082764
  Basis Set: (AUG-CC-PVTZ AUX)
    Blend: AUG-CC-PVTZ-RI
    Molecular point group: c1

    Geometry (in Angstrom), charge = 0, multiplicity = 1:

       Center              X                  Y                   Z               Mass
    ------------   -----------------  -----------------  -----------------  -----------------
         O            0.944024485408     2.458324873464    -0.645035633442    15.994914619570
         N            2.048658485408     0.641311873464     0.189598366558    14.003074004430
         C            0.758706485408    -1.611627126536    -0.858672633442    12.000000000000
         C            1.818045485408    -1.827719126536     0.231031366558    12.000000000000
         C           -0.447473514592    -0.849160126536    -0.369856633442    12.000000000000
         C            2.028973485408    -0.546314126536     1.037524366558    12.000000000000
         C           -0.362808514592     0.528466873464    -0.079730633442    12.000000000000
         C            1.084554485408     1.406102873464    -0.229004133442    12.000000000000
         C           -1.689088514592    -1.479718126536    -0.225244633442    12.000000000000
         C           -1.501315514592     1.247026873464     0.303232366558    12.000000000000
         C           -2.818937514592    -0.770934126536     0.186128366558    12.000000000000
         C           -2.725868514592     0.598179873464     0.447309366558    12.000000000000
         H            0.440623485408    -2.578228126536    -1.265345633442     1.007825032230
         H            1.218870485408    -1.057672126536    -1.683986633442     1.007825032230
         H            1.508815485408    -2.627043126536     0.915993366558     1.007825032230
         H            2.756646485408    -2.144404126536    -0.238791633442     1.007825032230
         H            1.231308485408    -0.444883126536     1.781338366558     1.007825032230
         H            2.975262485408    -0.582511126536     1.585125366558     1.007825032230
         H            2.881593485408     1.220824873464     0.167530366558     1.007825032230
         H           -1.773270514592    -2.540828126536    -0.455518633442     1.007825032230
         H           -1.405804514592     2.315539873464     0.478846366558     1.007825032230
         H           -3.771873514592    -1.284410126536     0.291930366558     1.007825032230
         H           -3.605953514592     1.157962873464     0.754358366558     1.007825032230

  Basis Set: AUG-CC-PVTZ
    Blend: AUG-CC-PVTZ
  Basis Set: (AUG-CC-PVTZ AUX)
    Blend: AUG-CC-PVTZ-JKFIT
	 Reference Energy          =    -514.5615322010082764 [Eh]
	 Singles Energy            =      -0.0000000000000000 [Eh]
	 Same-Spin Energy          =      -0.5574153421229073 [Eh]
	 Opposite-Spin Energy      =      -1.7414002793829875 [Eh]
	 Correlation Energy        =      -2.2988156215058950 [Eh]
	 Total Energy              =    -516.8603478225141998 [Eh]

	 ================> DF-SCS-MP2 Energies <==================
	-----------------------------------------------------------
	 SCS Same-Spin Scale       =       0.3333333333333333 [-]
	 SCS Opposite-Spin Scale   =       1.2000000000000000 [-]
	 SCS Same-Spin Energy      =      -0.1858051140409691 [Eh]
	 SCS Opposite-Spin Energy  =      -2.0896803352595850 [Eh]
	 SCS Correlation Energy    =      -2.2754854493005539 [Eh]
	 SCS Total Energy          =    -516.8370176503087805 [Eh]
	-----------------------------------------------------------

  Dipole Moment: [D]
     X:     1.8939      Y:    -2.9447      Z:     1.7095     Total:     3.8962

*** Psi4 exiting successfully. Buy a developer a beer!
