                               Psi4 1.3.2 release

  ==> Input File <==

--------------------------------------------------------------------------
#psi4
#
memory 32 gb

molecule  {
0 1
  O        0.9845067     2.5149866    -0.6543244
  N        2.0463840     0.6978680     0.1749460
  C        0.7564320    -1.5550710    -0.8733250
  C        1.8157710    -1.7711630     0.2163790
  C       -0.4497480    -0.7926040    -0.3845090
  C        2.0266990    -0.4897580     1.0228720
  C       -0.3650830     0.5850230    -0.0943830
  C        0.9119250     1.3593610    -0.2260870
  C       -1.6913630    -1.4231620    -0.2398970
  C       -1.5035900     1.3035830     0.2885800
  C       -2.8212120    -0.7143780     0.1714760
  C       -2.7281430     0.6547360     0.4326570
  H        0.4383490    -2.5216720    -1.2799980
  H        1.2165960    -1.0011160    -1.6986390
  H        1.5065410    -2.5704870     0.9013410
  H        2.7543720    -2.0878480    -0.2534440
  H        1.2290340    -0.3883270     1.7666860
  H        2.9729880    -0.5259550     1.5704730
  H        2.8793190     1.2773810     0.1528780
  H       -1.7755450    -2.4842720    -0.4701710
  H       -1.4080790     2.3720960     0.4641940
  H       -3.7741480    -1.2278540     0.2772780
  H       -3.6082280     1.2145190     0.7397060
units angstrom
no_reorient  #important for SAPT in psi4, default
symmetry c1  #important for SAPT in psi4, default
}

set PROPERTIES_ORIGIN ["COM"]
properties('MP2/aug-cc-pvtz', properties = ['dipole'])
--------------------------------------------------------------------------

    Molecular point group: c1
  Charge       = 0
  Multiplicity = 1
  Basis Set: AUG-CC-PVTZ
    Blend: AUG-CC-PVTZ
  Basis Set: (AUG-CC-PVTZ AUX)
    Blend: AUG-CC-PVTZ-JKFIT

    Orbital Energies [Eh]
    ---------------------

    Doubly Occupied:

       1A    -20.514393     2A    -15.580364     3A    -11.351152
       4A    -11.274562     5A    -11.259535     6A    -11.249891
       7A    -11.248791     8A    -11.246917     9A    -11.242630
      10A    -11.240744    11A    -11.239523    12A    -11.237591
      13A     -1.369223    14A     -1.232459    15A     -1.165146
      16A     -1.082304    17A     -1.037900    18A     -1.020980
      19A     -0.938072    20A     -0.882108    21A     -0.841624
      22A     -0.798678    23A     -0.776331    24A     -0.696692
      25A     -0.685169    26A     -0.672469    27A     -0.652425
      28A     -0.623997    29A     -0.615514    30A     -0.600456
      31A     -0.587164    32A     -0.576397    33A     -0.557089
      34A     -0.535815    35A     -0.518687    36A     -0.510596
      37A     -0.492969    38A     -0.490361    39A     -0.478659
      40A     -0.423256    41A     -0.387451    42A     -0.345361
      43A     -0.336991

  @DF-RHF Final Energy:  -514.59642624078867

   => Energetics <=

    Nuclear Repulsion Energy =            684.9464139463358379
    One-Electron Energy =               -2057.8488056074352244
    Two-Electron Energy =                 858.3059654203108266
    Total Energy =                       -514.5964262407886736
  Basis Set: (AUG-CC-PVTZ AUX)
    Blend: AUG-CC-PVTZ-RI
    Molecular point group: c1

    Geometry (in Angstrom), charge = 0, multiplicity = 1:

       Center              X                  Y                   Z               Mass
    ------------   -----------------  -----------------  -----------------  -----------------
         O            0.995226280475     2.466115199727    -0.641513459073    15.994914619570
         N            2.057103580475     0.648996599727     0.187756940927    14.003074004430
         C            0.767151580475    -1.603942400273    -0.860514059073    12.000000000000
         C            1.826490580475    -1.820034400273     0.229189940927    12.000000000000
         C           -0.439028419525    -0.841475400273    -0.371698059073    12.000000000000
         C            2.037418580475    -0.538629400273     1.035682940927    12.000000000000
         C           -0.354363419525     0.536151599727    -0.081572059073    12.000000000000
         C            0.922644580475     1.310489599727    -0.213276059073    12.000000000000
         C           -1.680643419525    -1.472033400273    -0.227086059073    12.000000000000
         C           -1.492870419525     1.254711599727     0.301390940927    12.000000000000
         C           -2.810492419525    -0.763249400273     0.184286940927    12.000000000000
         C           -2.717423419525     0.605864599727     0.445467940927    12.000000000000
         H            0.449068580475    -2.570543400273    -1.267187059073     1.007825032230
         H            1.227315580475    -1.049987400273    -1.685828059073     1.007825032230
         H            1.517260580475    -2.619358400273     0.914151940927     1.007825032230
         H            2.765091580475    -2.136719400273    -0.240633059073     1.007825032230
         H            1.239753580475    -0.437198400273     1.779496940927     1.007825032230
         H            2.983707580475    -0.574826400273     1.583283940927     1.007825032230
         H            2.890038580475     1.228509599727     0.165688940927     1.007825032230
         H           -1.764825419525    -2.533143400273    -0.457360059073     1.007825032230
         H           -1.397359419525     2.323224599727     0.477004940927     1.007825032230
         H           -3.763428419525    -1.276725400273     0.290088940927     1.007825032230
         H           -3.597508419525     1.165647599727     0.752516940927     1.007825032230

  Basis Set: AUG-CC-PVTZ
    Blend: AUG-CC-PVTZ
  Basis Set: (AUG-CC-PVTZ AUX)
    Blend: AUG-CC-PVTZ-JKFIT
	 Reference Energy          =    -514.5964262407886736 [Eh]
	 Singles Energy            =      -0.0000000000000000 [Eh]
	 Same-Spin Energy          =      -0.5586073454612608 [Eh]
	 Opposite-Spin Energy      =      -1.7443162812004527 [Eh]
	 Correlation Energy        =      -2.3029236266617135 [Eh]
	 Total Energy              =    -516.8993498674503826 [Eh]

	 ================> DF-SCS-MP2 Energies <==================
	-----------------------------------------------------------
	 SCS Same-Spin Scale       =       0.3333333333333333 [-]
	 SCS Opposite-Spin Scale   =       1.2000000000000000 [-]
	 SCS Same-Spin Energy      =      -0.1862024484870869 [Eh]
	 SCS Opposite-Spin Energy  =      -2.0931795374405433 [Eh]
	 SCS Correlation Energy    =      -2.2793819859276301 [Eh]
	 SCS Total Energy          =    -516.8758082267163445 [Eh]
	-----------------------------------------------------------

  Dipole Moment: [D]
     X:     0.4901      Y:    -3.6395      Z:     1.7556     Total:     4.0705

*** Psi4 exiting successfully. Buy a developer a beer!
