                               Psi4 1.3.2 release

  ==> Input File <==

--------------------------------------------------------------------------
#psi4
#
memory 32 gb

molecule  {
0 1
  O        0.9417500     2.5148810    -0.6596880
  N        2.0463840     0.6978680     0.1749460
  C        0.7564320    -1.5550710    -0.8733250
  C        1.8157710    -1.7711630     0.2163790
  C       -0.4497480    -0.7926040    -0.3845090
  C        2.0266990    -0.4897580     1.0228720
  C       -0.3650830     0.5850230    -0.0943830
  C        0.9243013     1.3373449    -0.2329273
  C       -1.6913630    -1.4231620    -0.2398970
  C       -1.5035900     1.3035830     0.2885800
  C       -2.8212120    -0.7143780     0.1714760
  C       -2.7281430     0.6547360     0.4326570
  H        0.4383490    -2.5216720    -1.2799980
  H        1.2165960    -1.0011160    -1.6986390
  H        1.5065410    -2.5704870     0.9013410
  H        2.7543720    -2.0878480    -0.2534440
  H        1.2290340    -0.3883270     1.7666860
  H        2.9729880    -0.5259550     1.5704730
  H        2.8793190     1.2773810     0.1528780
  H       -1.7755450    -2.4842720    -0.4701710
  H       -1.4080790     2.3720960     0.4641940
  H       -3.7741480    -1.2278540     0.2772780
  H       -3.6082280     1.2145190     0.7397060
units angstrom
no_reorient  #important for SAPT in psi4, default
symmetry c1  #important for SAPT in psi4, default
}

set PROPERTIES_ORIGIN ["COM"]
properties('MP2/aug-cc-pvtz', properties = ['dipole'])
--------------------------------------------------------------------------

    Molecular point group: c1
  Charge       = 0
  Multiplicity = 1
  Basis Set: AUG-CC-PVTZ
    Blend: AUG-CC-PVTZ
  Basis Set: (AUG-CC-PVTZ AUX)
    Blend: AUG-CC-PVTZ-JKFIT

    Orbital Energies [Eh]
    ---------------------

    Doubly Occupied:

       1A    -20.510556     2A    -15.586537     3A    -11.351134
       4A    -11.277876     5A    -11.257988     6A    -11.248783
       7A    -11.247501     8A    -11.245666     9A    -11.241644
      10A    -11.240360    11A    -11.239853    12A    -11.239402
      13A     -1.358812    14A     -1.238409    15A     -1.164560
      16A     -1.083660    17A     -1.036746    18A     -1.021583
      19A     -0.940534    20A     -0.882805    21A     -0.842552
      22A     -0.798561    23A     -0.778986    24A     -0.698190
      25A     -0.687189    26A     -0.672004    27A     -0.653190
      28A     -0.622621    29A     -0.616925    30A     -0.600230
      31A     -0.584588    32A     -0.575546    33A     -0.556259
      34A     -0.536595    35A     -0.517911    36A     -0.508430
      37A     -0.493220    38A     -0.490503    39A     -0.478287
      40A     -0.420973    41A     -0.389472    42A     -0.343393
      43A     -0.336193

  @DF-RHF Final Energy:  -514.59482312261969

   => Energetics <=

    Nuclear Repulsion Energy =            685.2186621860920468
    One-Electron Energy =               -2058.3945184828444326
    Two-Electron Energy =                 858.5810331741328127
    Total Energy =                       -514.5948231226196867
  Basis Set: (AUG-CC-PVTZ AUX)
    Blend: AUG-CC-PVTZ-RI
    Molecular point group: c1

    Geometry (in Angstrom), charge = 0, multiplicity = 1:

       Center              X                  Y                   Z               Mass
    ------------   -----------------  -----------------  -----------------  -----------------
         O            0.955793150496     2.467660180526    -0.645834908037    15.994914619570
         N            2.060427150496     0.650647180526     0.188799091963    14.003074004430
         C            0.770475150496    -1.602291819474    -0.859471908037    12.000000000000
         C            1.829814150496    -1.818383819474     0.230232091963    12.000000000000
         C           -0.435704849504    -0.839824819474    -0.370655908037    12.000000000000
         C            2.040742150496    -0.536978819474     1.036725091963    12.000000000000
         C           -0.351039849504     0.537802180526    -0.080529908037    12.000000000000
         C            0.938344450496     1.290124080526    -0.219074208037    12.000000000000
         C           -1.677319849504    -1.470382819474    -0.226043908037    12.000000000000
         C           -1.489546849504     1.256362180526     0.302433091963    12.000000000000
         C           -2.807168849504    -0.761598819474     0.185329091963    12.000000000000
         C           -2.714099849504     0.607515180526     0.446510091963    12.000000000000
         H            0.452392150496    -2.568892819474    -1.266144908037     1.007825032230
         H            1.230639150496    -1.048336819474    -1.684785908037     1.007825032230
         H            1.520584150496    -2.617707819474     0.915194091963     1.007825032230
         H            2.768415150496    -2.135068819474    -0.239590908037     1.007825032230
         H            1.243077150496    -0.435547819474     1.780539091963     1.007825032230
         H            2.987031150496    -0.573175819474     1.584326091963     1.007825032230
         H            2.893362150496     1.230160180526     0.166731091963     1.007825032230
         H           -1.761501849504    -2.531492819474    -0.456317908037     1.007825032230
         H           -1.394035849504     2.324875180526     0.478047091963     1.007825032230
         H           -3.760104849504    -1.275074819474     0.291131091963     1.007825032230
         H           -3.594184849504     1.167298180526     0.753559091963     1.007825032230

  Basis Set: AUG-CC-PVTZ
    Blend: AUG-CC-PVTZ
  Basis Set: (AUG-CC-PVTZ AUX)
    Blend: AUG-CC-PVTZ-JKFIT
	 Reference Energy          =    -514.5948231226196867 [Eh]
	 Singles Energy            =      -0.0000000000000000 [Eh]
	 Same-Spin Energy          =      -0.5589845109107291 [Eh]
	 Opposite-Spin Energy      =      -1.7449919336243620 [Eh]
	 Correlation Energy        =      -2.3039764445350910 [Eh]
	 Total Energy              =    -516.8987995671548106 [Eh]

	 ================> DF-SCS-MP2 Energies <==================
	-----------------------------------------------------------
	 SCS Same-Spin Scale       =       0.3333333333333333 [-]
	 SCS Opposite-Spin Scale   =       1.2000000000000000 [-]
	 SCS Same-Spin Energy      =      -0.1863281703035763 [Eh]
	 SCS Opposite-Spin Energy  =      -2.0939903203492345 [Eh]
	 SCS Correlation Energy    =      -2.2803184906528107 [Eh]
	 SCS Total Energy          =    -516.8751416132724898 [Eh]
	-----------------------------------------------------------

  Dipole Moment: [D]
     X:     0.7186      Y:    -3.7654      Z:     1.8287     Total:     4.2472

*** Psi4 exiting successfully. Buy a developer a beer!
