                               Psi4 1.4a3.dev225

  ==> Input File <==

--------------------------------------------------------------------------
#psi4
#
memory 32 gb

molecule  {
0 1
  O        0.9417500     2.5148810    -0.6596880
  N        2.0463840     0.6978680     0.1749460
  C        0.7564320    -1.5550710    -0.8733250
  C        1.8157710    -1.7711630     0.2163790
  C       -0.4497480    -0.7926040    -0.3845090
  C        2.0266990    -0.4897580     1.0228720
  C       -0.3650830     0.5850230    -0.0943830
  C        0.8706148     1.3834486    -0.2406902
  C       -1.6913630    -1.4231620    -0.2398970
  C       -1.5035900     1.3035830     0.2885800
  C       -2.8212120    -0.7143780     0.1714760
  C       -2.7281430     0.6547360     0.4326570
  H        0.4383490    -2.5216720    -1.2799980
  H        1.2165960    -1.0011160    -1.6986390
  H        1.5065410    -2.5704870     0.9013410
  H        2.7543720    -2.0878480    -0.2534440
  H        1.2290340    -0.3883270     1.7666860
  H        2.9729880    -0.5259550     1.5704730
  H        2.8793190     1.2773810     0.1528780
  H       -1.7755450    -2.4842720    -0.4701710
  H       -1.4080790     2.3720960     0.4641940
  H       -3.7741480    -1.2278540     0.2772780
  H       -3.6082280     1.2145190     0.7397060
units angstrom
no_reorient  #important for SAPT in psi4, default
symmetry c1  #important for SAPT in psi4, default
}

set PROPERTIES_ORIGIN ["COM"]
properties('MP2/aug-cc-pvtz', properties = ['dipole'])
--------------------------------------------------------------------------

    Molecular point group: c1
  Charge       = 0
  Multiplicity = 1
  Basis Set: AUG-CC-PVTZ
    Blend: AUG-CC-PVTZ
  Basis Set: (AUG-CC-PVTZ AUX)
    Blend: AUG-CC-PVTZ-JKFIT

    Orbital Energies [Eh]
    ---------------------

    Doubly Occupied:

       1A    -20.523290     2A    -15.573143     3A    -11.352631
       4A    -11.270231     5A    -11.260557     6A    -11.250694
       7A    -11.248003     8A    -11.246472     9A    -11.242953
      10A    -11.240967    11A    -11.238097    12A    -11.234790
      13A     -1.386342    14A     -1.221602    15A     -1.164822
      16A     -1.079532    17A     -1.040481    18A     -1.018779
      19A     -0.933470    20A     -0.882649    21A     -0.839580
      22A     -0.797970    23A     -0.771390    24A     -0.695088
      25A     -0.682665    26A     -0.672349    27A     -0.651847
      28A     -0.626776    29A     -0.613105    30A     -0.601436
      31A     -0.590768    32A     -0.575948    33A     -0.558418
      34A     -0.534679    35A     -0.519653    36A     -0.513180
      37A     -0.492066    38A     -0.489438    39A     -0.478343
      40A     -0.426890    41A     -0.384608    42A     -0.346524
      43A     -0.337204

  @DF-RHF Final Energy:  -514.59454891798248

   => Energetics <=

    Nuclear Repulsion Energy =            685.0845992033702032
    One-Electron Energy =               -2058.1394341445370628
    Two-Electron Energy =                 858.4602860231844943
    Total Energy =                       -514.5945489179824790
  Basis Set: (AUG-CC-PVTZ AUX)
    Blend: AUG-CC-PVTZ-RI
    Molecular point group: c1

    Geometry (in Angstrom), charge = 0, multiplicity = 1:

       Center              X                  Y                   Z               Mass
    ------------   -----------------  -----------------  -----------------  -----------------
         O            0.959792540530     2.464225673186    -0.645256608746    15.994914619570
         N            2.064426540530     0.647212673186     0.189377391254    14.003074004430
         C            0.774474540530    -1.605726326814    -0.858893608746    12.000000000000
         C            1.833813540530    -1.821818326814     0.230810391254    12.000000000000
         C           -0.431705459470    -0.843259326814    -0.370077608746    12.000000000000
         C            2.044741540530    -0.540413326814     1.037303391254    12.000000000000
         C           -0.347040459470     0.534367673186    -0.079951608746    12.000000000000
         C            0.888657340530     1.332793273186    -0.226258808746    12.000000000000
         C           -1.673320459470    -1.473817326814    -0.225465608746    12.000000000000
         C           -1.485547459470     1.252927673186     0.303011391254    12.000000000000
         C           -2.803169459470    -0.765033326814     0.185907391254    12.000000000000
         C           -2.710100459470     0.604080673186     0.447088391254    12.000000000000
         H            0.456391540530    -2.572327326814    -1.265566608746     1.007825032230
         H            1.234638540530    -1.051771326814    -1.684207608746     1.007825032230
         H            1.524583540530    -2.621142326814     0.915772391254     1.007825032230
         H            2.772414540530    -2.138503326814    -0.239012608746     1.007825032230
         H            1.247076540530    -0.438982326814     1.781117391254     1.007825032230
         H            2.991030540530    -0.576610326814     1.584904391254     1.007825032230
         H            2.897361540530     1.226725673186     0.167309391254     1.007825032230
         H           -1.757502459470    -2.534927326814    -0.455739608746     1.007825032230
         H           -1.390036459470     2.321440673186     0.478625391254     1.007825032230
         H           -3.756105459470    -1.278509326814     0.291709391254     1.007825032230
         H           -3.590185459470     1.163863673186     0.754137391254     1.007825032230

  Basis Set: AUG-CC-PVTZ
    Blend: AUG-CC-PVTZ
  Basis Set: (AUG-CC-PVTZ AUX)
    Blend: AUG-CC-PVTZ-JKFIT
	 Reference Energy          =    -514.5945489179824790 [Eh]
	 Singles Energy            =      -0.0000000000000000 [Eh]
	 Same-Spin Energy          =      -0.5584116868420580 [Eh]
	 Opposite-Spin Energy      =      -1.7440269718364283 [Eh]
	 Correlation Energy        =      -2.3024386586784864 [Eh]
	 Total Energy              =    -516.8969875766609903 [Eh]

	 ================> DF-SCS-MP2 Energies <==================
	-----------------------------------------------------------
	 SCS Same-Spin Scale       =       0.3333333333333333 [-]
	 SCS Opposite-Spin Scale   =       1.2000000000000000 [-]
	 SCS Same-Spin Energy      =      -0.1861372289473527 [Eh]
	 SCS Opposite-Spin Energy  =      -2.0928323662037140 [Eh]
	 SCS Correlation Energy    =      -2.2789695951510667 [Eh]
	 SCS Total Energy          =    -516.8735185131334902 [Eh]
	-----------------------------------------------------------

  Dipole Moment: [D]
     X:     0.2902      Y:    -3.3706      Z:     1.6194     Total:     3.7506

*** Psi4 exiting successfully. Buy a developer a beer!
