                               Psi4 1.3.2 release

  ==> Input File <==

--------------------------------------------------------------------------
#psi4
#
memory 32 gb

molecule  {
0 1
  O        0.9417500     2.5148810    -0.6596880
  N        2.0463840     0.6978680     0.1749460
  C        0.7564320    -1.5550710    -0.8733250
  C        1.9564374    -1.8207813     0.2742996
  C       -0.4497480    -0.7926040    -0.3845090
  C        2.0266990    -0.4897580     1.0228720
  C       -0.3650830     0.5850230    -0.0943830
  C        0.9119250     1.3593610    -0.2260870
  C       -1.6913630    -1.4231620    -0.2398970
  C       -1.5035900     1.3035830     0.2885800
  C       -2.8212120    -0.7143780     0.1714760
  C       -2.7281430     0.6547360     0.4326570
  H        0.4383490    -2.5216720    -1.2799980
  H        1.2165960    -1.0011160    -1.6986390
  H        1.5065410    -2.5704870     0.9013410
  H        2.7543720    -2.0878480    -0.2534440
  H        1.2290340    -0.3883270     1.7666860
  H        2.9729880    -0.5259550     1.5704730
  H        2.8793190     1.2773810     0.1528780
  H       -1.7755450    -2.4842720    -0.4701710
  H       -1.4080790     2.3720960     0.4641940
  H       -3.7741480    -1.2278540     0.2772780
  H       -3.6082280     1.2145190     0.7397060
units angstrom
no_reorient  #important for SAPT in psi4, default
symmetry c1  #important for SAPT in psi4, default
}

set PROPERTIES_ORIGIN ["COM"]
properties('MP2/aug-cc-pvtz', properties = ['dipole'])
--------------------------------------------------------------------------

    Molecular point group: c1
  Charge       = 0
  Multiplicity = 1
  Basis Set: AUG-CC-PVTZ
    Blend: AUG-CC-PVTZ
  Basis Set: (AUG-CC-PVTZ AUX)
    Blend: AUG-CC-PVTZ-JKFIT

    Orbital Energies [Eh]
    ---------------------

    Doubly Occupied:

       1A    -20.515097     2A    -15.583754     3A    -11.351465
       4A    -11.277263     5A    -11.258644     6A    -11.248449
       7A    -11.246603     8A    -11.245072     9A    -11.242569
      10A    -11.241332    11A    -11.239398    12A    -11.236702
      13A     -1.368995    14A     -1.233780    15A     -1.162951
      16A     -1.070362    17A     -1.037164    18A     -1.022038
      19A     -0.930915    20A     -0.883509    21A     -0.847145
      22A     -0.801972    23A     -0.775602    24A     -0.697141
      25A     -0.685770    26A     -0.671550    27A     -0.651749
      28A     -0.623839    29A     -0.619912    30A     -0.600866
      31A     -0.586993    32A     -0.573290    33A     -0.560764
      34A     -0.539327    35A     -0.522680    36A     -0.508269
      37A     -0.495387    38A     -0.488789    39A     -0.456424
      40A     -0.423339    41A     -0.391129    42A     -0.343521
      43A     -0.332519

  @DF-RHF Final Energy:  -514.57446981134865

   => Energetics <=

    Nuclear Repulsion Energy =            682.5380235328851768
    One-Electron Energy =               -2053.0369131565648786
    Two-Electron Energy =                 855.9244198123309388
    Total Energy =                       -514.5744698113486493
  Basis Set: (AUG-CC-PVTZ AUX)
    Blend: AUG-CC-PVTZ-RI
    Molecular point group: c1

    Geometry (in Angstrom), charge = 0, multiplicity = 1:

       Center              X                  Y                   Z               Mass
    ------------   -----------------  -----------------  -----------------  -----------------
         O            0.946236145526     2.469716413724    -0.650659288431    15.994914619570
         N            2.050870145526     0.652703413724     0.183974711569    14.003074004430
         C            0.760918145526    -1.600235586276    -0.864296288431    12.000000000000
         C            1.960923545526    -1.865945886276     0.283328311569    12.000000000000
         C           -0.445261854474    -0.837768586276    -0.375480288431    12.000000000000
         C            2.031185145526    -0.534922586276     1.031900711569    12.000000000000
         C           -0.360596854474     0.539858413724    -0.085354288431    12.000000000000
         C            0.916411145526     1.314196413724    -0.217058288431    12.000000000000
         C           -1.686876854474    -1.468326586276    -0.230868288431    12.000000000000
         C           -1.499103854474     1.258418413724     0.297608711569    12.000000000000
         C           -2.816725854474    -0.759542586276     0.180504711569    12.000000000000
         C           -2.723656854474     0.609571413724     0.441685711569    12.000000000000
         H            0.442835145526    -2.566836586276    -1.270969288431     1.007825032230
         H            1.221082145526    -1.046280586276    -1.689610288431     1.007825032230
         H            1.511027145526    -2.615651586276     0.910369711569     1.007825032230
         H            2.758858145526    -2.133012586276    -0.244415288431     1.007825032230
         H            1.233520145526    -0.433491586276     1.775714711569     1.007825032230
         H            2.977474145526    -0.571119586276     1.579501711569     1.007825032230
         H            2.883805145526     1.232216413724     0.161906711569     1.007825032230
         H           -1.771058854474    -2.529436586276    -0.461142288431     1.007825032230
         H           -1.403592854474     2.326931413724     0.473222711569     1.007825032230
         H           -3.769661854474    -1.273018586276     0.286306711569     1.007825032230
         H           -3.603741854474     1.169354413724     0.748734711569     1.007825032230

  Basis Set: AUG-CC-PVTZ
    Blend: AUG-CC-PVTZ
  Basis Set: (AUG-CC-PVTZ AUX)
    Blend: AUG-CC-PVTZ-JKFIT
	 Reference Energy          =    -514.5744698113486493 [Eh]
	 Singles Energy            =      -0.0000000000000000 [Eh]
	 Same-Spin Energy          =      -0.5588212736579914 [Eh]
	 Opposite-Spin Energy      =      -1.7453371712454404 [Eh]
	 Correlation Energy        =      -2.3041584449034316 [Eh]
	 Total Energy              =    -516.8786282562521137 [Eh]

	 ================> DF-SCS-MP2 Energies <==================
	-----------------------------------------------------------
	 SCS Same-Spin Scale       =       0.3333333333333333 [-]
	 SCS Opposite-Spin Scale   =       1.2000000000000000 [-]
	 SCS Same-Spin Energy      =      -0.1862737578859971 [Eh]
	 SCS Opposite-Spin Energy  =      -2.0944046054945282 [Eh]
	 SCS Correlation Energy    =      -2.2806783633805252 [Eh]
	 SCS Total Energy          =    -516.8551481747291518 [Eh]
	-----------------------------------------------------------

  Dipole Moment: [D]
     X:     0.6736      Y:    -3.6374      Z:     1.7682     Total:     4.1001

*** Psi4 exiting successfully. Buy a developer a beer!
