                               Psi4 1.4a3.dev225

  ==> Input File <==

--------------------------------------------------------------------------
#psi4
#
memory 32 gb

molecule  {
0 1
  O        0.9417500     2.5148810    -0.6596880
  N        2.0463840     0.6978680     0.1749460
  C        0.7564320    -1.5550710    -0.8733250
  C        1.8157710    -1.7711630     0.2163790
  C       -0.4097650    -0.8178786    -0.4007125
  C        2.0266990    -0.4897580     1.0228720
  C       -0.3650830     0.5850230    -0.0943830
  C        0.9119250     1.3593610    -0.2260870
  C       -1.6913630    -1.4231620    -0.2398970
  C       -1.5035900     1.3035830     0.2885800
  C       -2.8212120    -0.7143780     0.1714760
  C       -2.7281430     0.6547360     0.4326570
  H        0.4383490    -2.5216720    -1.2799980
  H        1.2165960    -1.0011160    -1.6986390
  H        1.5065410    -2.5704870     0.9013410
  H        2.7543720    -2.0878480    -0.2534440
  H        1.2290340    -0.3883270     1.7666860
  H        2.9729880    -0.5259550     1.5704730
  H        2.8793190     1.2773810     0.1528780
  H       -1.7755450    -2.4842720    -0.4701710
  H       -1.4080790     2.3720960     0.4641940
  H       -3.7741480    -1.2278540     0.2772780
  H       -3.6082280     1.2145190     0.7397060
units angstrom
no_reorient  #important for SAPT in psi4, default
symmetry c1  #important for SAPT in psi4, default
}

set PROPERTIES_ORIGIN ["COM"]
properties('MP2/aug-cc-pvtz', properties = ['dipole'])
--------------------------------------------------------------------------

    Molecular point group: c1
  Charge       = 0
  Multiplicity = 1
  Basis Set: AUG-CC-PVTZ
    Blend: AUG-CC-PVTZ
  Basis Set: (AUG-CC-PVTZ AUX)
    Blend: AUG-CC-PVTZ-JKFIT

    Orbital Energies [Eh]
    ---------------------

    Doubly Occupied:

       1A    -20.514249     2A    -15.582642     3A    -11.350106
       4A    -11.276165     5A    -11.262228     6A    -11.249573
       7A    -11.248797     8A    -11.245689     9A    -11.244600
      10A    -11.240194    11A    -11.239359    12A    -11.237883
      13A     -1.368326    14A     -1.234961    15A     -1.160908
      16A     -1.088407    17A     -1.035009    18A     -1.019398
      19A     -0.940297    20A     -0.881982    21A     -0.842602
      22A     -0.796552    23A     -0.773930    24A     -0.696719
      25A     -0.686468    26A     -0.673650    27A     -0.653555
      28A     -0.622306    29A     -0.616683    30A     -0.599425
      31A     -0.588171    32A     -0.575831    33A     -0.558968
      34A     -0.537085    35A     -0.520450    36A     -0.507932
      37A     -0.491529    38A     -0.488065    39A     -0.484562
      40A     -0.421407    41A     -0.389411    42A     -0.343081
      43A     -0.331545

  @DF-RHF Final Energy:  -514.59185338591146

   => Energetics <=

    Nuclear Repulsion Energy =            684.9355847275193128
    One-Electron Energy =               -2057.8134819653146224
    Two-Electron Energy =                 858.2860438518839601
    Total Energy =                       -514.5918533859114632
  Basis Set: (AUG-CC-PVTZ AUX)
    Blend: AUG-CC-PVTZ-RI
    Molecular point group: c1

    Geometry (in Angstrom), charge = 0, multiplicity = 1:

       Center              X                  Y                   Z               Mass
    ------------   -----------------  -----------------  -----------------  -----------------
         O            0.953736582070     2.467902923346    -0.645137393974    15.994914619570
         N            2.058370582070     0.650889923346     0.189496606026    14.003074004430
         C            0.768418582070    -1.602049076654    -0.858774393974    12.000000000000
         C            1.827757582070    -1.818141076654     0.230929606026    12.000000000000
         C           -0.397778417930    -0.864856676654    -0.386161893974    12.000000000000
         C            2.038685582070    -0.536736076654     1.037422606026    12.000000000000
         C           -0.353096417930     0.538044923346    -0.079832393974    12.000000000000
         C            0.923911582070     1.312382923346    -0.211536393974    12.000000000000
         C           -1.679376417930    -1.470140076654    -0.225346393974    12.000000000000
         C           -1.491603417930     1.256604923346     0.303130606026    12.000000000000
         C           -2.809225417930    -0.761356076654     0.186026606026    12.000000000000
         C           -2.716156417930     0.607757923346     0.447207606026    12.000000000000
         H            0.450335582070    -2.568650076654    -1.265447393974     1.007825032230
         H            1.228582582070    -1.048094076654    -1.684088393974     1.007825032230
         H            1.518527582070    -2.617465076654     0.915891606026     1.007825032230
         H            2.766358582070    -2.134826076654    -0.238893393974     1.007825032230
         H            1.241020582070    -0.435305076654     1.781236606026     1.007825032230
         H            2.984974582070    -0.572933076654     1.585023606026     1.007825032230
         H            2.891305582070     1.230402923346     0.167428606026     1.007825032230
         H           -1.763558417930    -2.531250076654    -0.455620393974     1.007825032230
         H           -1.396092417930     2.325117923346     0.478744606026     1.007825032230
         H           -3.762161417930    -1.274832076654     0.291828606026     1.007825032230
         H           -3.596241417930     1.167540923346     0.754256606026     1.007825032230

  Basis Set: AUG-CC-PVTZ
    Blend: AUG-CC-PVTZ
  Basis Set: (AUG-CC-PVTZ AUX)
    Blend: AUG-CC-PVTZ-JKFIT
	 Reference Energy          =    -514.5918533859114632 [Eh]
	 Singles Energy            =      -0.0000000000000000 [Eh]
	 Same-Spin Energy          =      -0.5594037634031828 [Eh]
	 Opposite-Spin Energy      =      -1.7454285931994331 [Eh]
	 Correlation Energy        =      -2.3048323566026161 [Eh]
	 Total Energy              =    -516.8966857425140233 [Eh]

	 ================> DF-SCS-MP2 Energies <==================
	-----------------------------------------------------------
	 SCS Same-Spin Scale       =       0.3333333333333333 [-]
	 SCS Opposite-Spin Scale   =       1.2000000000000000 [-]
	 SCS Same-Spin Energy      =      -0.1864679211343943 [Eh]
	 SCS Opposite-Spin Energy  =      -2.0945143118393195 [Eh]
	 SCS Correlation Energy    =      -2.2809822329737135 [Eh]
	 SCS Total Energy          =    -516.8728356188852331 [Eh]
	-----------------------------------------------------------

  Dipole Moment: [D]
     X:     0.6674      Y:    -3.6431      Z:     1.7587     Total:     4.1001

*** Psi4 exiting successfully. Buy a developer a beer!
