                               Psi4 1.3.2 release

  ==> Input File <==

--------------------------------------------------------------------------
#psi4
#
memory 32 gb

molecule  {
0 1
  O        0.9417500     2.5148810    -0.6596880
  N        2.0463840     0.6978680     0.1749460
  C        0.7564320    -1.5550710    -0.8733250
  C        1.8157710    -1.7711630     0.2163790
  C       -0.5090290    -0.8740771    -0.4150424
  C        2.0266990    -0.4897580     1.0228720
  C       -0.3650830     0.5850230    -0.0943830
  C        0.9119250     1.3593610    -0.2260870
  C       -1.6913630    -1.4231620    -0.2398970
  C       -1.5035900     1.3035830     0.2885800
  C       -2.8212120    -0.7143780     0.1714760
  C       -2.7281430     0.6547360     0.4326570
  H        0.4383490    -2.5216720    -1.2799980
  H        1.2165960    -1.0011160    -1.6986390
  H        1.5065410    -2.5704870     0.9013410
  H        2.7543720    -2.0878480    -0.2534440
  H        1.2290340    -0.3883270     1.7666860
  H        2.9729880    -0.5259550     1.5704730
  H        2.8793190     1.2773810     0.1528780
  H       -1.7755450    -2.4842720    -0.4701710
  H       -1.4080790     2.3720960     0.4641940
  H       -3.7741480    -1.2278540     0.2772780
  H       -3.6082280     1.2145190     0.7397060
units angstrom
no_reorient  #important for SAPT in psi4, default
symmetry c1  #important for SAPT in psi4, default
}

set PROPERTIES_ORIGIN ["COM"]
properties('MP2/aug-cc-pvtz', properties = ['dipole'])
--------------------------------------------------------------------------

    Molecular point group: c1
  Charge       = 0
  Multiplicity = 1
  Basis Set: AUG-CC-PVTZ
    Blend: AUG-CC-PVTZ
  Basis Set: (AUG-CC-PVTZ AUX)
    Blend: AUG-CC-PVTZ-JKFIT

    Orbital Energies [Eh]
    ---------------------

    Doubly Occupied:

       1A    -20.514860     2A    -15.582173     3A    -11.352163
       4A    -11.275583     5A    -11.256412     6A    -11.252648
       7A    -11.249987     8A    -11.246184     9A    -11.240818
      10A    -11.239312    11A    -11.238635    12A    -11.232396
      13A     -1.368564    14A     -1.233726    15A     -1.165353
      16A     -1.082449    17A     -1.033766    18A     -1.025957
      19A     -0.939130    20A     -0.886073    21A     -0.838263
      22A     -0.795131    23A     -0.775485    24A     -0.699349
      25A     -0.684694    26A     -0.671674    27A     -0.651599
      28A     -0.622512    29A     -0.615102    30A     -0.600908
      31A     -0.586495    32A     -0.577604    33A     -0.555210
      34A     -0.536440    35A     -0.523019    36A     -0.509535
      37A     -0.491592    38A     -0.491144    39A     -0.468831
      40A     -0.423859    41A     -0.388910    42A     -0.353190
      43A     -0.329794

  @DF-RHF Final Energy:  -514.58369985237073

   => Energetics <=

    Nuclear Repulsion Energy =            684.2041501406976067
    One-Electron Energy =               -2056.3626430540225556
    Two-Electron Energy =                 857.5747930609543346
    Total Energy =                       -514.5836998523707280
  Basis Set: (AUG-CC-PVTZ AUX)
    Blend: AUG-CC-PVTZ-RI
    Molecular point group: c1

    Geometry (in Angstrom), charge = 0, multiplicity = 1:

       Center              X                  Y                   Z               Mass
    ------------   -----------------  -----------------  -----------------  -----------------
         O            0.961131280034     2.472089445485    -0.644069884279    15.994914619570
         N            2.065765280034     0.655076445485     0.190564115721    14.003074004430
         C            0.775813280034    -1.597862554515    -0.857706884279    12.000000000000
         C            1.835152280034    -1.813954554515     0.231997115721    12.000000000000
         C           -0.489647719966    -0.916868654515    -0.399424284279    12.000000000000
         C            2.046080280034    -0.532549554515     1.038490115721    12.000000000000
         C           -0.345701719966     0.542231445485    -0.078764884279    12.000000000000
         C            0.931306280034     1.316569445485    -0.210468884279    12.000000000000
         C           -1.671981719966    -1.465953554515    -0.224278884279    12.000000000000
         C           -1.484208719966     1.260791445485     0.304198115721    12.000000000000
         C           -2.801830719966    -0.757169554515     0.187094115721    12.000000000000
         C           -2.708761719966     0.611944445485     0.448275115721    12.000000000000
         H            0.457730280034    -2.564463554515    -1.264379884279     1.007825032230
         H            1.235977280034    -1.043907554515    -1.683020884279     1.007825032230
         H            1.525922280034    -2.613278554515     0.916959115721     1.007825032230
         H            2.773753280034    -2.130639554515    -0.237825884279     1.007825032230
         H            1.248415280034    -0.431118554515     1.782304115721     1.007825032230
         H            2.992369280034    -0.568746554515     1.586091115721     1.007825032230
         H            2.898700280034     1.234589445485     0.168496115721     1.007825032230
         H           -1.756163719966    -2.527063554515    -0.454552884279     1.007825032230
         H           -1.388697719966     2.329304445485     0.479812115721     1.007825032230
         H           -3.754766719966    -1.270645554515     0.292896115721     1.007825032230
         H           -3.588846719966     1.171727445485     0.755324115721     1.007825032230

  Basis Set: AUG-CC-PVTZ
    Blend: AUG-CC-PVTZ
  Basis Set: (AUG-CC-PVTZ AUX)
    Blend: AUG-CC-PVTZ-JKFIT
	 Reference Energy          =    -514.5836998523707280 [Eh]
	 Singles Energy            =      -0.0000000000000000 [Eh]
	 Same-Spin Energy          =      -0.5583060798218348 [Eh]
	 Opposite-Spin Energy      =      -1.7447872091591856 [Eh]
	 Correlation Energy        =      -2.3030932889810205 [Eh]
	 Total Energy              =    -516.8867931413517454 [Eh]

	 ================> DF-SCS-MP2 Energies <==================
	-----------------------------------------------------------
	 SCS Same-Spin Scale       =       0.3333333333333333 [-]
	 SCS Opposite-Spin Scale   =       1.2000000000000000 [-]
	 SCS Same-Spin Energy      =      -0.1861020266072783 [Eh]
	 SCS Opposite-Spin Energy  =      -2.0937446509910225 [Eh]
	 SCS Correlation Energy    =      -2.2798466775983006 [Eh]
	 SCS Total Energy          =    -516.8635465299690850 [Eh]
	-----------------------------------------------------------

  Dipole Moment: [D]
     X:     0.6378      Y:    -3.5868      Z:     1.7900     Total:     4.0591

*** Psi4 exiting successfully. Buy a developer a beer!
