                               Psi4 1.3.2 release

  ==> Input File <==

--------------------------------------------------------------------------
#psi4
#
memory 32 gb

molecule  {
0 1
  O        0.9417500     2.5148810    -0.6596880
  N        2.0463840     0.6978680     0.1749460
  C        0.7564320    -1.5550710    -0.8733250
  C        1.8157710    -1.7711630     0.2163790
  C       -0.4497480    -0.7926040    -0.3845090
  C        2.0266990    -0.4897580     1.0228720
  C       -0.2219895     0.5757096    -0.1294769
  C        0.9119250     1.3593610    -0.2260870
  C       -1.6913630    -1.4231620    -0.2398970
  C       -1.5035900     1.3035830     0.2885800
  C       -2.8212120    -0.7143780     0.1714760
  C       -2.7281430     0.6547360     0.4326570
  H        0.4383490    -2.5216720    -1.2799980
  H        1.2165960    -1.0011160    -1.6986390
  H        1.5065410    -2.5704870     0.9013410
  H        2.7543720    -2.0878480    -0.2534440
  H        1.2290340    -0.3883270     1.7666860
  H        2.9729880    -0.5259550     1.5704730
  H        2.8793190     1.2773810     0.1528780
  H       -1.7755450    -2.4842720    -0.4701710
  H       -1.4080790     2.3720960     0.4641940
  H       -3.7741480    -1.2278540     0.2772780
  H       -3.6082280     1.2145190     0.7397060
units angstrom
no_reorient  #important for SAPT in psi4, default
symmetry c1  #important for SAPT in psi4, default
}

set PROPERTIES_ORIGIN ["COM"]
properties('MP2/aug-cc-pvtz', properties = ['dipole'])
--------------------------------------------------------------------------

    Molecular point group: c1
  Charge       = 0
  Multiplicity = 1
  Basis Set: AUG-CC-PVTZ
    Blend: AUG-CC-PVTZ
  Basis Set: (AUG-CC-PVTZ AUX)
    Blend: AUG-CC-PVTZ-JKFIT

    Orbital Energies [Eh]
    ---------------------

    Doubly Occupied:

       1A    -20.512165     2A    -15.579003     3A    -11.343365
       4A    -11.274323     5A    -11.265741     6A    -11.262325
       7A    -11.256713     8A    -11.249002     9A    -11.244254
      10A    -11.241572    11A    -11.237393    12A    -11.236223
      13A     -1.370130    14A     -1.236171    15A     -1.158095
      16A     -1.082078    17A     -1.045869    18A     -1.015597
      19A     -0.936537    20A     -0.901056    21A     -0.839832
      22A     -0.796865    23A     -0.773309    24A     -0.702572
      25A     -0.684041    26A     -0.680318    27A     -0.652760
      28A     -0.624672    29A     -0.616189    30A     -0.593645
      31A     -0.585106    32A     -0.575173    33A     -0.557830
      34A     -0.534391    35A     -0.523467    36A     -0.514869
      37A     -0.487786    38A     -0.485766    39A     -0.462264
      40A     -0.428878    41A     -0.387737    42A     -0.343221
      43A     -0.333421

  @DF-RHF Final Energy:  -514.56651393359994

   => Energetics <=

    Nuclear Repulsion Energy =            685.6839280351113075
    One-Electron Energy =               -2059.2374344613758694
    Two-Electron Energy =                 858.9869924926645126
    Total Energy =                       -514.5665139335999356
  Basis Set: (AUG-CC-PVTZ AUX)
    Blend: AUG-CC-PVTZ-RI
    Molecular point group: c1

    Geometry (in Angstrom), charge = 0, multiplicity = 1:

       Center              X                  Y                   Z               Mass
    ------------   -----------------  -----------------  -----------------  -----------------
         O            0.946055338069     2.466713889526    -0.643730148624    15.994914619570
         N            2.050689338069     0.649700889526     0.190903851376    14.003074004430
         C            0.760737338069    -1.603238110474    -0.857367148624    12.000000000000
         C            1.820076338069    -1.819330110474     0.232336851376    12.000000000000
         C           -0.445442661931    -0.840771110474    -0.368551148624    12.000000000000
         C            2.031004338069    -0.537925110474     1.038829851376    12.000000000000
         C           -0.217684161931     0.527542489526    -0.113519048624    12.000000000000
         C            0.916230338069     1.311193889526    -0.210129148624    12.000000000000
         C           -1.687057661931    -1.471329110474    -0.223939148624    12.000000000000
         C           -1.499284661931     1.255415889526     0.304537851376    12.000000000000
         C           -2.816906661931    -0.762545110474     0.187433851376    12.000000000000
         C           -2.723837661931     0.606568889526     0.448614851376    12.000000000000
         H            0.442654338069    -2.569839110474    -1.264040148624     1.007825032230
         H            1.220901338069    -1.049283110474    -1.682681148624     1.007825032230
         H            1.510846338069    -2.618654110474     0.917298851376     1.007825032230
         H            2.758677338069    -2.136015110474    -0.237486148624     1.007825032230
         H            1.233339338069    -0.436494110474     1.782643851376     1.007825032230
         H            2.977293338069    -0.574122110474     1.586430851376     1.007825032230
         H            2.883624338069     1.229213889526     0.168835851376     1.007825032230
         H           -1.771239661931    -2.532439110474    -0.454213148624     1.007825032230
         H           -1.403773661931     2.323928889526     0.480151851376     1.007825032230
         H           -3.769842661931    -1.276021110474     0.293235851376     1.007825032230
         H           -3.603922661931     1.166351889526     0.755663851376     1.007825032230

  Basis Set: AUG-CC-PVTZ
    Blend: AUG-CC-PVTZ
  Basis Set: (AUG-CC-PVTZ AUX)
    Blend: AUG-CC-PVTZ-JKFIT
	 Reference Energy          =    -514.5665139335999356 [Eh]
	 Singles Energy            =      -0.0000000000000000 [Eh]
	 Same-Spin Energy          =      -0.5607113497662287 [Eh]
	 Opposite-Spin Energy      =      -1.7483595683379702 [Eh]
	 Correlation Energy        =      -2.3090709181041991 [Eh]
	 Total Energy              =    -516.8755848517041613 [Eh]

	 ================> DF-SCS-MP2 Energies <==================
	-----------------------------------------------------------
	 SCS Same-Spin Scale       =       0.3333333333333333 [-]
	 SCS Opposite-Spin Scale   =       1.2000000000000000 [-]
	 SCS Same-Spin Energy      =      -0.1869037832554096 [Eh]
	 SCS Opposite-Spin Energy  =      -2.0980314820055641 [Eh]
	 SCS Correlation Energy    =      -2.2849352652609736 [Eh]
	 SCS Total Energy          =    -516.8514491988609052 [Eh]
	-----------------------------------------------------------

  Dipole Moment: [D]
     X:     0.3929      Y:    -3.7286      Z:     1.7858     Total:     4.1528

*** Psi4 exiting successfully. Buy a developer a beer!
