                               Psi4 1.3.2 release

  ==> Input File <==

--------------------------------------------------------------------------
#psi4
#
memory 32 gb

molecule  {
0 1
  O        0.9417500     2.5148810    -0.6596880
  N        2.0463840     0.6978680     0.1749460
  C        0.7564320    -1.5550710    -0.8733250
  C        1.8157710    -1.7711630     0.2163790
  C       -0.3530887    -0.7911102    -0.4031080
  C        2.0266990    -0.4897580     1.0228720
  C       -0.3650830     0.5850230    -0.0943830
  C        0.9119250     1.3593610    -0.2260870
  C       -1.6913630    -1.4231620    -0.2398970
  C       -1.5035900     1.3035830     0.2885800
  C       -2.8212120    -0.7143780     0.1714760
  C       -2.7281430     0.6547360     0.4326570
  H        0.4383490    -2.5216720    -1.2799980
  H        1.2165960    -1.0011160    -1.6986390
  H        1.5065410    -2.5704870     0.9013410
  H        2.7543720    -2.0878480    -0.2534440
  H        1.2290340    -0.3883270     1.7666860
  H        2.9729880    -0.5259550     1.5704730
  H        2.8793190     1.2773810     0.1528780
  H       -1.7755450    -2.4842720    -0.4701710
  H       -1.4080790     2.3720960     0.4641940
  H       -3.7741480    -1.2278540     0.2772780
  H       -3.6082280     1.2145190     0.7397060
units angstrom
no_reorient  #important for SAPT in psi4, default
symmetry c1  #important for SAPT in psi4, default
}

set PROPERTIES_ORIGIN ["COM"]
properties('MP2/aug-cc-pvtz', properties = ['dipole'])
--------------------------------------------------------------------------

    Molecular point group: c1
  Charge       = 0
  Multiplicity = 1
  Basis Set: AUG-CC-PVTZ
    Blend: AUG-CC-PVTZ
  Basis Set: (AUG-CC-PVTZ AUX)
    Blend: AUG-CC-PVTZ-JKFIT

    Orbital Energies [Eh]
    ---------------------

    Doubly Occupied:

       1A    -20.513623     2A    -15.582844     3A    -11.348619
       4A    -11.276623     5A    -11.265071     6A    -11.250179
       7A    -11.248133     8A    -11.247692     9A    -11.245271
      10A    -11.240136    11A    -11.240017    12A    -11.237420
      13A     -1.367968    14A     -1.235771    15A     -1.159636
      16A     -1.092976    17A     -1.037726    18A     -1.014720
      19A     -0.941564    20A     -0.880099    21A     -0.844875
      22A     -0.797740    23A     -0.771535    24A     -0.695436
      25A     -0.687879    26A     -0.674748    27A     -0.654773
      28A     -0.626617    29A     -0.614512    30A     -0.598855
      31A     -0.588811    32A     -0.574392    33A     -0.561026
      34A     -0.538338    35A     -0.521068    36A     -0.506547
      37A     -0.497676    38A     -0.486190    39A     -0.481228
      40A     -0.418721    41A     -0.389635    42A     -0.345005
      43A     -0.326157

  @DF-RHF Final Energy:  -514.58228676129170

   => Energetics <=

    Nuclear Repulsion Energy =            685.3358975596448772
    One-Electron Energy =               -2058.5806697214284213
    Two-Electron Energy =                 858.6624854004919598
    Total Energy =                       -514.5822867612916980
  Basis Set: (AUG-CC-PVTZ AUX)
    Blend: AUG-CC-PVTZ-RI
    Molecular point group: c1

    Geometry (in Angstrom), charge = 0, multiplicity = 1:

       Center              X                  Y                   Z               Mass
    ------------   -----------------  -----------------  -----------------  -----------------
         O            0.949514466094     2.465908804300    -0.644958940567    15.994914619570
         N            2.054148466094     0.648895804300     0.189675059433    14.003074004430
         C            0.764196466094    -1.604043195700    -0.858595940567    12.000000000000
         C            1.823535466094    -1.820135195700     0.231108059433    12.000000000000
         C           -0.345324233906    -0.840082395700    -0.388378940567    12.000000000000
         C            2.034463466094    -0.538730195700     1.037601059433    12.000000000000
         C           -0.357318533906     0.536050804300    -0.079653940567    12.000000000000
         C            0.919689466094     1.310388804300    -0.211357940567    12.000000000000
         C           -1.683598533906    -1.472134195700    -0.225167940567    12.000000000000
         C           -1.495825533906     1.254610804300     0.303309059433    12.000000000000
         C           -2.813447533906    -0.763350195700     0.186205059433    12.000000000000
         C           -2.720378533906     0.605763804300     0.447386059433    12.000000000000
         H            0.446113466094    -2.570644195700    -1.265268940567     1.007825032230
         H            1.224360466094    -1.050088195700    -1.683909940567     1.007825032230
         H            1.514305466094    -2.619459195700     0.916070059433     1.007825032230
         H            2.762136466094    -2.136820195700    -0.238714940567     1.007825032230
         H            1.236798466094    -0.437299195700     1.781415059433     1.007825032230
         H            2.980752466094    -0.574927195700     1.585202059433     1.007825032230
         H            2.887083466094     1.228408804300     0.167607059433     1.007825032230
         H           -1.767780533906    -2.533244195700    -0.455441940567     1.007825032230
         H           -1.400314533906     2.323123804300     0.478923059433     1.007825032230
         H           -3.766383533906    -1.276826195700     0.292007059433     1.007825032230
         H           -3.600463533906     1.165546804300     0.754435059433     1.007825032230

  Basis Set: AUG-CC-PVTZ
    Blend: AUG-CC-PVTZ
  Basis Set: (AUG-CC-PVTZ AUX)
    Blend: AUG-CC-PVTZ-JKFIT
	 Reference Energy          =    -514.5822867612916980 [Eh]
	 Singles Energy            =      -0.0000000000000000 [Eh]
	 Same-Spin Energy          =      -0.5600100587543568 [Eh]
	 Opposite-Spin Energy      =      -1.7465487144236962 [Eh]
	 Correlation Energy        =      -2.3065587731780530 [Eh]
	 Total Energy              =    -516.8888455344697377 [Eh]

	 ================> DF-SCS-MP2 Energies <==================
	-----------------------------------------------------------
	 SCS Same-Spin Scale       =       0.3333333333333333 [-]
	 SCS Opposite-Spin Scale   =       1.2000000000000000 [-]
	 SCS Same-Spin Energy      =      -0.1866700195847856 [Eh]
	 SCS Opposite-Spin Energy  =      -2.0958584573084353 [Eh]
	 SCS Correlation Energy    =      -2.2825284768932210 [Eh]
	 SCS Total Energy          =    -516.8648152381849741 [Eh]
	-----------------------------------------------------------

  Dipole Moment: [D]
     X:     0.7017      Y:    -3.6794      Z:     1.7429     Total:     4.1313

*** Psi4 exiting successfully. Buy a developer a beer!
