                               Psi4 1.3.2 release

  ==> Input File <==

--------------------------------------------------------------------------
#psi4
#
memory 32 gb

molecule  {
0 1
  O        0.9417500     2.5148810    -0.6596880
  N        2.0463840     0.6978680     0.1749460
  C        0.7564320    -1.5550710    -0.8733250
  C        1.8157710    -1.7711630     0.2163790
  C       -0.4497480    -0.7926040    -0.3845090
  C        1.9317761    -0.5071130     0.9902418
  C       -0.3650830     0.5850230    -0.0943830
  C        0.9119250     1.3593610    -0.2260870
  C       -1.6913630    -1.4231620    -0.2398970
  C       -1.5035900     1.3035830     0.2885800
  C       -2.8212120    -0.7143780     0.1714760
  C       -2.7281430     0.6547360     0.4326570
  H        0.4383490    -2.5216720    -1.2799980
  H        1.2165960    -1.0011160    -1.6986390
  H        1.5065410    -2.5704870     0.9013410
  H        2.7543720    -2.0878480    -0.2534440
  H        1.2290340    -0.3883270     1.7666860
  H        2.9729880    -0.5259550     1.5704730
  H        2.8793190     1.2773810     0.1528780
  H       -1.7755450    -2.4842720    -0.4701710
  H       -1.4080790     2.3720960     0.4641940
  H       -3.7741480    -1.2278540     0.2772780
  H       -3.6082280     1.2145190     0.7397060
units angstrom
no_reorient  #important for SAPT in psi4, default
symmetry c1  #important for SAPT in psi4, default
}

set PROPERTIES_ORIGIN ["COM"]
properties('MP2/aug-cc-pvtz', properties = ['dipole'])
--------------------------------------------------------------------------

    Molecular point group: c1
  Charge       = 0
  Multiplicity = 1
  Basis Set: AUG-CC-PVTZ
    Blend: AUG-CC-PVTZ
  Basis Set: (AUG-CC-PVTZ AUX)
    Blend: AUG-CC-PVTZ-JKFIT

    Orbital Energies [Eh]
    ---------------------

    Doubly Occupied:

       1A    -20.514504     2A    -15.583682     3A    -11.349777
       4A    -11.278895     5A    -11.258658     6A    -11.249173
       7A    -11.247676     8A    -11.245928     9A    -11.242372
      10A    -11.240367    11A    -11.238858    12A    -11.237623
      13A     -1.368906    14A     -1.237109    15A     -1.164689
      16A     -1.087286    17A     -1.037199    18A     -1.023155
      19A     -0.937065    20A     -0.880131    21A     -0.843370
      22A     -0.799409    23A     -0.777521    24A     -0.697351
      25A     -0.690917    26A     -0.673029    27A     -0.648180
      28A     -0.627387    29A     -0.614951    30A     -0.602879
      31A     -0.585632    32A     -0.579435    33A     -0.556767
      34A     -0.533922    35A     -0.520775    36A     -0.509714
      37A     -0.491536    38A     -0.487967    39A     -0.472104
      40A     -0.421542    41A     -0.393399    42A     -0.344085
      43A     -0.336754

  @DF-RHF Final Energy:  -514.58424224104692

   => Energetics <=

    Nuclear Repulsion Energy =            686.6899226152152096
    One-Electron Energy =               -2061.2849675283023316
    Two-Electron Energy =                 860.0108026720401995
    Total Energy =                       -514.5842422410469226
  Basis Set: (AUG-CC-PVTZ AUX)
    Blend: AUG-CC-PVTZ-RI
    Molecular point group: c1

    Geometry (in Angstrom), charge = 0, multiplicity = 1:

       Center              X                  Y                   Z               Mass
    ------------   -----------------  -----------------  -----------------  -----------------
         O            0.963786432812     2.467312950647    -0.643913682608    15.994914619570
         N            2.068420432812     0.650299950647     0.190720317392    14.003074004430
         C            0.778468432812    -1.602639049353    -0.857550682608    12.000000000000
         C            1.837807432812    -1.818731049353     0.232153317392    12.000000000000
         C           -0.427711567188    -0.840172049353    -0.368734682608    12.000000000000
         C            1.953812532812    -0.554681049353     1.006016117392    12.000000000000
         C           -0.343046567188     0.537454950647    -0.078608682608    12.000000000000
         C            0.933961432812     1.311792950647    -0.210312682608    12.000000000000
         C           -1.669326567188    -1.470730049353    -0.224122682608    12.000000000000
         C           -1.481553567188     1.256014950647     0.304354317392    12.000000000000
         C           -2.799175567188    -0.761946049353     0.187250317392    12.000000000000
         C           -2.706106567188     0.607167950647     0.448431317392    12.000000000000
         H            0.460385432812    -2.569240049353    -1.264223682608     1.007825032230
         H            1.238632432812    -1.048684049353    -1.682864682608     1.007825032230
         H            1.528577432812    -2.618055049353     0.917115317392     1.007825032230
         H            2.776408432812    -2.135416049353    -0.237669682608     1.007825032230
         H            1.251070432812    -0.435895049353     1.782460317392     1.007825032230
         H            2.995024432812    -0.573523049353     1.586247317392     1.007825032230
         H            2.901355432812     1.229812950647     0.168652317392     1.007825032230
         H           -1.753508567188    -2.531840049353    -0.454396682608     1.007825032230
         H           -1.386042567188     2.324527950647     0.479968317392     1.007825032230
         H           -3.752111567188    -1.275422049353     0.293052317392     1.007825032230
         H           -3.586191567188     1.166950950647     0.755480317392     1.007825032230

  Basis Set: AUG-CC-PVTZ
    Blend: AUG-CC-PVTZ
  Basis Set: (AUG-CC-PVTZ AUX)
    Blend: AUG-CC-PVTZ-JKFIT
	 Reference Energy          =    -514.5842422410469226 [Eh]
	 Singles Energy            =      -0.0000000000000000 [Eh]
	 Same-Spin Energy          =      -0.5595117535622760 [Eh]
	 Opposite-Spin Energy      =      -1.7457490981560149 [Eh]
	 Correlation Energy        =      -2.3052608517182911 [Eh]
	 Total Energy              =    -516.8895030927652670 [Eh]

	 ================> DF-SCS-MP2 Energies <==================
	-----------------------------------------------------------
	 SCS Same-Spin Scale       =       0.3333333333333333 [-]
	 SCS Opposite-Spin Scale   =       1.2000000000000000 [-]
	 SCS Same-Spin Energy      =      -0.1865039178540920 [Eh]
	 SCS Opposite-Spin Energy  =      -2.0948989177872179 [Eh]
	 SCS Correlation Energy    =      -2.2814028356413099 [Eh]
	 SCS Total Energy          =    -516.8656450766882244 [Eh]
	-----------------------------------------------------------

  Dipole Moment: [D]
     X:     0.5470      Y:    -3.6571      Z:     1.7327     Total:     4.0836

*** Psi4 exiting successfully. Buy a developer a beer!
