                               Psi4 1.3.2 release

  ==> Input File <==

--------------------------------------------------------------------------
#psi4
#
memory 32 gb

molecule  {
0 1
  O        0.9417500     2.5148810    -0.6596880
  N        2.0463840     0.6978680     0.1749460
  C        0.7564320    -1.5550710    -0.8733250
  C        1.8157710    -1.7711630     0.2163790
  C       -0.4497480    -0.7926040    -0.3845090
  C        2.0129011    -0.5735812     0.9701152
  C       -0.3650830     0.5850230    -0.0943830
  C        0.9119250     1.3593610    -0.2260870
  C       -1.6913630    -1.4231620    -0.2398970
  C       -1.5035900     1.3035830     0.2885800
  C       -2.8212120    -0.7143780     0.1714760
  C       -2.7281430     0.6547360     0.4326570
  H        0.4383490    -2.5216720    -1.2799980
  H        1.2165960    -1.0011160    -1.6986390
  H        1.5065410    -2.5704870     0.9013410
  H        2.7543720    -2.0878480    -0.2534440
  H        1.2290340    -0.3883270     1.7666860
  H        2.9729880    -0.5259550     1.5704730
  H        2.8793190     1.2773810     0.1528780
  H       -1.7755450    -2.4842720    -0.4701710
  H       -1.4080790     2.3720960     0.4641940
  H       -3.7741480    -1.2278540     0.2772780
  H       -3.6082280     1.2145190     0.7397060
units angstrom
no_reorient  #important for SAPT in psi4, default
symmetry c1  #important for SAPT in psi4, default
}

set PROPERTIES_ORIGIN ["COM"]
properties('MP2/aug-cc-pvtz', properties = ['dipole'])
--------------------------------------------------------------------------

    Molecular point group: c1
  Charge       = 0
  Multiplicity = 1
  Basis Set: AUG-CC-PVTZ
    Blend: AUG-CC-PVTZ
  Basis Set: (AUG-CC-PVTZ AUX)
    Blend: AUG-CC-PVTZ-JKFIT

    Orbital Energies [Eh]
    ---------------------

    Doubly Occupied:

       1A    -20.512573     2A    -15.581628     3A    -11.349170
       4A    -11.281743     5A    -11.258327     6A    -11.248538
       7A    -11.246906     8A    -11.245049     9A    -11.242039
      10A    -11.241377    11A    -11.239819    12A    -11.236196
      13A     -1.366399    14A     -1.228288    15A     -1.163574
      16A     -1.092930    17A     -1.039027    18A     -1.026276
      19A     -0.938729    20A     -0.879483    21A     -0.840050
      22A     -0.798823    23A     -0.774215    24A     -0.695193
      25A     -0.682977    26A     -0.673614    27A     -0.648969
      28A     -0.627261    29A     -0.619118    30A     -0.603986
      31A     -0.586267    32A     -0.575213    33A     -0.556743
      34A     -0.532142    35A     -0.519610    36A     -0.510195
      37A     -0.494967    38A     -0.490684    39A     -0.473572
      40A     -0.420471    41A     -0.390865    42A     -0.343312
      43A     -0.336316

  @DF-RHF Final Energy:  -514.58468298939772

   => Energetics <=

    Nuclear Repulsion Energy =            685.7665138031806009
    One-Electron Energy =               -2059.4771216917920356
    Two-Electron Energy =                 859.1259248992136008
    Total Energy =                       -514.5846829893977201
  Basis Set: (AUG-CC-PVTZ AUX)
    Blend: AUG-CC-PVTZ-RI
    Molecular point group: c1

    Geometry (in Angstrom), charge = 0, multiplicity = 1:

       Center              X                  Y                   Z               Mass
    ------------   -----------------  -----------------  -----------------  -----------------
         O            0.957743004456     2.472264516806    -0.642414346211    15.994914619570
         N            2.062377004456     0.655251516806     0.192219653789    14.003074004430
         C            0.772425004456    -1.597687483194    -0.856051346211    12.000000000000
         C            1.831764004456    -1.813779483194     0.233652653789    12.000000000000
         C           -0.433754995544    -0.835220483194    -0.367235346211    12.000000000000
         C            2.028894104456    -0.616197683194     0.987388853789    12.000000000000
         C           -0.349089995544     0.542406516806    -0.077109346211    12.000000000000
         C            0.927918004456     1.316744516806    -0.208813346211    12.000000000000
         C           -1.675369995544    -1.465778483194    -0.222623346211    12.000000000000
         C           -1.487596995544     1.260966516806     0.305853653789    12.000000000000
         C           -2.805218995544    -0.756994483194     0.188749653789    12.000000000000
         C           -2.712149995544     0.612119516806     0.449930653789    12.000000000000
         H            0.454342004456    -2.564288483194    -1.262724346211     1.007825032230
         H            1.232589004456    -1.043732483194    -1.681365346211     1.007825032230
         H            1.522534004456    -2.613103483194     0.918614653789     1.007825032230
         H            2.770365004456    -2.130464483194    -0.236170346211     1.007825032230
         H            1.245027004456    -0.430943483194     1.783959653789     1.007825032230
         H            2.988981004456    -0.568571483194     1.587746653789     1.007825032230
         H            2.895312004456     1.234764516806     0.170151653789     1.007825032230
         H           -1.759551995544    -2.526888483194    -0.452897346211     1.007825032230
         H           -1.392085995544     2.329479516806     0.481467653789     1.007825032230
         H           -3.758154995544    -1.270470483194     0.294551653789     1.007825032230
         H           -3.592234995544     1.171902516806     0.756979653789     1.007825032230

  Basis Set: AUG-CC-PVTZ
    Blend: AUG-CC-PVTZ
  Basis Set: (AUG-CC-PVTZ AUX)
    Blend: AUG-CC-PVTZ-JKFIT
	 Reference Energy          =    -514.5846829893977201 [Eh]
	 Singles Energy            =      -0.0000000000000000 [Eh]
	 Same-Spin Energy          =      -0.5596600656920259 [Eh]
	 Opposite-Spin Energy      =      -1.7458197329158367 [Eh]
	 Correlation Energy        =      -2.3054797986078626 [Eh]
	 Total Energy              =    -516.8901627880055685 [Eh]

	 ================> DF-SCS-MP2 Energies <==================
	-----------------------------------------------------------
	 SCS Same-Spin Scale       =       0.3333333333333333 [-]
	 SCS Opposite-Spin Scale   =       1.2000000000000000 [-]
	 SCS Same-Spin Energy      =      -0.1865533552306753 [Eh]
	 SCS Opposite-Spin Energy  =      -2.0949836794990038 [Eh]
	 SCS Correlation Energy    =      -2.2815370347296788 [Eh]
	 SCS Total Energy          =    -516.8662200241274149 [Eh]
	-----------------------------------------------------------

  Dipole Moment: [D]
     X:     0.6378      Y:    -3.8081      Z:     1.7454     Total:     4.2373

*** Psi4 exiting successfully. Buy a developer a beer!
