                               Psi4 1.3.2 release

  ==> Input File <==

--------------------------------------------------------------------------
#psi4
#
memory 32 gb

molecule  {
0 1
  O        0.9417500     2.5148810    -0.6596880
  N        2.0463840     0.6978680     0.1749460
  C        0.7564320    -1.5550710    -0.8733250
  C        1.8157710    -1.7711630     0.2163790
  C       -0.4497480    -0.7926040    -0.3845090
  C        2.0266990    -0.4897580     1.0228720
  C       -0.3530771     0.7803772    -0.0532417
  C        0.9119250     1.3593610    -0.2260870
  C       -1.6913630    -1.4231620    -0.2398970
  C       -1.5035900     1.3035830     0.2885800
  C       -2.8212120    -0.7143780     0.1714760
  C       -2.7281430     0.6547360     0.4326570
  H        0.4383490    -2.5216720    -1.2799980
  H        1.2165960    -1.0011160    -1.6986390
  H        1.5065410    -2.5704870     0.9013410
  H        2.7543720    -2.0878480    -0.2534440
  H        1.2290340    -0.3883270     1.7666860
  H        2.9729880    -0.5259550     1.5704730
  H        2.8793190     1.2773810     0.1528780
  H       -1.7755450    -2.4842720    -0.4701710
  H       -1.4080790     2.3720960     0.4641940
  H       -3.7741480    -1.2278540     0.2772780
  H       -3.6082280     1.2145190     0.7397060
units angstrom
no_reorient  #important for SAPT in psi4, default
symmetry c1  #important for SAPT in psi4, default
}

set PROPERTIES_ORIGIN ["COM"]
properties('MP2/aug-cc-pvtz', properties = ['dipole'])
--------------------------------------------------------------------------

    Molecular point group: c1
  Charge       = 0
  Multiplicity = 1
  Basis Set: AUG-CC-PVTZ
    Blend: AUG-CC-PVTZ
  Basis Set: (AUG-CC-PVTZ AUX)
    Blend: AUG-CC-PVTZ-JKFIT

    Orbital Energies [Eh]
    ---------------------

    Doubly Occupied:

       1A    -20.510509     2A    -15.584815     3A    -11.345525
       4A    -11.276281     5A    -11.273854     6A    -11.252474
       7A    -11.247716     8A    -11.240907     9A    -11.240788
      10A    -11.240413    11A    -11.238829    12A    -11.238259
      13A     -1.372223    14A     -1.234767    15A     -1.157912
      16A     -1.082788    17A     -1.049499    18A     -1.018055
      19A     -0.938557    20A     -0.895849    21A     -0.841459
      22A     -0.798405    23A     -0.765503    24A     -0.710246
      25A     -0.687724    26A     -0.673507    27A     -0.648913
      28A     -0.625139    29A     -0.619254    30A     -0.604915
      31A     -0.582054    32A     -0.575775    33A     -0.559390
      34A     -0.535619    35A     -0.522573    36A     -0.510720
      37A     -0.489879    38A     -0.484687    39A     -0.464710
      40A     -0.420127    41A     -0.389506    42A     -0.359960
      43A     -0.318990

  @DF-RHF Final Energy:  -514.55472672361498

   => Energetics <=

    Nuclear Repulsion Energy =            684.3031009575595363
    One-Electron Energy =               -2056.4575092677482644
    Two-Electron Energy =                 857.5996815865737517
    Total Energy =                       -514.5547267236149764
  Basis Set: (AUG-CC-PVTZ AUX)
    Blend: AUG-CC-PVTZ-RI
    Molecular point group: c1

    Geometry (in Angstrom), charge = 0, multiplicity = 1:

       Center              X                  Y                   Z               Mass
    ------------   -----------------  -----------------  -----------------  -----------------
         O            0.955820743542     2.451467122469    -0.649409310034    15.994914619570
         N            2.060454743542     0.634454122469     0.185224689966    14.003074004430
         C            0.770502743542    -1.618484877531    -0.863046310034    12.000000000000
         C            1.829841743542    -1.834576877531     0.226657689966    12.000000000000
         C           -0.435677256458    -0.856017877531    -0.374230310034    12.000000000000
         C            2.040769743542    -0.553171877531     1.033150689966    12.000000000000
         C           -0.339006356458     0.716963322469    -0.042963010034    12.000000000000
         C            0.925995743542     1.295947122469    -0.215808310034    12.000000000000
         C           -1.677292256458    -1.486575877531    -0.229618310034    12.000000000000
         C           -1.489519256458     1.240169122469     0.298858689966    12.000000000000
         C           -2.807141256458    -0.777791877531     0.181754689966    12.000000000000
         C           -2.714072256458     0.591322122469     0.442935689966    12.000000000000
         H            0.452419743542    -2.585085877531    -1.269719310034     1.007825032230
         H            1.230666743542    -1.064529877531    -1.688360310034     1.007825032230
         H            1.520611743542    -2.633900877531     0.911619689966     1.007825032230
         H            2.768442743542    -2.151261877531    -0.243165310034     1.007825032230
         H            1.243104743542    -0.451740877531     1.776964689966     1.007825032230
         H            2.987058743542    -0.589368877531     1.580751689966     1.007825032230
         H            2.893389743542     1.213967122469     0.163156689966     1.007825032230
         H           -1.761474256458    -2.547685877531    -0.459892310034     1.007825032230
         H           -1.394008256458     2.308682122469     0.474472689966     1.007825032230
         H           -3.760077256458    -1.291267877531     0.287556689966     1.007825032230
         H           -3.594157256458     1.151105122469     0.749984689966     1.007825032230

  Basis Set: AUG-CC-PVTZ
    Blend: AUG-CC-PVTZ
  Basis Set: (AUG-CC-PVTZ AUX)
    Blend: AUG-CC-PVTZ-JKFIT
	 Reference Energy          =    -514.5547267236149764 [Eh]
	 Singles Energy            =      -0.0000000000000000 [Eh]
	 Same-Spin Energy          =      -0.5590035697593071 [Eh]
	 Opposite-Spin Energy      =      -1.7470831819773092 [Eh]
	 Correlation Energy        =      -2.3060867517366161 [Eh]
	 Total Energy              =    -516.8608134753516197 [Eh]

	 ================> DF-SCS-MP2 Energies <==================
	-----------------------------------------------------------
	 SCS Same-Spin Scale       =       0.3333333333333333 [-]
	 SCS Opposite-Spin Scale   =       1.2000000000000000 [-]
	 SCS Same-Spin Energy      =      -0.1863345232531023 [Eh]
	 SCS Opposite-Spin Energy  =      -2.0964998183727710 [Eh]
	 SCS Correlation Energy    =      -2.2828343416258732 [Eh]
	 SCS Total Energy          =    -516.8375610652408341 [Eh]
	-----------------------------------------------------------

  Dipole Moment: [D]
     X:     0.5604      Y:    -3.6765      Z:     1.7985     Total:     4.1310

*** Psi4 exiting successfully. Buy a developer a beer!
