                               Psi4 1.3.2 release

  ==> Input File <==

--------------------------------------------------------------------------
#psi4
#
memory 32 gb

molecule  {
0 1
  O        0.9417500     2.5148810    -0.6596880
  N        2.0463840     0.6978680     0.1749460
  C        0.7564320    -1.5550710    -0.8733250
  C        1.8157710    -1.7711630     0.2163790
  C       -0.4497480    -0.7926040    -0.3845090
  C        2.0266990    -0.4897580     1.0228720
  C       -0.3650830     0.5850230    -0.0943830
  C        0.9119250     1.3593610    -0.2260870
  C       -1.6913630    -1.4231620    -0.2398970
  C       -1.5035900     1.3035830     0.2885800
  C       -2.8212120    -0.7143780     0.1714760
  C       -2.7281430     0.6547360     0.4326570
  H        0.4383490    -2.5216720    -1.2799980
  H        1.2586072    -0.9505420    -1.7739870
  H        1.5065410    -2.5704870     0.9013410
  H        2.7543720    -2.0878480    -0.2534440
  H        1.2290340    -0.3883270     1.7666860
  H        2.9729880    -0.5259550     1.5704730
  H        2.8793190     1.2773810     0.1528780
  H       -1.7755450    -2.4842720    -0.4701710
  H       -1.4080790     2.3720960     0.4641940
  H       -3.7741480    -1.2278540     0.2772780
  H       -3.6082280     1.2145190     0.7397060
units angstrom
no_reorient  #important for SAPT in psi4, default
symmetry c1  #important for SAPT in psi4, default
}

set PROPERTIES_ORIGIN ["COM"]
properties('MP2/aug-cc-pvtz', properties = ['dipole'])
--------------------------------------------------------------------------

    Molecular point group: c1
  Charge       = 0
  Multiplicity = 1
  Basis Set: AUG-CC-PVTZ
    Blend: AUG-CC-PVTZ
  Basis Set: (AUG-CC-PVTZ AUX)
    Blend: AUG-CC-PVTZ-JKFIT

    Orbital Energies [Eh]
    ---------------------

    Doubly Occupied:

       1A    -20.515101     2A    -15.582454     3A    -11.351378
       4A    -11.275977     5A    -11.259040     6A    -11.250663
       7A    -11.249114     8A    -11.247423     9A    -11.245733
      10A    -11.242351    11A    -11.240148    12A    -11.238903
      13A     -1.368965    14A     -1.234622    15A     -1.164316
      16A     -1.080411    17A     -1.036979    18A     -1.021047
      19A     -0.934866    20A     -0.881771    21A     -0.841183
      22A     -0.795301    23A     -0.775696    24A     -0.696100
      25A     -0.685827    26A     -0.671136    27A     -0.649307
      28A     -0.623519    29A     -0.615619    30A     -0.600207
      31A     -0.587149    32A     -0.572854    33A     -0.557405
      34A     -0.532959    35A     -0.518177    36A     -0.509841
      37A     -0.493516    38A     -0.485516    39A     -0.476376
      40A     -0.423289    41A     -0.389135    42A     -0.344091
      43A     -0.335849

  @DF-RHF Final Energy:  -514.58991488375204

   => Energetics <=

    Nuclear Repulsion Energy =            684.6649490853143334
    One-Electron Energy =               -2057.3070943722104857
    Two-Electron Energy =                 858.0522304031442218
    Total Energy =                       -514.5899148837520443
  Basis Set: (AUG-CC-PVTZ AUX)
    Blend: AUG-CC-PVTZ-RI
    Molecular point group: c1

    Geometry (in Angstrom), charge = 0, multiplicity = 1:

       Center              X                  Y                   Z               Mass
    ------------   -----------------  -----------------  -----------------  -----------------
         O            0.956452282495     2.465703668284    -0.645873062025    15.994914619570
         N            2.061086282495     0.648690668284     0.188760937975    14.003074004430
         C            0.771134282495    -1.604248331716    -0.859510062025    12.000000000000
         C            1.830473282495    -1.820340331716     0.230193937975    12.000000000000
         C           -0.435045717505    -0.841781331716    -0.370694062025    12.000000000000
         C            2.041401282495    -0.538935331716     1.036686937975    12.000000000000
         C           -0.350380717505     0.535845668284    -0.080568062025    12.000000000000
         C            0.926627282495     1.310183668284    -0.212272062025    12.000000000000
         C           -1.676660717505    -1.472339331716    -0.226082062025    12.000000000000
         C           -1.488887717505     1.254405668284     0.302394937975    12.000000000000
         C           -2.806509717505    -0.763555331716     0.185290937975    12.000000000000
         C           -2.713440717505     0.605558668284     0.446471937975    12.000000000000
         H            0.453051282495    -2.570849331716    -1.266183062025     1.007825032230
         H            1.273309482495    -0.999719331716    -1.760172062025     1.007825032230
         H            1.521243282495    -2.619664331716     0.915155937975     1.007825032230
         H            2.769074282495    -2.137025331716    -0.239629062025     1.007825032230
         H            1.243736282495    -0.437504331716     1.780500937975     1.007825032230
         H            2.987690282495    -0.575132331716     1.584287937975     1.007825032230
         H            2.894021282495     1.228203668284     0.166692937975     1.007825032230
         H           -1.760842717505    -2.533449331716    -0.456356062025     1.007825032230
         H           -1.393376717505     2.322918668284     0.478008937975     1.007825032230
         H           -3.759445717505    -1.277031331716     0.291092937975     1.007825032230
         H           -3.593525717505     1.165341668284     0.753520937975     1.007825032230

  Basis Set: AUG-CC-PVTZ
    Blend: AUG-CC-PVTZ
  Basis Set: (AUG-CC-PVTZ AUX)
    Blend: AUG-CC-PVTZ-JKFIT
	 Reference Energy          =    -514.5899148837520443 [Eh]
	 Singles Energy            =      -0.0000000000000000 [Eh]
	 Same-Spin Energy          =      -0.5588235852942528 [Eh]
	 Opposite-Spin Energy      =      -1.7452842248035547 [Eh]
	 Correlation Energy        =      -2.3041078100978076 [Eh]
	 Total Energy              =    -516.8940226938498199 [Eh]

	 ================> DF-SCS-MP2 Energies <==================
	-----------------------------------------------------------
	 SCS Same-Spin Scale       =       0.3333333333333333 [-]
	 SCS Opposite-Spin Scale   =       1.2000000000000000 [-]
	 SCS Same-Spin Energy      =      -0.1862745284314176 [Eh]
	 SCS Opposite-Spin Energy  =      -2.0943410697642655 [Eh]
	 SCS Correlation Energy    =      -2.2806155981956833 [Eh]
	 SCS Total Energy          =    -516.8705304819477533 [Eh]
	-----------------------------------------------------------

  Dipole Moment: [D]
     X:     0.6090      Y:    -3.6214      Z:     1.8139     Total:     4.0958

*** Psi4 exiting successfully. Buy a developer a beer!
