                               Psi4 1.3.2 release

  ==> Input File <==

--------------------------------------------------------------------------
#psi4
#
memory 32 gb

molecule  {
0 1
  O        0.9417500     2.5148810    -0.6596880
  N        2.0463840     0.6978680     0.1749460
  C        0.7564320    -1.5550710    -0.8733250
  C        1.8157710    -1.7711630     0.2163790
  C       -0.4497480    -0.7926040    -0.3845090
  C        2.0266990    -0.4897580     1.0228720
  C       -0.3650830     0.5850230    -0.0943830
  C        0.9119250     1.3593610    -0.2260870
  C       -1.6026790    -1.3781236    -0.2502261
  C       -1.5035900     1.3035830     0.2885800
  C       -2.8212120    -0.7143780     0.1714760
  C       -2.7281430     0.6547360     0.4326570
  H        0.4383490    -2.5216720    -1.2799980
  H        1.2165960    -1.0011160    -1.6986390
  H        1.5065410    -2.5704870     0.9013410
  H        2.7543720    -2.0878480    -0.2534440
  H        1.2290340    -0.3883270     1.7666860
  H        2.9729880    -0.5259550     1.5704730
  H        2.8793190     1.2773810     0.1528780
  H       -1.7755450    -2.4842720    -0.4701710
  H       -1.4080790     2.3720960     0.4641940
  H       -3.7741480    -1.2278540     0.2772780
  H       -3.6082280     1.2145190     0.7397060
units angstrom
no_reorient  #important for SAPT in psi4, default
symmetry c1  #important for SAPT in psi4, default
}

set PROPERTIES_ORIGIN ["COM"]
properties('MP2/aug-cc-pvtz', properties = ['dipole'])
--------------------------------------------------------------------------

    Molecular point group: c1
  Charge       = 0
  Multiplicity = 1
  Basis Set: AUG-CC-PVTZ
    Blend: AUG-CC-PVTZ
  Basis Set: (AUG-CC-PVTZ AUX)
    Blend: AUG-CC-PVTZ-JKFIT

    Orbital Energies [Eh]
    ---------------------

    Doubly Occupied:

       1A    -20.514576     2A    -15.582230     3A    -11.351011
       4A    -11.275599     5A    -11.254570     6A    -11.247806
       7A    -11.246246     8A    -11.244367     9A    -11.240919
      10A    -11.239442    11A    -11.237685    12A    -11.236861
      13A     -1.368553    14A     -1.234720    15A     -1.171800
      16A     -1.083439    17A     -1.032790    18A     -1.025281
      19A     -0.939430    20A     -0.884987    21A     -0.837909
      22A     -0.797271    23A     -0.777788    24A     -0.696852
      25A     -0.684056    26A     -0.672607    27A     -0.653071
      28A     -0.626556    29A     -0.616972    30A     -0.590304
      31A     -0.587090    32A     -0.576634    33A     -0.557760
      34A     -0.535552    35A     -0.522519    36A     -0.509425
      37A     -0.492804    38A     -0.490571    39A     -0.468119
      40A     -0.423632    41A     -0.388988    42A     -0.350765
      43A     -0.335676

  @DF-RHF Final Energy:  -514.58341055952951

   => Energetics <=

    Nuclear Repulsion Energy =            686.8248252439566386
    One-Electron Energy =               -2061.6060035119048734
    Two-Electron Energy =                 860.1977677084187235
    Total Energy =                       -514.5834105595295114
  Basis Set: (AUG-CC-PVTZ AUX)
    Blend: AUG-CC-PVTZ-RI
    Molecular point group: c1

    Geometry (in Angstrom), charge = 0, multiplicity = 1:

       Center              X                  Y                   Z               Mass
    ------------   -----------------  -----------------  -----------------  -----------------
         O            0.950108588179     2.462664937793    -0.645575008957    15.994914619570
         N            2.054742588179     0.645651937793     0.189058991043    14.003074004430
         C            0.764790588179    -1.607287062207    -0.859212008957    12.000000000000
         C            1.824129588179    -1.823379062207     0.230491991043    12.000000000000
         C           -0.441389411821    -0.844820062207    -0.370396008957    12.000000000000
         C            2.035057588179    -0.541974062207     1.036984991043    12.000000000000
         C           -0.356724411821     0.532806937793    -0.080270008957    12.000000000000
         C            0.920283588179     1.307144937793    -0.211974008957    12.000000000000
         C           -1.594320411821    -1.430339662207    -0.236113108957    12.000000000000
         C           -1.495231411821     1.251366937793     0.302692991043    12.000000000000
         C           -2.812853411821    -0.766594062207     0.185588991043    12.000000000000
         C           -2.719784411821     0.602519937793     0.446769991043    12.000000000000
         H            0.446707588179    -2.573888062207    -1.265885008957     1.007825032230
         H            1.224954588179    -1.053332062207    -1.684526008957     1.007825032230
         H            1.514899588179    -2.622703062207     0.915453991043     1.007825032230
         H            2.762730588179    -2.140064062207    -0.239331008957     1.007825032230
         H            1.237392588179    -0.440543062207     1.780798991043     1.007825032230
         H            2.981346588179    -0.578171062207     1.584585991043     1.007825032230
         H            2.887677588179     1.225164937793     0.166990991043     1.007825032230
         H           -1.767186411821    -2.536488062207    -0.456058008957     1.007825032230
         H           -1.399720411821     2.319879937793     0.478306991043     1.007825032230
         H           -3.765789411821    -1.280070062207     0.291390991043     1.007825032230
         H           -3.599869411821     1.162302937793     0.753818991043     1.007825032230

  Basis Set: AUG-CC-PVTZ
    Blend: AUG-CC-PVTZ
  Basis Set: (AUG-CC-PVTZ AUX)
    Blend: AUG-CC-PVTZ-JKFIT
	 Reference Energy          =    -514.5834105595295114 [Eh]
	 Singles Energy            =      -0.0000000000000000 [Eh]
	 Same-Spin Energy          =      -0.5584856235627073 [Eh]
	 Opposite-Spin Energy      =      -1.7448190018823393 [Eh]
	 Correlation Energy        =      -2.3033046254450467 [Eh]
	 Total Energy              =    -516.8867151849746051 [Eh]

	 ================> DF-SCS-MP2 Energies <==================
	-----------------------------------------------------------
	 SCS Same-Spin Scale       =       0.3333333333333333 [-]
	 SCS Opposite-Spin Scale   =       1.2000000000000000 [-]
	 SCS Same-Spin Energy      =      -0.1861618745209024 [Eh]
	 SCS Opposite-Spin Energy  =      -2.0937828022588070 [Eh]
	 SCS Correlation Energy    =      -2.2799446767797096 [Eh]
	 SCS Total Energy          =    -516.8633552363091894 [Eh]
	-----------------------------------------------------------

  Dipole Moment: [D]
     X:     0.5858      Y:    -3.5648      Z:     1.7917     Total:     4.0325

*** Psi4 exiting successfully. Buy a developer a beer!
