                               Psi4 1.3.2 release

  ==> Input File <==

--------------------------------------------------------------------------
#psi4
#
memory 32 gb

molecule  {
0 1
  O        0.9417500     2.5148810    -0.6596880
  N        2.1392821     0.7180748     0.2115234
  C        0.7564320    -1.5550710    -0.8733250
  C        1.8157710    -1.7711630     0.2163790
  C       -0.4497480    -0.7926040    -0.3845090
  C        2.0266990    -0.4897580     1.0228720
  C       -0.3650830     0.5850230    -0.0943830
  C        0.9119250     1.3593610    -0.2260870
  C       -1.6913630    -1.4231620    -0.2398970
  C       -1.5035900     1.3035830     0.2885800
  C       -2.8212120    -0.7143780     0.1714760
  C       -2.7281430     0.6547360     0.4326570
  H        0.4383490    -2.5216720    -1.2799980
  H        1.2165960    -1.0011160    -1.6986390
  H        1.5065410    -2.5704870     0.9013410
  H        2.7543720    -2.0878480    -0.2534440
  H        1.2290340    -0.3883270     1.7666860
  H        2.9729880    -0.5259550     1.5704730
  H        2.8793190     1.2773810     0.1528780
  H       -1.7755450    -2.4842720    -0.4701710
  H       -1.4080790     2.3720960     0.4641940
  H       -3.7741480    -1.2278540     0.2772780
  H       -3.6082280     1.2145190     0.7397060
units angstrom
no_reorient  #important for SAPT in psi4, default
symmetry c1  #important for SAPT in psi4, default
}

set PROPERTIES_ORIGIN ["COM"]
properties('MP2/aug-cc-pvtz', properties = ['dipole'])
--------------------------------------------------------------------------

    Molecular point group: c1
  Charge       = 0
  Multiplicity = 1
  Basis Set: AUG-CC-PVTZ
    Blend: AUG-CC-PVTZ
  Basis Set: (AUG-CC-PVTZ AUX)
    Blend: AUG-CC-PVTZ-JKFIT

    Orbital Energies [Eh]
    ---------------------

    Doubly Occupied:

       1A    -20.524767     2A    -15.571056     3A    -11.360158
       4A    -11.271749     5A    -11.260540     6A    -11.251589
       7A    -11.251156     8A    -11.248958     9A    -11.243322
      10A    -11.241830    11A    -11.239495    12A    -11.236729
      13A     -1.370336    14A     -1.224971    15A     -1.166838
      16A     -1.082383    17A     -1.038134    18A     -1.019794
      19A     -0.936432    20A     -0.881271    21A     -0.843456
      22A     -0.800398    23A     -0.777633    24A     -0.702111
      25A     -0.680336    26A     -0.673991    27A     -0.650290
      28A     -0.626974    29A     -0.615323    30A     -0.600870
      31A     -0.586056    32A     -0.582014    33A     -0.553720
      34A     -0.533899    35A     -0.521358    36A     -0.512932
      37A     -0.492612    38A     -0.491213    39A     -0.478358
      40A     -0.424365    41A     -0.386441    42A     -0.346471
      43A     -0.337736

  @DF-RHF Final Energy:  -514.58315639710895

   => Energetics <=

    Nuclear Repulsion Energy =            682.9239317425170839
    One-Electron Energy =               -2053.7340425120182772
    Two-Electron Energy =                 856.2269543723921288
    Total Energy =                       -514.5831563971089508
  Basis Set: (AUG-CC-PVTZ AUX)
    Blend: AUG-CC-PVTZ-RI
    Molecular point group: c1

    Geometry (in Angstrom), charge = 0, multiplicity = 1:

       Center              X                  Y                   Z               Mass
    ------------   -----------------  -----------------  -----------------  -----------------
         O            0.948639473461     2.464263503646    -0.649524159627    15.994914619570
         N            2.146171573461     0.667457303646     0.221687240373    14.003074004430
         C            0.763321473461    -1.605688496354    -0.863161159627    12.000000000000
         C            1.822660473461    -1.821780496354     0.226542840373    12.000000000000
         C           -0.442858526539    -0.843221496354    -0.374345159627    12.000000000000
         C            2.033588473461    -0.540375496354     1.033035840373    12.000000000000
         C           -0.358193526539     0.534405503646    -0.084219159627    12.000000000000
         C            0.918814473461     1.308743503646    -0.215923159627    12.000000000000
         C           -1.684473526539    -1.473779496354    -0.229733159627    12.000000000000
         C           -1.496700526539     1.252965503646     0.298743840373    12.000000000000
         C           -2.814322526539    -0.764995496354     0.181639840373    12.000000000000
         C           -2.721253526539     0.604118503646     0.442820840373    12.000000000000
         H            0.445238473461    -2.572289496354    -1.269834159627     1.007825032230
         H            1.223485473461    -1.051733496354    -1.688475159627     1.007825032230
         H            1.513430473461    -2.621104496354     0.911504840373     1.007825032230
         H            2.761261473461    -2.138465496354    -0.243280159627     1.007825032230
         H            1.235923473461    -0.438944496354     1.776849840373     1.007825032230
         H            2.979877473461    -0.576572496354     1.580636840373     1.007825032230
         H            2.886208473461     1.226763503646     0.163041840373     1.007825032230
         H           -1.768655526539    -2.534889496354    -0.460007159627     1.007825032230
         H           -1.401189526539     2.321478503646     0.474357840373     1.007825032230
         H           -3.767258526539    -1.278471496354     0.287441840373     1.007825032230
         H           -3.601338526539     1.163901503646     0.749869840373     1.007825032230

  Basis Set: AUG-CC-PVTZ
    Blend: AUG-CC-PVTZ
  Basis Set: (AUG-CC-PVTZ AUX)
    Blend: AUG-CC-PVTZ-JKFIT
	 Reference Energy          =    -514.5831563971089508 [Eh]
	 Singles Energy            =      -0.0000000000000000 [Eh]
	 Same-Spin Energy          =      -0.5581602601856741 [Eh]
	 Opposite-Spin Energy      =      -1.7445991509083247 [Eh]
	 Correlation Energy        =      -2.3027594110939988 [Eh]
	 Total Energy              =    -516.8859158082029808 [Eh]

	 ================> DF-SCS-MP2 Energies <==================
	-----------------------------------------------------------
	 SCS Same-Spin Scale       =       0.3333333333333333 [-]
	 SCS Opposite-Spin Scale   =       1.2000000000000000 [-]
	 SCS Same-Spin Energy      =      -0.1860534200618914 [Eh]
	 SCS Opposite-Spin Energy  =      -2.0935189810899897 [Eh]
	 SCS Correlation Energy    =      -2.2795724011518810 [Eh]
	 SCS Total Energy          =    -516.8627287982608323 [Eh]
	-----------------------------------------------------------

  Dipole Moment: [D]
     X:     0.2185      Y:    -3.4493      Z:     1.5856     Total:     3.8026

*** Psi4 exiting successfully. Buy a developer a beer!
