                               Psi4 1.4a3.dev225

  ==> Input File <==

--------------------------------------------------------------------------
#psi4
#
memory 32 gb

molecule  {
0 1
  O        0.9417500     2.5148810    -0.6596880
  N        2.0463840     0.6978680     0.1749460
  C        0.7564320    -1.5550710    -0.8733250
  C        1.8157710    -1.7711630     0.2163790
  C       -0.4497480    -0.7926040    -0.3845090
  C        2.0266990    -0.4897580     1.0228720
  C       -0.3650830     0.5850230    -0.0943830
  C        0.9107171     1.3125619    -0.2085260
  C       -1.6913630    -1.4231620    -0.2398970
  C       -1.5035900     1.3035830     0.2885800
  C       -2.8212120    -0.7143780     0.1714760
  C       -2.7281430     0.6547360     0.4326570
  H        0.4383490    -2.5216720    -1.2799980
  H        1.2165960    -1.0011160    -1.6986390
  H        1.5065410    -2.5704870     0.9013410
  H        2.7543720    -2.0878480    -0.2534440
  H        1.2290340    -0.3883270     1.7666860
  H        2.9729880    -0.5259550     1.5704730
  H        2.8793190     1.2773810     0.1528780
  H       -1.7755450    -2.4842720    -0.4701710
  H       -1.4080790     2.3720960     0.4641940
  H       -3.7741480    -1.2278540     0.2772780
  H       -3.6082280     1.2145190     0.7397060
units angstrom
no_reorient  #important for SAPT in psi4, default
symmetry c1  #important for SAPT in psi4, default
}

set PROPERTIES_ORIGIN ["COM"]
properties('MP2/aug-cc-pvtz', properties = ['dipole'])
--------------------------------------------------------------------------

    Molecular point group: c1
  Charge       = 0
  Multiplicity = 1
  Basis Set: AUG-CC-PVTZ
    Blend: AUG-CC-PVTZ
  Basis Set: (AUG-CC-PVTZ AUX)
    Blend: AUG-CC-PVTZ-JKFIT

    Orbital Energies [Eh]
    ---------------------

    Doubly Occupied:

       1A    -20.504586     2A    -15.589497     3A    -11.351172
       4A    -11.278415     5A    -11.259994     6A    -11.250675
       7A    -11.248368     8A    -11.247181     9A    -11.242830
      10A    -11.241551    11A    -11.240961    12A    -11.240540
      13A     -1.343110    14A     -1.235564    15A     -1.166763
      16A     -1.084852    17A     -1.040550    18A     -1.022997
      19A     -0.941784    20A     -0.887633    21A     -0.844072
      22A     -0.800108    23A     -0.781989    24A     -0.701907
      25A     -0.687527    26A     -0.672954    27A     -0.653239
      28A     -0.624018    29A     -0.616367    30A     -0.601171
      31A     -0.582682    32A     -0.570834    33A     -0.555011
      34A     -0.537145    35A     -0.517121    36A     -0.507980
      37A     -0.493391    38A     -0.491021    39A     -0.477604
      40A     -0.418081    41A     -0.386733    42A     -0.344150
      43A     -0.337470

  @DF-RHF Final Energy:  -514.58909909173065

   => Energetics <=

    Nuclear Repulsion Energy =            685.4610270626967576
    One-Electron Energy =               -2058.8570534847272029
    Two-Electron Energy =                 858.8069273302997999
    Total Energy =                       -514.5890990917306453
  Basis Set: (AUG-CC-PVTZ AUX)
    Blend: AUG-CC-PVTZ-RI
    Molecular point group: c1

    Geometry (in Angstrom), charge = 0, multiplicity = 1:

       Center              X                  Y                   Z               Mass
    ------------   -----------------  -----------------  -----------------  -----------------
         O            0.956805109072     2.469506396673    -0.647652689342    15.994914619570
         N            2.061439109072     0.652493396673     0.186981310658    14.003074004430
         C            0.771487109072    -1.600445603327    -0.861289689342    12.000000000000
         C            1.830826109072    -1.816537603327     0.228414310658    12.000000000000
         C           -0.434692890928    -0.837978603327    -0.372473689342    12.000000000000
         C            2.041754109072    -0.535132603327     1.034907310658    12.000000000000
         C           -0.350027890928     0.539648396673    -0.082347689342    12.000000000000
         C            0.925772209072     1.267187296673    -0.196490689342    12.000000000000
         C           -1.676307890928    -1.468536603327    -0.227861689342    12.000000000000
         C           -1.488534890928     1.258208396673     0.300615310658    12.000000000000
         C           -2.806156890928    -0.759752603327     0.183511310658    12.000000000000
         C           -2.713087890928     0.609361396673     0.444692310658    12.000000000000
         H            0.453404109072    -2.567046603327    -1.267962689342     1.007825032230
         H            1.231651109072    -1.046490603327    -1.686603689342     1.007825032230
         H            1.521596109072    -2.615861603327     0.913376310658     1.007825032230
         H            2.769427109072    -2.133222603327    -0.241408689342     1.007825032230
         H            1.244089109072    -0.433701603327     1.778721310658     1.007825032230
         H            2.988043109072    -0.571329603327     1.582508310658     1.007825032230
         H            2.894374109072     1.232006396673     0.164913310658     1.007825032230
         H           -1.760489890928    -2.529646603327    -0.458135689342     1.007825032230
         H           -1.393023890928     2.326721396673     0.476229310658     1.007825032230
         H           -3.759092890928    -1.273228603327     0.289313310658     1.007825032230
         H           -3.593172890928     1.169144396673     0.751741310658     1.007825032230

  Basis Set: AUG-CC-PVTZ
    Blend: AUG-CC-PVTZ
  Basis Set: (AUG-CC-PVTZ AUX)
    Blend: AUG-CC-PVTZ-JKFIT
	 Reference Energy          =    -514.5890990917306453 [Eh]
	 Singles Energy            =      -0.0000000000000000 [Eh]
	 Same-Spin Energy          =      -0.5598126668576542 [Eh]
	 Opposite-Spin Energy      =      -1.7465760050376131 [Eh]
	 Correlation Energy        =      -2.3063886718952675 [Eh]
	 Total Energy              =    -516.8954877636259653 [Eh]

	 ================> DF-SCS-MP2 Energies <==================
	-----------------------------------------------------------
	 SCS Same-Spin Scale       =       0.3333333333333333 [-]
	 SCS Opposite-Spin Scale   =       1.2000000000000000 [-]
	 SCS Same-Spin Energy      =      -0.1866042222858847 [Eh]
	 SCS Opposite-Spin Energy  =      -2.0958912060451356 [Eh]
	 SCS Correlation Energy    =      -2.2824954283310204 [Eh]
	 SCS Total Energy          =    -516.8715945200616488 [Eh]
	-----------------------------------------------------------

  Dipole Moment: [D]
     X:     0.6618      Y:    -3.9621      Z:     1.9084     Total:     4.4473

*** Psi4 exiting successfully. Buy a developer a beer!
