                               Psi4 1.3.2 release

  ==> Input File <==

--------------------------------------------------------------------------
#psi4
#
memory 32 gb

molecule  {
0 1
  O        0.9417500     2.5148810    -0.6596880
  N        2.0463840     0.6978680     0.1749460
  C        0.7564320    -1.5550710    -0.8733250
  C        1.8157710    -1.7711630     0.2163790
  C       -0.4497480    -0.7926040    -0.3845090
  C        2.0266990    -0.4897580     1.0228720
  C       -0.3650830     0.5850230    -0.0943830
  C        0.9119250     1.3593610    -0.2260870
  C       -1.8687310    -1.5132389    -0.2192388
  C       -1.5035900     1.3035830     0.2885800
  C       -2.8212120    -0.7143780     0.1714760
  C       -2.7281430     0.6547360     0.4326570
  H        0.4383490    -2.5216720    -1.2799980
  H        1.2165960    -1.0011160    -1.6986390
  H        1.5065410    -2.5704870     0.9013410
  H        2.7543720    -2.0878480    -0.2534440
  H        1.2290340    -0.3883270     1.7666860
  H        2.9729880    -0.5259550     1.5704730
  H        2.8793190     1.2773810     0.1528780
  H       -1.7755450    -2.4842720    -0.4701710
  H       -1.4080790     2.3720960     0.4641940
  H       -3.7741480    -1.2278540     0.2772780
  H       -3.6082280     1.2145190     0.7397060
units angstrom
no_reorient  #important for SAPT in psi4, default
symmetry c1  #important for SAPT in psi4, default
}

set PROPERTIES_ORIGIN ["COM"]
properties('MP2/aug-cc-pvtz', properties = ['dipole'])
--------------------------------------------------------------------------

    Molecular point group: c1
  Charge       = 0
  Multiplicity = 1
  Basis Set: AUG-CC-PVTZ
    Blend: AUG-CC-PVTZ
  Basis Set: (AUG-CC-PVTZ AUX)
    Blend: AUG-CC-PVTZ-JKFIT

    Orbital Energies [Eh]
    ---------------------

    Doubly Occupied:

       1A    -20.515738     2A    -15.583291     3A    -11.351800
       4A    -11.276081     5A    -11.275758     6A    -11.246390
       7A    -11.245189     8A    -11.244500     9A    -11.242165
      10A    -11.239759    11A    -11.238676    12A    -11.237523
      13A     -1.369599    14A     -1.234956    15A     -1.156423
      16A     -1.082402    17A     -1.049721    18A     -1.012540
      19A     -0.938663    20A     -0.875495    21A     -0.847227
      22A     -0.796989    23A     -0.776459    24A     -0.703609
      25A     -0.687344    26A     -0.671215    27A     -0.655008
      28A     -0.631417    29A     -0.615356    30A     -0.604983
      31A     -0.584995    32A     -0.574541    33A     -0.556035
      34A     -0.539470    35A     -0.520917    36A     -0.501547
      37A     -0.494682    38A     -0.489534    39A     -0.465242
      40A     -0.419003    41A     -0.390273    42A     -0.361463
      43A     -0.317801

  @DF-RHF Final Energy:  -514.55581441258278

   => Energetics <=

    Nuclear Repulsion Energy =            682.1491336403970536
    One-Electron Energy =               -2052.1663450351097708
    Two-Electron Energy =                 855.4613969821300543
    Total Energy =                       -514.5558144125827766
  Basis Set: (AUG-CC-PVTZ AUX)
    Blend: AUG-CC-PVTZ-RI
    Molecular point group: c1

    Geometry (in Angstrom), charge = 0, multiplicity = 1:

       Center              X                  Y                   Z               Mass
    ------------   -----------------  -----------------  -----------------  -----------------
         O            0.969928202368     2.472730387844    -0.647883416076    15.994914619570
         N            2.074562202368     0.655717387844     0.186750583924    14.003074004430
         C            0.784610202368    -1.597221612156    -0.861520416076    12.000000000000
         C            1.843949202368    -1.813313612156     0.228183583924    12.000000000000
         C           -0.421569797632    -0.834754612156    -0.372704416076    12.000000000000
         C            2.054877202368    -0.531908612156     1.034676583924    12.000000000000
         C           -0.336904797632     0.542872387844    -0.082578416076    12.000000000000
         C            0.940103202368     1.317210387844    -0.214282416076    12.000000000000
         C           -1.840552797632    -1.555389512156    -0.207434216076    12.000000000000
         C           -1.475411797632     1.261432387844     0.300384583924    12.000000000000
         C           -2.793033797632    -0.756528612156     0.183280583924    12.000000000000
         C           -2.699964797632     0.612585387844     0.444461583924    12.000000000000
         H            0.466527202368    -2.563822612156    -1.268193416076     1.007825032230
         H            1.244774202368    -1.043266612156    -1.686834416076     1.007825032230
         H            1.534719202368    -2.612637612156     0.913145583924     1.007825032230
         H            2.782550202368    -2.129998612156    -0.241639416076     1.007825032230
         H            1.257212202368    -0.430477612156     1.778490583924     1.007825032230
         H            3.001166202368    -0.568105612156     1.582277583924     1.007825032230
         H            2.907497202368     1.235230387844     0.164682583924     1.007825032230
         H           -1.747366797632    -2.526422612156    -0.458366416076     1.007825032230
         H           -1.379900797632     2.329945387844     0.475998583924     1.007825032230
         H           -3.745969797632    -1.270004612156     0.289082583924     1.007825032230
         H           -3.580049797632     1.172368387844     0.751510583924     1.007825032230

  Basis Set: AUG-CC-PVTZ
    Blend: AUG-CC-PVTZ
  Basis Set: (AUG-CC-PVTZ AUX)
    Blend: AUG-CC-PVTZ-JKFIT
	 Reference Energy          =    -514.5558144125827766 [Eh]
	 Singles Energy            =      -0.0000000000000000 [Eh]
	 Same-Spin Energy          =      -0.5581886142821834 [Eh]
	 Opposite-Spin Energy      =      -1.7462530663918849 [Eh]
	 Correlation Energy        =      -2.3044416806740684 [Eh]
	 Total Energy              =    -516.8602560932567940 [Eh]

	 ================> DF-SCS-MP2 Energies <==================
	-----------------------------------------------------------
	 SCS Same-Spin Scale       =       0.3333333333333333 [-]
	 SCS Opposite-Spin Scale   =       1.2000000000000000 [-]
	 SCS Same-Spin Energy      =      -0.1860628714273944 [Eh]
	 SCS Opposite-Spin Energy  =      -2.0955036796702617 [Eh]
	 SCS Correlation Energy    =      -2.2815665510976562 [Eh]
	 SCS Total Energy          =    -516.8373809636804026 [Eh]
	-----------------------------------------------------------

  Dipole Moment: [D]
     X:     0.7035      Y:    -3.6608      Z:     1.7413     Total:     4.1144

*** Psi4 exiting successfully. Buy a developer a beer!
