                               Psi4 1.3.2 release

  ==> Input File <==

--------------------------------------------------------------------------
#psi4
#
memory 32 gb

molecule  {
0 1
  O        0.9417500     2.5148810    -0.6596880
  N        2.0463840     0.6978680     0.1749460
  C        0.7595913    -1.5805102    -0.8811116
  C        1.8157710    -1.7711630     0.2163790
  C       -0.4497480    -0.7926040    -0.3845090
  C        2.0266990    -0.4897580     1.0228720
  C       -0.3650830     0.5850230    -0.0943830
  C        0.9119250     1.3593610    -0.2260870
  C       -1.6913630    -1.4231620    -0.2398970
  C       -1.5035900     1.3035830     0.2885800
  C       -2.8212120    -0.7143780     0.1714760
  C       -2.7281430     0.6547360     0.4326570
  H        0.4383490    -2.5216720    -1.2799980
  H        1.2165960    -1.0011160    -1.6986390
  H        1.5065410    -2.5704870     0.9013410
  H        2.7543720    -2.0878480    -0.2534440
  H        1.2290340    -0.3883270     1.7666860
  H        2.9729880    -0.5259550     1.5704730
  H        2.8793190     1.2773810     0.1528780
  H       -1.7755450    -2.4842720    -0.4701710
  H       -1.4080790     2.3720960     0.4641940
  H       -3.7741480    -1.2278540     0.2772780
  H       -3.6082280     1.2145190     0.7397060
units angstrom
no_reorient  #important for SAPT in psi4, default
symmetry c1  #important for SAPT in psi4, default
}

set PROPERTIES_ORIGIN ["COM"]
properties('MP2/aug-cc-pvtz', properties = ['dipole'])
--------------------------------------------------------------------------

    Molecular point group: c1
  Charge       = 0
  Multiplicity = 1
  Basis Set: AUG-CC-PVTZ
    Blend: AUG-CC-PVTZ
  Basis Set: (AUG-CC-PVTZ AUX)
    Blend: AUG-CC-PVTZ-JKFIT

    Orbital Energies [Eh]
    ---------------------

    Doubly Occupied:

       1A    -20.515066     2A    -15.582753     3A    -11.351380
       4A    -11.276250     5A    -11.258969     6A    -11.248611
       7A    -11.247301     8A    -11.245568     9A    -11.241308
      10A    -11.239581    11A    -11.239208    12A    -11.237804
      13A     -1.368976    14A     -1.234618    15A     -1.163472
      16A     -1.081251    17A     -1.036429    18A     -1.020202
      19A     -0.939156    20A     -0.881240    21A     -0.840157
      22A     -0.799322    23A     -0.776246    24A     -0.696394
      25A     -0.686557    26A     -0.671198    27A     -0.652277
      28A     -0.623658    29A     -0.615563    30A     -0.599914
      31A     -0.586678    32A     -0.576679    33A     -0.557562
      34A     -0.535409    35A     -0.518158    36A     -0.509998
      37A     -0.497363    38A     -0.489683    39A     -0.475160
      40A     -0.423207    41A     -0.389440    42A     -0.343758
      43A     -0.336042

  @DF-RHF Final Energy:  -514.59633443747953

   => Energetics <=

    Nuclear Repulsion Energy =            684.6563721600080044
    One-Electron Energy =               -2057.2862848709710306
    Two-Electron Energy =                 858.0335782734834993
    Total Energy =                       -514.5963344374795270
  Basis Set: (AUG-CC-PVTZ AUX)
    Blend: AUG-CC-PVTZ-RI
    Molecular point group: c1

    Geometry (in Angstrom), charge = 0, multiplicity = 1:

       Center              X                  Y                   Z               Mass
    ------------   -----------------  -----------------  -----------------  -----------------
         O            0.956479773352     2.467915185267    -0.645764413168    15.994914619570
         N            2.061113773352     0.650902185267     0.188869586832    14.003074004430
         C            0.774321073352    -1.627476014733    -0.867188013168    12.000000000000
         C            1.830500773352    -1.818128814733     0.230302586832    12.000000000000
         C           -0.435018226648    -0.839569814733    -0.370585413168    12.000000000000
         C            2.041428773352    -0.536723814733     1.036795586832    12.000000000000
         C           -0.350353226648     0.538057185267    -0.080459413168    12.000000000000
         C            0.926654773352     1.312395185267    -0.212163413168    12.000000000000
         C           -1.676633226648    -1.470127814733    -0.225973413168    12.000000000000
         C           -1.488860226648     1.256617185267     0.302503586832    12.000000000000
         C           -2.806482226648    -0.761343814733     0.185399586832    12.000000000000
         C           -2.713413226648     0.607770185267     0.446580586832    12.000000000000
         H            0.453078773352    -2.568637814733    -1.266074413168     1.007825032230
         H            1.231325773352    -1.048081814733    -1.684715413168     1.007825032230
         H            1.521270773352    -2.617452814733     0.915264586832     1.007825032230
         H            2.769101773352    -2.134813814733    -0.239520413168     1.007825032230
         H            1.243763773352    -0.435292814733     1.780609586832     1.007825032230
         H            2.987717773352    -0.572920814733     1.584396586832     1.007825032230
         H            2.894048773352     1.230415185267     0.166801586832     1.007825032230
         H           -1.760815226648    -2.531237814733    -0.456247413168     1.007825032230
         H           -1.393349226648     2.325130185267     0.478117586832     1.007825032230
         H           -3.759418226648    -1.274819814733     0.291201586832     1.007825032230
         H           -3.593498226648     1.167553185267     0.753629586832     1.007825032230

  Basis Set: AUG-CC-PVTZ
    Blend: AUG-CC-PVTZ
  Basis Set: (AUG-CC-PVTZ AUX)
    Blend: AUG-CC-PVTZ-JKFIT
	 Reference Energy          =    -514.5963344374795270 [Eh]
	 Singles Energy            =      -0.0000000000000000 [Eh]
	 Same-Spin Energy          =      -0.5584358782804008 [Eh]
	 Opposite-Spin Energy      =      -1.7441488932022633 [Eh]
	 Correlation Energy        =      -2.3025847714826639 [Eh]
	 Total Energy              =    -516.8989192089621838 [Eh]

	 ================> DF-SCS-MP2 Energies <==================
	-----------------------------------------------------------
	 SCS Same-Spin Scale       =       0.3333333333333333 [-]
	 SCS Opposite-Spin Scale   =       1.2000000000000000 [-]
	 SCS Same-Spin Energy      =      -0.1861452927601336 [Eh]
	 SCS Opposite-Spin Energy  =      -2.0929786718427157 [Eh]
	 SCS Correlation Energy    =      -2.2791239646028494 [Eh]
	 SCS Total Energy          =    -516.8754584020823586 [Eh]
	-----------------------------------------------------------

  Dipole Moment: [D]
     X:     0.6304      Y:    -3.6269      Z:     1.7662     Total:     4.0831

*** Psi4 exiting successfully. Buy a developer a beer!
