                               Psi4 1.3.2 release

  ==> Input File <==

--------------------------------------------------------------------------
#psi4
#
memory 32 gb

molecule  {
0 1
  O        0.9417500     2.5148810    -0.6596880
  N        2.0463840     0.6978680     0.1749460
  C        0.7564320    -1.5550710    -0.8733250
  C        1.8157710    -1.7711630     0.2163790
  C       -0.4497480    -0.7926040    -0.3845090
  C        2.0266990    -0.4897580     1.0228720
  C       -0.3650830     0.5850230    -0.0943830
  C        0.8632505     1.2782365    -0.2107547
  C       -1.6913630    -1.4231620    -0.2398970
  C       -1.5035900     1.3035830     0.2885800
  C       -2.8212120    -0.7143780     0.1714760
  C       -2.7281430     0.6547360     0.4326570
  H        0.4383490    -2.5216720    -1.2799980
  H        1.2165960    -1.0011160    -1.6986390
  H        1.5065410    -2.5704870     0.9013410
  H        2.7543720    -2.0878480    -0.2534440
  H        1.2290340    -0.3883270     1.7666860
  H        2.9729880    -0.5259550     1.5704730
  H        2.8793190     1.2773810     0.1528780
  H       -1.7755450    -2.4842720    -0.4701710
  H       -1.4080790     2.3720960     0.4641940
  H       -3.7741480    -1.2278540     0.2772780
  H       -3.6082280     1.2145190     0.7397060
units angstrom
no_reorient  #important for SAPT in psi4, default
symmetry c1  #important for SAPT in psi4, default
}

set PROPERTIES_ORIGIN ["COM"]
properties('MP2/aug-cc-pvtz', properties = ['dipole'])
--------------------------------------------------------------------------

    Molecular point group: c1
  Charge       = 0
  Multiplicity = 1
  Basis Set: AUG-CC-PVTZ
    Blend: AUG-CC-PVTZ
  Basis Set: (AUG-CC-PVTZ AUX)
    Blend: AUG-CC-PVTZ-JKFIT

    Orbital Energies [Eh]
    ---------------------

    Doubly Occupied:

       1A    -20.500754     2A    -15.587400     3A    -11.352450
       4A    -11.275336     5A    -11.264793     6A    -11.255463
       7A    -11.252788     8A    -11.246857     9A    -11.245496
      10A    -11.243724    11A    -11.242813    12A    -11.240193
      13A     -1.326441    14A     -1.222939    15A     -1.171170
      16A     -1.084853    17A     -1.050146    18A     -1.023964
      19A     -0.940424    20A     -0.896423    21A     -0.845067
      22A     -0.802095    23A     -0.781917    24A     -0.707212
      25A     -0.684510    26A     -0.675793    27A     -0.651860
      28A     -0.626739    29A     -0.615938    30A     -0.602584
      31A     -0.582887    32A     -0.563558    33A     -0.553419
      34A     -0.537153    35A     -0.517372    36A     -0.509385
      37A     -0.492912    38A     -0.490846    39A     -0.475935
      40A     -0.414777    41A     -0.380165    42A     -0.347284
      43A     -0.340362

  @DF-RHF Final Energy:  -514.57576667782052

   => Energetics <=

    Nuclear Repulsion Energy =            685.8455435815112651
    One-Electron Energy =               -2059.5942306360834664
    Two-Electron Energy =                 859.1729203767516765
    Total Energy =                       -514.5757666778205248
  Basis Set: (AUG-CC-PVTZ AUX)
    Blend: AUG-CC-PVTZ-RI
    Molecular point group: c1

    Geometry (in Angstrom), charge = 0, multiplicity = 1:

       Center              X                  Y                   Z               Mass
    ------------   -----------------  -----------------  -----------------  -----------------
         O            0.960341146008     2.472063476435    -0.647486661745    15.994914619570
         N            2.064975146008     0.655050476435     0.187147338255    14.003074004430
         C            0.775023146008    -1.597888523565    -0.861123661745    12.000000000000
         C            1.834362146008    -1.813980523565     0.228580338255    12.000000000000
         C           -0.431156853992    -0.835421523565    -0.372307661745    12.000000000000
         C            2.045290146008    -0.532575523565     1.035073338255    12.000000000000
         C           -0.346491853992     0.542205476435    -0.082181661745    12.000000000000
         C            0.881841646008     1.235418976435    -0.198553361745    12.000000000000
         C           -1.672771853992    -1.465979523565    -0.227695661745    12.000000000000
         C           -1.484998853992     1.260765476435     0.300781338255    12.000000000000
         C           -2.802620853992    -0.757195523565     0.183677338255    12.000000000000
         C           -2.709551853992     0.611918476435     0.444858338255    12.000000000000
         H            0.456940146008    -2.564489523565    -1.267796661745     1.007825032230
         H            1.235187146008    -1.043933523565    -1.686437661745     1.007825032230
         H            1.525132146008    -2.613304523565     0.913542338255     1.007825032230
         H            2.772963146008    -2.130665523565    -0.241242661745     1.007825032230
         H            1.247625146008    -0.431144523565     1.778887338255     1.007825032230
         H            2.991579146008    -0.568772523565     1.582674338255     1.007825032230
         H            2.897910146008     1.234563476435     0.165079338255     1.007825032230
         H           -1.756953853992    -2.527089523565    -0.457969661745     1.007825032230
         H           -1.389487853992     2.329278476435     0.476395338255     1.007825032230
         H           -3.755556853992    -1.270671523565     0.289479338255     1.007825032230
         H           -3.589636853992     1.171701476435     0.751907338255     1.007825032230

  Basis Set: AUG-CC-PVTZ
    Blend: AUG-CC-PVTZ
  Basis Set: (AUG-CC-PVTZ AUX)
    Blend: AUG-CC-PVTZ-JKFIT
	 Reference Energy          =    -514.5757666778205248 [Eh]
	 Singles Energy            =      -0.0000000000000000 [Eh]
	 Same-Spin Energy          =      -0.5612359277701867 [Eh]
	 Opposite-Spin Energy      =      -1.7493062797721159 [Eh]
	 Correlation Energy        =      -2.3105422075423028 [Eh]
	 Total Energy              =    -516.8863088853628369 [Eh]

	 ================> DF-SCS-MP2 Energies <==================
	-----------------------------------------------------------
	 SCS Same-Spin Scale       =       0.3333333333333333 [-]
	 SCS Opposite-Spin Scale   =       1.2000000000000000 [-]
	 SCS Same-Spin Energy      =      -0.1870786425900622 [Eh]
	 SCS Opposite-Spin Energy  =      -2.0991675357265391 [Eh]
	 SCS Correlation Energy    =      -2.2862461783166013 [Eh]
	 SCS Total Energy          =    -516.8620128561370848 [Eh]
	-----------------------------------------------------------

  Dipole Moment: [D]
     X:     0.3327      Y:    -4.1059      Z:     1.9074     Total:     4.5395

*** Psi4 exiting successfully. Buy a developer a beer!
