                               Psi4 1.3.2 release

  ==> Input File <==

--------------------------------------------------------------------------
#psi4
#
memory 32 gb

molecule  {
0 1
  O        0.9417500     2.5148810    -0.6596880
  N        2.0463840     0.6978680     0.1749460
  C        0.7564320    -1.5550710    -0.8733250
  C        1.8157710    -1.7711630     0.2163790
  C       -0.4497480    -0.7926040    -0.3845090
  C        2.0280479    -0.4083798     0.9647706
  C       -0.3650830     0.5850230    -0.0943830
  C        0.9119250     1.3593610    -0.2260870
  C       -1.6913630    -1.4231620    -0.2398970
  C       -1.5035900     1.3035830     0.2885800
  C       -2.8212120    -0.7143780     0.1714760
  C       -2.7281430     0.6547360     0.4326570
  H        0.4383490    -2.5216720    -1.2799980
  H        1.2165960    -1.0011160    -1.6986390
  H        1.5065410    -2.5704870     0.9013410
  H        2.7543720    -2.0878480    -0.2534440
  H        1.2290340    -0.3883270     1.7666860
  H        2.9729880    -0.5259550     1.5704730
  H        2.8793190     1.2773810     0.1528780
  H       -1.7755450    -2.4842720    -0.4701710
  H       -1.4080790     2.3720960     0.4641940
  H       -3.7741480    -1.2278540     0.2772780
  H       -3.6082280     1.2145190     0.7397060
units angstrom
no_reorient  #important for SAPT in psi4, default
symmetry c1  #important for SAPT in psi4, default
}

set PROPERTIES_ORIGIN ["COM"]
properties('MP2/aug-cc-pvtz', properties = ['dipole'])
--------------------------------------------------------------------------

    Molecular point group: c1
  Charge       = 0
  Multiplicity = 1
  Basis Set: AUG-CC-PVTZ
    Blend: AUG-CC-PVTZ
  Basis Set: (AUG-CC-PVTZ AUX)
    Blend: AUG-CC-PVTZ-JKFIT

    Orbital Energies [Eh]
    ---------------------

    Doubly Occupied:

       1A    -20.519857     2A    -15.585965     3A    -11.355643
       4A    -11.275038     5A    -11.258674     6A    -11.249335
       7A    -11.248112     8A    -11.246449     9A    -11.241735
      10A    -11.240058    11A    -11.237593    12A    -11.236112
      13A     -1.375418    14A     -1.260527    15A     -1.165698
      16A     -1.079571    17A     -1.037396    18A     -1.016479
      19A     -0.934795    20A     -0.886779    21A     -0.842049
      22A     -0.799970    23A     -0.780591    24A     -0.702507
      25A     -0.694343    26A     -0.672835    27A     -0.657781
      28A     -0.624882    29A     -0.613273    30A     -0.600859
      31A     -0.591848    32A     -0.578219    33A     -0.557419
      34A     -0.531763    35A     -0.516078    36A     -0.507852
      37A     -0.491381    38A     -0.485104    39A     -0.474870
      40A     -0.427498    41A     -0.384517    42A     -0.344481
      43A     -0.335825

  @DF-RHF Final Energy:  -514.58560424260907

   => Energetics <=

    Nuclear Repulsion Energy =            686.4750431152733654
    One-Electron Energy =               -2060.7869357303493416
    Two-Electron Energy =                 859.7262883724669109
    Total Energy =                       -514.5856042426090653
  Basis Set: (AUG-CC-PVTZ AUX)
    Blend: AUG-CC-PVTZ-RI
    Molecular point group: c1

    Geometry (in Angstrom), charge = 0, multiplicity = 1:

       Center              X                  Y                   Z               Mass
    ------------   -----------------  -----------------  -----------------  -----------------
         O            0.956614639579     2.459957794769    -0.642016198819    15.994914619570
         N            2.061248639579     0.642944794769     0.192617801181    14.003074004430
         C            0.771296639579    -1.609994205231    -0.855653198819    12.000000000000
         C            1.830635639579    -1.826086205231     0.234050801181    12.000000000000
         C           -0.434883360421    -0.847527205231    -0.366837198819    12.000000000000
         C            2.042912539579    -0.463303005231     0.982442401181    12.000000000000
         C           -0.350218360421     0.530099794769    -0.076711198819    12.000000000000
         C            0.926789639579     1.304437794769    -0.208415198819    12.000000000000
         C           -1.676498360421    -1.478085205231    -0.222225198819    12.000000000000
         C           -1.488725360421     1.248659794769     0.306251801181    12.000000000000
         C           -2.806347360421    -0.769301205231     0.189147801181    12.000000000000
         C           -2.713278360421     0.599812794769     0.450328801181    12.000000000000
         H            0.453213639579    -2.576595205231    -1.262326198819     1.007825032230
         H            1.231460639579    -1.056039205231    -1.680967198819     1.007825032230
         H            1.521405639579    -2.625410205231     0.919012801181     1.007825032230
         H            2.769236639579    -2.142771205231    -0.235772198819     1.007825032230
         H            1.243898639579    -0.443250205231     1.784357801181     1.007825032230
         H            2.987852639579    -0.580878205231     1.588144801181     1.007825032230
         H            2.894183639579     1.222457794769     0.170549801181     1.007825032230
         H           -1.760680360421    -2.539195205231    -0.452499198819     1.007825032230
         H           -1.393214360421     2.317172794769     0.481865801181     1.007825032230
         H           -3.759283360421    -1.282777205231     0.294949801181     1.007825032230
         H           -3.593363360421     1.159595794769     0.757377801181     1.007825032230

  Basis Set: AUG-CC-PVTZ
    Blend: AUG-CC-PVTZ
  Basis Set: (AUG-CC-PVTZ AUX)
    Blend: AUG-CC-PVTZ-JKFIT
	 Reference Energy          =    -514.5856042426090653 [Eh]
	 Singles Energy            =      -0.0000000000000000 [Eh]
	 Same-Spin Energy          =      -0.5595375284422697 [Eh]
	 Opposite-Spin Energy      =      -1.7451058167297262 [Eh]
	 Correlation Energy        =      -2.3046433451719959 [Eh]
	 Total Energy              =    -516.8902475877810048 [Eh]

	 ================> DF-SCS-MP2 Energies <==================
	-----------------------------------------------------------
	 SCS Same-Spin Scale       =       0.3333333333333333 [-]
	 SCS Opposite-Spin Scale   =       1.2000000000000000 [-]
	 SCS Same-Spin Energy      =      -0.1865125094807565 [Eh]
	 SCS Opposite-Spin Energy  =      -2.0941269800756714 [Eh]
	 SCS Correlation Energy    =      -2.2806394895564281 [Eh]
	 SCS Total Energy          =    -516.8662437321654579 [Eh]
	-----------------------------------------------------------

  Dipole Moment: [D]
     X:     0.5853      Y:    -3.3730      Z:     1.6250     Total:     3.7895

*** Psi4 exiting successfully. Buy a developer a beer!
