                               Psi4 1.4a3.dev225

  ==> Input File <==

--------------------------------------------------------------------------
#psi4
#
memory 32 gb

molecule  {
0 1
  O        0.9417500     2.5148810    -0.6596880
  N        2.0463840     0.6978680     0.1749460
  C        0.7564320    -1.5550710    -0.8733250
  C        1.8157710    -1.7711630     0.2163790
  C       -0.4497480    -0.7926040    -0.3845090
  C        2.0266990    -0.4897580     1.0228720
  C       -0.3650830     0.5850230    -0.0943830
  C        0.9124082     1.3780806    -0.2331114
  C       -1.6913630    -1.4231620    -0.2398970
  C       -1.5035900     1.3035830     0.2885800
  C       -2.8212120    -0.7143780     0.1714760
  C       -2.7281430     0.6547360     0.4326570
  H        0.4383490    -2.5216720    -1.2799980
  H        1.2165960    -1.0011160    -1.6986390
  H        1.5065410    -2.5704870     0.9013410
  H        2.7543720    -2.0878480    -0.2534440
  H        1.2290340    -0.3883270     1.7666860
  H        2.9729880    -0.5259550     1.5704730
  H        2.8793190     1.2773810     0.1528780
  H       -1.7755450    -2.4842720    -0.4701710
  H       -1.4080790     2.3720960     0.4641940
  H       -3.7741480    -1.2278540     0.2772780
  H       -3.6082280     1.2145190     0.7397060
units angstrom
no_reorient  #important for SAPT in psi4, default
symmetry c1  #important for SAPT in psi4, default
}

set PROPERTIES_ORIGIN ["COM"]
properties('MP2/aug-cc-pvtz', properties = ['dipole'])
--------------------------------------------------------------------------

    Molecular point group: c1
  Charge       = 0
  Multiplicity = 1
  Basis Set: AUG-CC-PVTZ
    Blend: AUG-CC-PVTZ
  Basis Set: (AUG-CC-PVTZ AUX)
    Blend: AUG-CC-PVTZ-JKFIT

    Orbital Energies [Eh]
    ---------------------

    Doubly Occupied:

       1A    -20.519400     2A    -15.579997     3A    -11.351436
       4A    -11.274705     5A    -11.257573     6A    -11.248047
       7A    -11.246715     8A    -11.244777     9A    -11.241290
      10A    -11.239345    11A    -11.238481    12A    -11.236883
      13A     -1.381983    14A     -1.233036    15A     -1.163163
      16A     -1.081190    17A     -1.035214    18A     -1.019659
      19A     -0.936964    20A     -0.879113    21A     -0.840179
      22A     -0.797535    23A     -0.774177    24A     -0.695076
      25A     -0.685309    26A     -0.671899    27A     -0.652628
      28A     -0.624707    29A     -0.615489    30A     -0.599673
      31A     -0.590177    32A     -0.576175    33A     -0.558734
      34A     -0.535335    35A     -0.519620    36A     -0.510873
      37A     -0.492304    38A     -0.489559    39A     -0.478445
      40A     -0.424401    41A     -0.389953    42A     -0.343603
      43A     -0.335527

  @DF-RHF Final Energy:  -514.59756095882960

   => Energetics <=

    Nuclear Repulsion Energy =            685.0047084205588135
    One-Electron Energy =               -2057.9838365394539323
    Two-Electron Energy =                 858.3815671600654014
    Total Energy =                       -514.5975609588296038
  Basis Set: (AUG-CC-PVTZ AUX)
    Blend: AUG-CC-PVTZ-RI
    Molecular point group: c1

    Geometry (in Angstrom), charge = 0, multiplicity = 1:

       Center              X                  Y                   Z               Mass
    ------------   -----------------  -----------------  -----------------  -----------------
         O            0.956679130130     2.464625563768    -0.645821193459    15.994914619570
         N            2.061313130130     0.647612563768     0.188812806541    14.003074004430
         C            0.771361130130    -1.605326436232    -0.859458193459    12.000000000000
         C            1.830700130130    -1.821418436232     0.230245806541    12.000000000000
         C           -0.434818869870    -0.842859436232    -0.370642193459    12.000000000000
         C            2.041628130130    -0.540013436232     1.036738806541    12.000000000000
         C           -0.350153869870     0.534767563768    -0.080516193459    12.000000000000
         C            0.927337330130     1.327825163768    -0.219244593459    12.000000000000
         C           -1.676433869870    -1.473417436232    -0.226030193459    12.000000000000
         C           -1.488660869870     1.253327563768     0.302446806541    12.000000000000
         C           -2.806282869870    -0.764633436232     0.185342806541    12.000000000000
         C           -2.713213869870     0.604480563768     0.446523806541    12.000000000000
         H            0.453278130130    -2.571927436232    -1.266131193459     1.007825032230
         H            1.231525130130    -1.051371436232    -1.684772193459     1.007825032230
         H            1.521470130130    -2.620742436232     0.915207806541     1.007825032230
         H            2.769301130130    -2.138103436232    -0.239577193459     1.007825032230
         H            1.243963130130    -0.438582436232     1.780552806541     1.007825032230
         H            2.987917130130    -0.576210436232     1.584339806541     1.007825032230
         H            2.894248130130     1.227125563768     0.166744806541     1.007825032230
         H           -1.760615869870    -2.534527436232    -0.456304193459     1.007825032230
         H           -1.393149869870     2.321840563768     0.478060806541     1.007825032230
         H           -3.759218869870    -1.278109436232     0.291144806541     1.007825032230
         H           -3.593298869870     1.164263563768     0.753572806541     1.007825032230

  Basis Set: AUG-CC-PVTZ
    Blend: AUG-CC-PVTZ
  Basis Set: (AUG-CC-PVTZ AUX)
    Blend: AUG-CC-PVTZ-JKFIT
	 Reference Energy          =    -514.5975609588296038 [Eh]
	 Singles Energy            =      -0.0000000000000000 [Eh]
	 Same-Spin Energy          =      -0.5582040496313323 [Eh]
	 Opposite-Spin Energy      =      -1.7435362457098740 [Eh]
	 Correlation Energy        =      -2.3017402953412063 [Eh]
	 Total Energy              =    -516.8993012541708367 [Eh]

	 ================> DF-SCS-MP2 Energies <==================
	-----------------------------------------------------------
	 SCS Same-Spin Scale       =       0.3333333333333333 [-]
	 SCS Opposite-Spin Scale   =       1.2000000000000000 [-]
	 SCS Same-Spin Energy      =      -0.1860680165437774 [Eh]
	 SCS Opposite-Spin Energy  =      -2.0922434948518487 [Eh]
	 SCS Correlation Energy    =      -2.2783115113956263 [Eh]
	 SCS Total Energy          =    -516.8758724702252039 [Eh]
	-----------------------------------------------------------

  Dipole Moment: [D]
     X:     0.6173      Y:    -3.4687      Z:     1.7098     Total:     3.9161

*** Psi4 exiting successfully. Buy a developer a beer!
