                               Psi4 1.3.2 release

  ==> Input File <==

--------------------------------------------------------------------------
#psi4
#
memory 32 gb

molecule  {
0 1
  O        0.9417500     2.5148810    -0.6596880
  N        2.0463840     0.6978680     0.1749460
  C        0.7564320    -1.5550710    -0.8733250
  C        1.8157710    -1.7711630     0.2163790
  C       -0.4497480    -0.7926040    -0.3845090
  C        2.0266990    -0.4897580     1.0228720
  C       -0.3650830     0.5850230    -0.0943830
  C        0.9119250     1.3593610    -0.2260870
  C       -1.6913630    -1.4231620    -0.2398970
  C       -1.6662676     1.4062557     0.3433003
  C       -2.8212120    -0.7143780     0.1714760
  C       -2.7281430     0.6547360     0.4326570
  H        0.4383490    -2.5216720    -1.2799980
  H        1.2165960    -1.0011160    -1.6986390
  H        1.5065410    -2.5704870     0.9013410
  H        2.7543720    -2.0878480    -0.2534440
  H        1.2290340    -0.3883270     1.7666860
  H        2.9729880    -0.5259550     1.5704730
  H        2.8793190     1.2773810     0.1528780
  H       -1.7755450    -2.4842720    -0.4701710
  H       -1.4080790     2.3720960     0.4641940
  H       -3.7741480    -1.2278540     0.2772780
  H       -3.6082280     1.2145190     0.7397060
units angstrom
no_reorient  #important for SAPT in psi4, default
symmetry c1  #important for SAPT in psi4, default
}

set PROPERTIES_ORIGIN ["COM"]
properties('MP2/aug-cc-pvtz', properties = ['dipole'])
--------------------------------------------------------------------------

    Molecular point group: c1
  Charge       = 0
  Multiplicity = 1
  Basis Set: AUG-CC-PVTZ
    Blend: AUG-CC-PVTZ
  Basis Set: (AUG-CC-PVTZ AUX)
    Blend: AUG-CC-PVTZ-JKFIT

    Orbital Energies [Eh]
    ---------------------

    Doubly Occupied:

       1A    -20.514324     2A    -15.581926     3A    -11.350783
       4A    -11.274739     5A    -11.259468     6A    -11.258313
       7A    -11.251660     8A    -11.247960     9A    -11.245853
      10A    -11.239604    11A    -11.237877    12A    -11.232494
      13A     -1.367862    14A     -1.233664    15A     -1.158516
      16A     -1.086641    17A     -1.033369    18A     -1.019028
      19A     -0.937118    20A     -0.888866    21A     -0.840384
      22A     -0.798122    23A     -0.771067    24A     -0.694430
      25A     -0.686261    26A     -0.683642    27A     -0.652967
      28A     -0.639066    29A     -0.616909    30A     -0.592029
      31A     -0.584518    32A     -0.574723    33A     -0.554454
      34A     -0.532995    35A     -0.527840    36A     -0.512266
      37A     -0.490163    38A     -0.487995    39A     -0.456434
      40A     -0.420358    41A     -0.389088    42A     -0.355451
      43A     -0.324823

  @DF-RHF Final Energy:  -514.55509852098908

   => Energetics <=

    Nuclear Repulsion Energy =            681.9681424525356306
    One-Electron Energy =               -2051.8343849079815300
    Two-Electron Energy =                 855.3111439344568225
    Total Energy =                       -514.5550985209890769
  Basis Set: (AUG-CC-PVTZ AUX)
    Blend: AUG-CC-PVTZ-RI
    Molecular point group: c1

    Geometry (in Angstrom), charge = 0, multiplicity = 1:

       Center              X                  Y                   Z               Mass
    ------------   -----------------  -----------------  -----------------  -----------------
         O            0.968833837130     2.458371455353    -0.650420881235    15.994914619570
         N            2.073467837130     0.641358455353     0.184213118765    14.003074004430
         C            0.783515837130    -1.611580544647    -0.864057881235    12.000000000000
         C            1.842854837130    -1.827672544647     0.225646118765    12.000000000000
         C           -0.422664162870    -0.849113544647    -0.375241881235    12.000000000000
         C            2.053782837130    -0.546267544647     1.032139118765    12.000000000000
         C           -0.337999162870     0.528513455353    -0.085115881235    12.000000000000
         C            0.939008837130     1.302851455353    -0.216819881235    12.000000000000
         C           -1.664279162870    -1.479671544647    -0.230629881235    12.000000000000
         C           -1.639183762870     1.349746155353     0.352567418765    12.000000000000
         C           -2.794128162870    -0.770887544647     0.180743118765    12.000000000000
         C           -2.701059162870     0.598226455353     0.441924118765    12.000000000000
         H            0.465432837130    -2.578181544647    -1.270730881235     1.007825032230
         H            1.243679837130    -1.057625544647    -1.689371881235     1.007825032230
         H            1.533624837130    -2.626996544647     0.910608118765     1.007825032230
         H            2.781455837130    -2.144357544647    -0.244176881235     1.007825032230
         H            1.256117837130    -0.444836544647     1.775953118765     1.007825032230
         H            3.000071837130    -0.582464544647     1.579740118765     1.007825032230
         H            2.906402837130     1.220871455353     0.162145118765     1.007825032230
         H           -1.748461162870    -2.540781544647    -0.460903881235     1.007825032230
         H           -1.380995162870     2.315586455353     0.473461118765     1.007825032230
         H           -3.747064162870    -1.284363544647     0.286545118765     1.007825032230
         H           -3.581144162870     1.158009455353     0.748973118765     1.007825032230

  Basis Set: AUG-CC-PVTZ
    Blend: AUG-CC-PVTZ
  Basis Set: (AUG-CC-PVTZ AUX)
    Blend: AUG-CC-PVTZ-JKFIT
	 Reference Energy          =    -514.5550985209890769 [Eh]
	 Singles Energy            =      -0.0000000000000000 [Eh]
	 Same-Spin Energy          =      -0.5586116204175665 [Eh]
	 Opposite-Spin Energy      =      -1.7469607321850993 [Eh]
	 Correlation Energy        =      -2.3055723526026659 [Eh]
	 Total Energy              =    -516.8606708735917437 [Eh]

	 ================> DF-SCS-MP2 Energies <==================
	-----------------------------------------------------------
	 SCS Same-Spin Scale       =       0.3333333333333333 [-]
	 SCS Opposite-Spin Scale   =       1.2000000000000000 [-]
	 SCS Same-Spin Energy      =      -0.1862038734725222 [Eh]
	 SCS Opposite-Spin Energy  =      -2.0963528786221191 [Eh]
	 SCS Correlation Energy    =      -2.2825567520946413 [Eh]
	 SCS Total Energy          =    -516.8376552730836693 [Eh]
	-----------------------------------------------------------

  Dipole Moment: [D]
     X:     0.6255      Y:    -3.6516      Z:     1.7644     Total:     4.1035

*** Psi4 exiting successfully. Buy a developer a beer!
