                               Psi4 1.3.2 release

  ==> Input File <==

--------------------------------------------------------------------------
#psi4
#
memory 32 gb

molecule  {
0 1
  O        0.8135609     2.5058623    -0.6732840
  N        2.0463840     0.6978680     0.1749460
  C        0.7564320    -1.5550710    -0.8733250
  C        1.8157710    -1.7711630     0.2163790
  C       -0.4497480    -0.7926040    -0.3845090
  C        2.0266990    -0.4897580     1.0228720
  C       -0.3650830     0.5850230    -0.0943830
  C        0.9119250     1.3593610    -0.2260870
  C       -1.6913630    -1.4231620    -0.2398970
  C       -1.5035900     1.3035830     0.2885800
  C       -2.8212120    -0.7143780     0.1714760
  C       -2.7281430     0.6547360     0.4326570
  H        0.4383490    -2.5216720    -1.2799980
  H        1.2165960    -1.0011160    -1.6986390
  H        1.5065410    -2.5704870     0.9013410
  H        2.7543720    -2.0878480    -0.2534440
  H        1.2290340    -0.3883270     1.7666860
  H        2.9729880    -0.5259550     1.5704730
  H        2.8793190     1.2773810     0.1528780
  H       -1.7755450    -2.4842720    -0.4701710
  H       -1.4080790     2.3720960     0.4641940
  H       -3.7741480    -1.2278540     0.2772780
  H       -3.6082280     1.2145190     0.7397060
units angstrom
no_reorient  #important for SAPT in psi4, default
symmetry c1  #important for SAPT in psi4, default
}

set PROPERTIES_ORIGIN ["COM"]
properties('MP2/aug-cc-pvtz', properties = ['dipole'])
--------------------------------------------------------------------------

    Molecular point group: c1
  Charge       = 0
  Multiplicity = 1
  Basis Set: AUG-CC-PVTZ
    Blend: AUG-CC-PVTZ
  Basis Set: (AUG-CC-PVTZ AUX)
    Blend: AUG-CC-PVTZ-JKFIT

    Orbital Energies [Eh]
    ---------------------

    Doubly Occupied:

       1A    -20.517190     2A    -15.589646     3A    -11.352682
       4A    -11.279162     5A    -11.254306     6A    -11.245355
       7A    -11.242442     8A    -11.241159     9A    -11.239113
      10A    -11.238944    11A    -11.238450    12A    -11.236885
      13A     -1.369573    14A     -1.241647    15A     -1.161126
      16A     -1.082018    17A     -1.033271    18A     -1.019269
      19A     -0.938994    20A     -0.879992    21A     -0.840241
      22A     -0.796868    23A     -0.776493    24A     -0.697307
      25A     -0.687033    26A     -0.671063    27A     -0.652629
      28A     -0.621733    29A     -0.617337    30A     -0.598079
      31A     -0.587266    32A     -0.576260    33A     -0.556738
      34A     -0.535830    35A     -0.518443    36A     -0.507531
      37A     -0.492368    38A     -0.488495    39A     -0.477260
      40A     -0.422530    41A     -0.395101    42A     -0.338986
      43A     -0.333301

  @DF-RHF Final Energy:  -514.59318232616874

   => Energetics <=

    Nuclear Repulsion Energy =            685.8324117870793089
    One-Electron Energy =               -2059.6709623245415060
    Two-Electron Energy =                 859.2453682112934530
    Total Energy =                       -514.5931823261687441
  Basis Set: (AUG-CC-PVTZ AUX)
    Blend: AUG-CC-PVTZ-RI
    Molecular point group: c1

    Geometry (in Angstrom), charge = 0, multiplicity = 1:

       Center              X                  Y                   Z               Mass
    ------------   -----------------  -----------------  -----------------  -----------------
         O            0.841254620611     2.457896901201    -0.658590457059    15.994914619570
         N            2.074077720611     0.649902601201     0.189639542941    14.003074004430
         C            0.784125720611    -1.603036398799    -0.858631457059    12.000000000000
         C            1.843464720611    -1.819128398799     0.231072542941    12.000000000000
         C           -0.422054279389    -0.840569398799    -0.369815457059    12.000000000000
         C            2.054392720611    -0.537723398799     1.037565542941    12.000000000000
         C           -0.337389279389     0.537057601201    -0.079689457059    12.000000000000
         C            0.939618720611     1.311395601201    -0.211393457059    12.000000000000
         C           -1.663669279389    -1.471127398799    -0.225203457059    12.000000000000
         C           -1.475896279389     1.255617601201     0.303273542941    12.000000000000
         C           -2.793518279389    -0.762343398799     0.186169542941    12.000000000000
         C           -2.700449279389     0.606770601201     0.447350542941    12.000000000000
         H            0.466042720611    -2.569637398799    -1.265304457059     1.007825032230
         H            1.244289720611    -1.049081398799    -1.683945457059     1.007825032230
         H            1.534234720611    -2.618452398799     0.916034542941     1.007825032230
         H            2.782065720611    -2.135813398799    -0.238750457059     1.007825032230
         H            1.256727720611    -0.436292398799     1.781379542941     1.007825032230
         H            3.000681720611    -0.573920398799     1.585166542941     1.007825032230
         H            2.907012720611     1.229415601201     0.167571542941     1.007825032230
         H           -1.747851279389    -2.532237398799    -0.455477457059     1.007825032230
         H           -1.380385279389     2.324130601201     0.478887542941     1.007825032230
         H           -3.746454279389    -1.275819398799     0.291971542941     1.007825032230
         H           -3.580534279389     1.166553601201     0.754399542941     1.007825032230

  Basis Set: AUG-CC-PVTZ
    Blend: AUG-CC-PVTZ
  Basis Set: (AUG-CC-PVTZ AUX)
    Blend: AUG-CC-PVTZ-JKFIT
	 Reference Energy          =    -514.5931823261687441 [Eh]
	 Singles Energy            =      -0.0000000000000000 [Eh]
	 Same-Spin Energy          =      -0.5589442202218391 [Eh]
	 Opposite-Spin Energy      =      -1.7448775959221023 [Eh]
	 Correlation Energy        =      -2.3038218161439414 [Eh]
	 Total Energy              =    -516.8970041423126531 [Eh]

	 ================> DF-SCS-MP2 Energies <==================
	-----------------------------------------------------------
	 SCS Same-Spin Scale       =       0.3333333333333333 [-]
	 SCS Opposite-Spin Scale   =       1.2000000000000000 [-]
	 SCS Same-Spin Energy      =      -0.1863147400739464 [Eh]
	 SCS Opposite-Spin Energy  =      -2.0938531151065227 [Eh]
	 SCS Correlation Energy    =      -2.2801678551804692 [Eh]
	 SCS Total Energy          =    -516.8733501813492239 [Eh]
	-----------------------------------------------------------

  Dipole Moment: [D]
     X:     1.0525      Y:    -3.5127      Z:     1.7985     Total:     4.0843

*** Psi4 exiting successfully. Buy a developer a beer!
