                               Psi4 1.3.2 release

  ==> Input File <==

--------------------------------------------------------------------------
#psi4
#
memory 32 gb

molecule  {
0 1
  O        0.9417500     2.5148810    -0.6596880
  N        2.0463840     0.6978680     0.1749460
  C        0.8110546    -1.4652703    -0.8672761
  C        1.8157710    -1.7711630     0.2163790
  C       -0.4497480    -0.7926040    -0.3845090
  C        2.0266990    -0.4897580     1.0228720
  C       -0.3650830     0.5850230    -0.0943830
  C        0.9119250     1.3593610    -0.2260870
  C       -1.6913630    -1.4231620    -0.2398970
  C       -1.5035900     1.3035830     0.2885800
  C       -2.8212120    -0.7143780     0.1714760
  C       -2.7281430     0.6547360     0.4326570
  H        0.4383490    -2.5216720    -1.2799980
  H        1.2165960    -1.0011160    -1.6986390
  H        1.5065410    -2.5704870     0.9013410
  H        2.7543720    -2.0878480    -0.2534440
  H        1.2290340    -0.3883270     1.7666860
  H        2.9729880    -0.5259550     1.5704730
  H        2.8793190     1.2773810     0.1528780
  H       -1.7755450    -2.4842720    -0.4701710
  H       -1.4080790     2.3720960     0.4641940
  H       -3.7741480    -1.2278540     0.2772780
  H       -3.6082280     1.2145190     0.7397060
units angstrom
no_reorient  #important for SAPT in psi4, default
symmetry c1  #important for SAPT in psi4, default
}

set PROPERTIES_ORIGIN ["COM"]
properties('MP2/aug-cc-pvtz', properties = ['dipole'])
--------------------------------------------------------------------------

    Molecular point group: c1
  Charge       = 0
  Multiplicity = 1
  Basis Set: AUG-CC-PVTZ
    Blend: AUG-CC-PVTZ
  Basis Set: (AUG-CC-PVTZ AUX)
    Blend: AUG-CC-PVTZ-JKFIT

    Orbital Energies [Eh]
    ---------------------

    Doubly Occupied:

       1A    -20.515800     2A    -15.583125     3A    -11.351975
       4A    -11.274618     5A    -11.258590     6A    -11.249542
       7A    -11.246311     8A    -11.244955     9A    -11.243714
      10A    -11.241534    11A    -11.240511    12A    -11.237739
      13A     -1.369718    14A     -1.236312    15A     -1.164568
      16A     -1.085430    17A     -1.037798    18A     -1.021326
      19A     -0.937972    20A     -0.881039    21A     -0.844142
      22A     -0.797878    23A     -0.776878    24A     -0.698593
      25A     -0.684071    26A     -0.675354    27A     -0.654227
      28A     -0.621734    29A     -0.618764    30A     -0.600631
      31A     -0.588701    32A     -0.578603    33A     -0.553676
      34A     -0.538816    35A     -0.522185    36A     -0.510433
      37A     -0.497519    38A     -0.480316    39A     -0.467890
      40A     -0.424155    41A     -0.389995    42A     -0.344011
      43A     -0.338014

  @DF-RHF Final Energy:  -514.58365121439351

   => Energetics <=

    Nuclear Repulsion Energy =            686.1734156442830681
    One-Electron Energy =               -2060.2558089464532713
    Two-Electron Energy =                 859.4987420877766908
    Total Energy =                       -514.5836512143935124
  Basis Set: (AUG-CC-PVTZ AUX)
    Blend: AUG-CC-PVTZ-RI
    Molecular point group: c1

    Geometry (in Angstrom), charge = 0, multiplicity = 1:

       Center              X                  Y                   Z               Mass
    ------------   -----------------  -----------------  -----------------  -----------------
         O            0.952646001191     2.459330358401    -0.646795092404    15.994914619570
         N            2.057280001191     0.642317358401     0.187838907596    14.003074004430
         C            0.821950601191    -1.520820941599    -0.854383192404    12.000000000000
         C            1.826667001191    -1.826713641599     0.229271907596    12.000000000000
         C           -0.438851998809    -0.848154641599    -0.371616092404    12.000000000000
         C            2.037595001191    -0.545308641599     1.035764907596    12.000000000000
         C           -0.354186998809     0.529472358401    -0.081490092404    12.000000000000
         C            0.922821001191     1.303810358401    -0.213194092404    12.000000000000
         C           -1.680466998809    -1.478712641599    -0.227004092404    12.000000000000
         C           -1.492693998809     1.248032358401     0.301472907596    12.000000000000
         C           -2.810315998809    -0.769928641599     0.184368907596    12.000000000000
         C           -2.717246998809     0.599185358401     0.445549907596    12.000000000000
         H            0.449245001191    -2.577222641599    -1.267105092404     1.007825032230
         H            1.227492001191    -1.056666641599    -1.685746092404     1.007825032230
         H            1.517437001191    -2.626037641599     0.914233907596     1.007825032230
         H            2.765268001191    -2.143398641599    -0.240551092404     1.007825032230
         H            1.239930001191    -0.443877641599     1.779578907596     1.007825032230
         H            2.983884001191    -0.581505641599     1.583365907596     1.007825032230
         H            2.890215001191     1.221830358401     0.165770907596     1.007825032230
         H           -1.764648998809    -2.539822641599    -0.457278092404     1.007825032230
         H           -1.397182998809     2.316545358401     0.477086907596     1.007825032230
         H           -3.763251998809    -1.283404641599     0.290170907596     1.007825032230
         H           -3.597331998809     1.158968358401     0.752598907596     1.007825032230

  Basis Set: AUG-CC-PVTZ
    Blend: AUG-CC-PVTZ
  Basis Set: (AUG-CC-PVTZ AUX)
    Blend: AUG-CC-PVTZ-JKFIT
	 Reference Energy          =    -514.5836512143935124 [Eh]
	 Singles Energy            =      -0.0000000000000000 [Eh]
	 Same-Spin Energy          =      -0.5593257607831971 [Eh]
	 Opposite-Spin Energy      =      -1.7456130088486983 [Eh]
	 Correlation Energy        =      -2.3049387696318955 [Eh]
	 Total Energy              =    -516.8885899840254297 [Eh]

	 ================> DF-SCS-MP2 Energies <==================
	-----------------------------------------------------------
	 SCS Same-Spin Scale       =       0.3333333333333333 [-]
	 SCS Opposite-Spin Scale   =       1.2000000000000000 [-]
	 SCS Same-Spin Energy      =      -0.1864419202610657 [Eh]
	 SCS Opposite-Spin Energy  =      -2.0947356106184380 [Eh]
	 SCS Correlation Energy    =      -2.2811775308795039 [Eh]
	 SCS Total Energy          =    -516.8648287452730301 [Eh]
	-----------------------------------------------------------

  Dipole Moment: [D]
     X:     0.6297      Y:    -3.5415      Z:     1.7938     Total:     4.0195

*** Psi4 exiting successfully. Buy a developer a beer!
