                               Psi4 1.3.2 release

  ==> Input File <==

--------------------------------------------------------------------------
#psi4
#
memory 32 gb

molecule  {
0 1
  O        0.9844765     2.5150748    -0.6540914
  N        2.0463840     0.6978680     0.1749460
  C        0.7564320    -1.5550710    -0.8733250
  C        1.8157710    -1.7711630     0.2163790
  C       -0.4497480    -0.7926040    -0.3845090
  C        2.0266990    -0.4897580     1.0228720
  C       -0.3650830     0.5850230    -0.0943830
  C        0.9119250     1.3593610    -0.2260870
  C       -1.6913630    -1.4231620    -0.2398970
  C       -1.5035900     1.3035830     0.2885800
  C       -2.8212120    -0.7143780     0.1714760
  C       -2.7281430     0.6547360     0.4326570
  H        0.4383490    -2.5216720    -1.2799980
  H        1.2165960    -1.0011160    -1.6986390
  H        1.5065410    -2.5704870     0.9013410
  H        2.7543720    -2.0878480    -0.2534440
  H        1.2290340    -0.3883270     1.7666860
  H        2.9729880    -0.5259550     1.5704730
  H        2.8793190     1.2773810     0.1528780
  H       -1.7755450    -2.4842720    -0.4701710
  H       -1.4080790     2.3720960     0.4641940
  H       -3.7741480    -1.2278540     0.2772780
  H       -3.6082280     1.2145190     0.7397060
units angstrom
no_reorient  #important for SAPT in psi4, default
symmetry c1  #important for SAPT in psi4, default
}

set PROPERTIES_ORIGIN ["COM"]
properties('MP2/aug-cc-pvtz', properties = ['dipole'])
--------------------------------------------------------------------------

    Molecular point group: c1
  Charge       = 0
  Multiplicity = 1
  Basis Set: AUG-CC-PVTZ
    Blend: AUG-CC-PVTZ
  Basis Set: (AUG-CC-PVTZ AUX)
    Blend: AUG-CC-PVTZ-JKFIT

    Orbital Energies [Eh]
    ---------------------

    Doubly Occupied:

       1A    -20.514393     2A    -15.580362     3A    -11.351152
       4A    -11.274562     5A    -11.259536     6A    -11.249892
       7A    -11.248790     8A    -11.246917     9A    -11.242630
      10A    -11.240744    11A    -11.239524    12A    -11.237591
      13A     -1.369223    14A     -1.232458    15A     -1.165146
      16A     -1.082304    17A     -1.037900    18A     -1.020980
      19A     -0.938072    20A     -0.882107    21A     -0.841623
      22A     -0.798678    23A     -0.776331    24A     -0.696691
      25A     -0.685168    26A     -0.672469    27A     -0.652424
      28A     -0.623997    29A     -0.615514    30A     -0.600455
      31A     -0.587167    32A     -0.576397    33A     -0.557089
      34A     -0.535815    35A     -0.518688    36A     -0.510594
      37A     -0.492969    38A     -0.490361    39A     -0.478660
      40A     -0.423256    41A     -0.387450    42A     -0.345362
      43A     -0.336991

  @DF-RHF Final Energy:  -514.59642639225490

   => Energetics <=

    Nuclear Repulsion Energy =            684.9464196489614096
    One-Electron Energy =               -2057.8488312811691685
    Two-Electron Energy =                 858.3059852399528609
    Total Energy =                       -514.5964263922548980
  Basis Set: (AUG-CC-PVTZ AUX)
    Blend: AUG-CC-PVTZ-RI
    Molecular point group: c1

    Geometry (in Angstrom), charge = 0, multiplicity = 1:

       Center              X                  Y                   Z               Mass
    ------------   -----------------  -----------------  -----------------  -----------------
         O            0.995199079198     2.466194641868    -0.641303594912    15.994914619570
         N            2.057106579198     0.648987841868     0.187733805088    14.003074004430
         C            0.767154579198    -1.603951158132    -0.860537194912    12.000000000000
         C            1.826493579198    -1.820043158132     0.229166805088    12.000000000000
         C           -0.439025420802    -0.841484158132    -0.371721194912    12.000000000000
         C            2.037421579198    -0.538638158132     1.035659805088    12.000000000000
         C           -0.354360420802     0.536142841868    -0.081595194912    12.000000000000
         C            0.922647579198     1.310480841868    -0.213299194912    12.000000000000
         C           -1.680640420802    -1.472042158132    -0.227109194912    12.000000000000
         C           -1.492867420802     1.254702841868     0.301367805088    12.000000000000
         C           -2.810489420802    -0.763258158132     0.184263805088    12.000000000000
         C           -2.717420420802     0.605855841868     0.445444805088    12.000000000000
         H            0.449071579198    -2.570552158132    -1.267210194912     1.007825032230
         H            1.227318579198    -1.049996158132    -1.685851194912     1.007825032230
         H            1.517263579198    -2.619367158132     0.914128805088     1.007825032230
         H            2.765094579198    -2.136728158132    -0.240656194912     1.007825032230
         H            1.239756579198    -0.437207158132     1.779473805088     1.007825032230
         H            2.983710579198    -0.574835158132     1.583260805088     1.007825032230
         H            2.890041579198     1.228500841868     0.165665805088     1.007825032230
         H           -1.764822420802    -2.533152158132    -0.457383194912     1.007825032230
         H           -1.397356420802     2.323215841868     0.476981805088     1.007825032230
         H           -3.763425420802    -1.276734158132     0.290065805088     1.007825032230
         H           -3.597505420802     1.165638841868     0.752493805088     1.007825032230

  Basis Set: AUG-CC-PVTZ
    Blend: AUG-CC-PVTZ
  Basis Set: (AUG-CC-PVTZ AUX)
    Blend: AUG-CC-PVTZ-JKFIT
	 Reference Energy          =    -514.5964263922548980 [Eh]
	 Singles Energy            =      -0.0000000000000000 [Eh]
	 Same-Spin Energy          =      -0.5586073125057270 [Eh]
	 Opposite-Spin Energy      =      -1.7443160632845092 [Eh]
	 Correlation Energy        =      -2.3029233757902361 [Eh]
	 Total Energy              =    -516.8993497680451128 [Eh]

	 ================> DF-SCS-MP2 Energies <==================
	-----------------------------------------------------------
	 SCS Same-Spin Scale       =       0.3333333333333333 [-]
	 SCS Opposite-Spin Scale   =       1.2000000000000000 [-]
	 SCS Same-Spin Energy      =      -0.1862024375019090 [Eh]
	 SCS Opposite-Spin Energy  =      -2.0931792759414107 [Eh]
	 SCS Correlation Energy    =      -2.2793817134433199 [Eh]
	 SCS Total Energy          =    -516.8758081056981837 [Eh]
	-----------------------------------------------------------

  Dipole Moment: [D]
     X:     0.4901      Y:    -3.6397      Z:     1.7553     Total:     4.0704

*** Psi4 exiting successfully. Buy a developer a beer!
