                               Psi4 1.3.2 release

  ==> Input File <==

--------------------------------------------------------------------------
#psi4
#
memory 32 gb

molecule  {
0 1
  O        0.9417500     2.5148810    -0.6596880
  N        2.0463840     0.6978680     0.1749460
  C        0.7848692    -1.5109620    -0.8691216
  C        1.8157710    -1.7711630     0.2163790
  C       -0.4497480    -0.7926040    -0.3845090
  C        2.0266990    -0.4897580     1.0228720
  C       -0.3650830     0.5850230    -0.0943830
  C        0.9119250     1.3593610    -0.2260870
  C       -1.6913630    -1.4231620    -0.2398970
  C       -1.5035900     1.3035830     0.2885800
  C       -2.8212120    -0.7143780     0.1714760
  C       -2.7281430     0.6547360     0.4326570
  H        0.4383490    -2.5216720    -1.2799980
  H        1.2165960    -1.0011160    -1.6986390
  H        1.5065410    -2.5704870     0.9013410
  H        2.7543720    -2.0878480    -0.2534440
  H        1.2290340    -0.3883270     1.7666860
  H        2.9729880    -0.5259550     1.5704730
  H        2.8793190     1.2773810     0.1528780
  H       -1.7755450    -2.4842720    -0.4701710
  H       -1.4080790     2.3720960     0.4641940
  H       -3.7741480    -1.2278540     0.2772780
  H       -3.6082280     1.2145190     0.7397060
units angstrom
no_reorient  #important for SAPT in psi4, default
symmetry c1  #important for SAPT in psi4, default
}

set PROPERTIES_ORIGIN ["COM"]
properties('MP2/aug-cc-pvtz', properties = ['dipole'])
--------------------------------------------------------------------------

    Molecular point group: c1
  Charge       = 0
  Multiplicity = 1
  Basis Set: AUG-CC-PVTZ
    Blend: AUG-CC-PVTZ
  Basis Set: (AUG-CC-PVTZ AUX)
    Blend: AUG-CC-PVTZ-JKFIT

    Orbital Energies [Eh]
    ---------------------

    Doubly Occupied:

       1A    -20.515430     2A    -15.582874     3A    -11.351675
       4A    -11.275150     5A    -11.258259     6A    -11.249148
       7A    -11.246691     8A    -11.245208     9A    -11.242705
      10A    -11.240146    11A    -11.240125    12A    -11.237569
      13A     -1.369342    14A     -1.235499    15A     -1.164326
      16A     -1.083926    17A     -1.037220    18A     -1.020988
      19A     -0.937960    20A     -0.881278    21A     -0.842703
      22A     -0.797533    23A     -0.776618    24A     -0.697654
      25A     -0.684613    26A     -0.673288    27A     -0.653546
      28A     -0.622185    29A     -0.617386    30A     -0.600153
      31A     -0.588035    32A     -0.577440    33A     -0.554208
      34A     -0.537681    35A     -0.520667    36A     -0.509987
      37A     -0.494645    38A     -0.482281    39A     -0.478313
      40A     -0.423738    41A     -0.389666    42A     -0.343900
      43A     -0.337131

  @DF-RHF Final Energy:  -514.59302142331580

   => Energetics <=

    Nuclear Repulsion Energy =            685.6551160504313884
    One-Electron Energy =               -2059.2584907161426599
    Two-Electron Energy =                 859.0103532423954675
    Total Energy =                       -514.5930214233158040
  Basis Set: (AUG-CC-PVTZ AUX)
    Blend: AUG-CC-PVTZ-RI
    Molecular point group: c1

    Geometry (in Angstrom), charge = 0, multiplicity = 1:

       Center              X                  Y                   Z               Mass
    ------------   -----------------  -----------------  -----------------  -----------------
         O            0.954596689498     2.462734173692    -0.646657611393    15.994914619570
         N            2.059230689498     0.645721173692     0.187976388607    14.003074004430
         C            0.797715889498    -1.563108826308    -0.856091211393    12.000000000000
         C            1.828617689498    -1.823309826308     0.229409388607    12.000000000000
         C           -0.436901310502    -0.844750826308    -0.371478611393    12.000000000000
         C            2.039545689498    -0.541904826308     1.035902388607    12.000000000000
         C           -0.352236310502     0.532876173692    -0.081352611393    12.000000000000
         C            0.924771689498     1.307214173692    -0.213056611393    12.000000000000
         C           -1.678516310502    -1.475308826308    -0.226866611393    12.000000000000
         C           -1.490743310502     1.251436173692     0.301610388607    12.000000000000
         C           -2.808365310502    -0.766524826308     0.184506388607    12.000000000000
         C           -2.715296310502     0.602589173692     0.445687388607    12.000000000000
         H            0.451195689498    -2.573818826308    -1.266967611393     1.007825032230
         H            1.229442689498    -1.053262826308    -1.685608611393     1.007825032230
         H            1.519387689498    -2.622633826308     0.914371388607     1.007825032230
         H            2.767218689498    -2.139994826308    -0.240413611393     1.007825032230
         H            1.241880689498    -0.440473826308     1.779716388607     1.007825032230
         H            2.985834689498    -0.578101826308     1.583503388607     1.007825032230
         H            2.892165689498     1.225234173692     0.165908388607     1.007825032230
         H           -1.762698310502    -2.536418826308    -0.457140611393     1.007825032230
         H           -1.395232310502     2.319949173692     0.477224388607     1.007825032230
         H           -3.761301310502    -1.280000826308     0.290308388607     1.007825032230
         H           -3.595381310502     1.162372173692     0.752736388607     1.007825032230

  Basis Set: AUG-CC-PVTZ
    Blend: AUG-CC-PVTZ
  Basis Set: (AUG-CC-PVTZ AUX)
    Blend: AUG-CC-PVTZ-JKFIT
	 Reference Energy          =    -514.5930214233158040 [Eh]
	 Singles Energy            =      -0.0000000000000000 [Eh]
	 Same-Spin Energy          =      -0.5589225654225572 [Eh]
	 Opposite-Spin Energy      =      -1.7448229261815649 [Eh]
	 Correlation Energy        =      -2.3037454916041220 [Eh]
	 Total Energy              =    -516.8967669149199082 [Eh]

	 ================> DF-SCS-MP2 Energies <==================
	-----------------------------------------------------------
	 SCS Same-Spin Scale       =       0.3333333333333333 [-]
	 SCS Opposite-Spin Scale   =       1.2000000000000000 [-]
	 SCS Same-Spin Energy      =      -0.1863075218075191 [Eh]
	 SCS Opposite-Spin Energy  =      -2.0937875114178777 [Eh]
	 SCS Correlation Energy    =      -2.2800950332253969 [Eh]
	 SCS Total Energy          =    -516.8731164565411973 [Eh]
	-----------------------------------------------------------

  Dipole Moment: [D]
     X:     0.6299      Y:    -3.5826      Z:     1.7776     Total:     4.0487

*** Psi4 exiting successfully. Buy a developer a beer!
