                               Psi4 1.3.2 release

  ==> Input File <==

--------------------------------------------------------------------------
#psi4
#
memory 32 gb

molecule  {
0 1
  O        0.9417500     2.5148810    -0.6596880
  N        2.0390631     0.6679363     0.1343830
  C        0.7564320    -1.5550710    -0.8733250
  C        1.8157710    -1.7711630     0.2163790
  C       -0.4497480    -0.7926040    -0.3845090
  C        2.0266990    -0.4897580     1.0228720
  C       -0.3650830     0.5850230    -0.0943830
  C        0.9119250     1.3593610    -0.2260870
  C       -1.6913630    -1.4231620    -0.2398970
  C       -1.5035900     1.3035830     0.2885800
  C       -2.8212120    -0.7143780     0.1714760
  C       -2.7281430     0.6547360     0.4326570
  H        0.4383490    -2.5216720    -1.2799980
  H        1.2165960    -1.0011160    -1.6986390
  H        1.5065410    -2.5704870     0.9013410
  H        2.7543720    -2.0878480    -0.2534440
  H        1.2290340    -0.3883270     1.7666860
  H        2.9729880    -0.5259550     1.5704730
  H        2.8793190     1.2773810     0.1528780
  H       -1.7755450    -2.4842720    -0.4701710
  H       -1.4080790     2.3720960     0.4641940
  H       -3.7741480    -1.2278540     0.2772780
  H       -3.6082280     1.2145190     0.7397060
units angstrom
no_reorient  #important for SAPT in psi4, default
symmetry c1  #important for SAPT in psi4, default
}

set PROPERTIES_ORIGIN ["COM"]
properties('MP2/aug-cc-pvtz', properties = ['dipole'])
--------------------------------------------------------------------------

    Molecular point group: c1
  Charge       = 0
  Multiplicity = 1
  Basis Set: AUG-CC-PVTZ
    Blend: AUG-CC-PVTZ
  Basis Set: (AUG-CC-PVTZ AUX)
    Blend: AUG-CC-PVTZ-JKFIT

    Orbital Energies [Eh]
    ---------------------

    Doubly Occupied:

       1A    -20.516738     2A    -15.585010     3A    -11.351702
       4A    -11.276019     5A    -11.258029     6A    -11.248631
       7A    -11.246599     8A    -11.245168     9A    -11.241533
      10A    -11.239600    11A    -11.238501    12A    -11.237061
      13A     -1.369847    14A     -1.235786    15A     -1.163673
      16A     -1.081429    17A     -1.036793    18A     -1.020458
      19A     -0.938067    20A     -0.880562    21A     -0.840229
      22A     -0.797414    23A     -0.773658    24A     -0.694574
      25A     -0.688535    26A     -0.671680    27A     -0.652061
      28A     -0.623935    29A     -0.614293    30A     -0.599629
      31A     -0.587627    32A     -0.574312    33A     -0.557183
      34A     -0.535130    35A     -0.518603    36A     -0.508897
      37A     -0.492576    38A     -0.489073    39A     -0.478068
      40A     -0.424399    41A     -0.391823    42A     -0.343637
      43A     -0.335893

  @DF-RHF Final Energy:  -514.59456931547845

   => Energetics <=

    Nuclear Repulsion Energy =            685.4755032822611156
    One-Electron Energy =               -2058.9312753971080383
    Two-Electron Energy =                 858.8612027993684706
    Total Energy =                       -514.5945693154784522
  Basis Set: (AUG-CC-PVTZ AUX)
    Blend: AUG-CC-PVTZ-RI
    Molecular point group: c1

    Geometry (in Angstrom), charge = 0, multiplicity = 1:

       Center              X                  Y                   Z               Mass
    ------------   -----------------  -----------------  -----------------  -----------------
         O            0.957351533730     2.468622054757    -0.642818327260    15.994914619570
         N            2.054664633730     0.621677354757     0.151252672740    14.003074004430
         C            0.772033533730    -1.601329945243    -0.856455327260    12.000000000000
         C            1.831372533730    -1.817421945243     0.233248672740    12.000000000000
         C           -0.434146466270    -0.838862945243    -0.367639327260    12.000000000000
         C            2.042300533730    -0.536016945243     1.039741672740    12.000000000000
         C           -0.349481466270     0.538764054757    -0.077513327260    12.000000000000
         C            0.927526533730     1.313102054757    -0.209217327260    12.000000000000
         C           -1.675761466270    -1.469420945243    -0.223027327260    12.000000000000
         C           -1.487988466270     1.257324054757     0.305449672740    12.000000000000
         C           -2.805610466270    -0.760636945243     0.188345672740    12.000000000000
         C           -2.712541466270     0.608477054757     0.449526672740    12.000000000000
         H            0.453950533730    -2.567930945243    -1.263128327260     1.007825032230
         H            1.232197533730    -1.047374945243    -1.681769327260     1.007825032230
         H            1.522142533730    -2.616745945243     0.918210672740     1.007825032230
         H            2.769973533730    -2.134106945243    -0.236574327260     1.007825032230
         H            1.244635533730    -0.434585945243     1.783555672740     1.007825032230
         H            2.988589533730    -0.572213945243     1.587342672740     1.007825032230
         H            2.894920533730     1.231122054757     0.169747672740     1.007825032230
         H           -1.759943466270    -2.530530945243    -0.453301327260     1.007825032230
         H           -1.392477466270     2.325837054757     0.481063672740     1.007825032230
         H           -3.758546466270    -1.274112945243     0.294147672740     1.007825032230
         H           -3.592626466270     1.168260054757     0.756575672740     1.007825032230

  Basis Set: AUG-CC-PVTZ
    Blend: AUG-CC-PVTZ
  Basis Set: (AUG-CC-PVTZ AUX)
    Blend: AUG-CC-PVTZ-JKFIT
	 Reference Energy          =    -514.5945693154784522 [Eh]
	 Singles Energy            =      -0.0000000000000000 [Eh]
	 Same-Spin Energy          =      -0.5589810076311781 [Eh]
	 Opposite-Spin Energy      =      -1.7450301451832615 [Eh]
	 Correlation Energy        =      -2.3040111528144394 [Eh]
	 Total Energy              =    -516.8985804682929484 [Eh]

	 ================> DF-SCS-MP2 Energies <==================
	-----------------------------------------------------------
	 SCS Same-Spin Scale       =       0.3333333333333333 [-]
	 SCS Opposite-Spin Scale   =       1.2000000000000000 [-]
	 SCS Same-Spin Energy      =      -0.1863270025437260 [Eh]
	 SCS Opposite-Spin Energy  =      -2.0940361742199136 [Eh]
	 SCS Correlation Energy    =      -2.2803631767636396 [Eh]
	 SCS Total Energy          =    -516.8749324922421238 [Eh]
	-----------------------------------------------------------

  Dipole Moment: [D]
     X:     0.6317      Y:    -3.5452      Z:     1.8331     Total:     4.0408

*** Psi4 exiting successfully. Buy a developer a beer!
