                               Psi4 1.3.2 release

  ==> Input File <==

--------------------------------------------------------------------------
#psi4
#
memory 32 gb

molecule  {
0 1
  O        0.9417500     2.5148810    -0.6596880
  N        2.0463840     0.6978680     0.1749460
  C        0.7564320    -1.5550710    -0.8733250
  C        1.8157710    -1.7711630     0.2163790
  C       -0.4497480    -0.7926040    -0.3845090
  C        2.0266990    -0.4897580     1.0228720
  C       -0.3411271     0.5845182    -0.1000212
  C        0.9119250     1.3593610    -0.2260870
  C       -1.6913630    -1.4231620    -0.2398970
  C       -1.5035900     1.3035830     0.2885800
  C       -2.8212120    -0.7143780     0.1714760
  C       -2.7281430     0.6547360     0.4326570
  H        0.4383490    -2.5216720    -1.2799980
  H        1.2165960    -1.0011160    -1.6986390
  H        1.5065410    -2.5704870     0.9013410
  H        2.7543720    -2.0878480    -0.2534440
  H        1.2290340    -0.3883270     1.7666860
  H        2.9729880    -0.5259550     1.5704730
  H        2.8793190     1.2773810     0.1528780
  H       -1.7755450    -2.4842720    -0.4701710
  H       -1.4080790     2.3720960     0.4641940
  H       -3.7741480    -1.2278540     0.2772780
  H       -3.6082280     1.2145190     0.7397060
units angstrom
no_reorient  #important for SAPT in psi4, default
symmetry c1  #important for SAPT in psi4, default
}

set PROPERTIES_ORIGIN ["COM"]
properties('MP2/aug-cc-pvtz', properties = ['dipole'])
--------------------------------------------------------------------------

    Molecular point group: c1
  Charge       = 0
  Multiplicity = 1
  Basis Set: AUG-CC-PVTZ
    Blend: AUG-CC-PVTZ
  Basis Set: (AUG-CC-PVTZ AUX)
    Blend: AUG-CC-PVTZ-JKFIT

    Orbital Energies [Eh]
    ---------------------

    Doubly Occupied:

       1A    -20.514831     2A    -15.582252     3A    -11.350471
       4A    -11.275584     5A    -11.259294     6A    -11.250010
       7A    -11.248897     8A    -11.247170     9A    -11.242084
      10A    -11.240052    11A    -11.238844    12A    -11.237798
      13A     -1.369379    14A     -1.235060    15A     -1.162840
      16A     -1.082053    17A     -1.037868    18A     -1.019704
      19A     -0.938052    20A     -0.884847    21A     -0.840950
      22A     -0.797773    23A     -0.776082    24A     -0.697603
      25A     -0.685387    26A     -0.673537    27A     -0.652541
      28A     -0.623619    29A     -0.616230    30A     -0.597552
      31A     -0.588073    32A     -0.576305    33A     -0.557219
      34A     -0.535616    35A     -0.518695    36A     -0.511435
      37A     -0.491686    38A     -0.489140    39A     -0.476632
      40A     -0.424945    41A     -0.389271    42A     -0.342077
      43A     -0.337074

  @DF-RHF Final Energy:  -514.59528015513899

   => Energetics <=

    Nuclear Repulsion Energy =            685.1891959880570084
    One-Electron Energy =               -2058.3358874123568967
    Two-Electron Energy =                 858.5514112691608943
    Total Energy =                       -514.5952801551389939
  Basis Set: (AUG-CC-PVTZ AUX)
    Blend: AUG-CC-PVTZ-RI
    Molecular point group: c1

    Geometry (in Angstrom), charge = 0, multiplicity = 1:

       Center              X                  Y                   Z               Mass
    ------------   -----------------  -----------------  -----------------  -----------------
         O            0.954930525128     2.466057690536    -0.645924458795    15.994914619570
         N            2.059564525128     0.649044690536     0.188709541205    14.003074004430
         C            0.769612525128    -1.603894309464    -0.859561458795    12.000000000000
         C            1.828951525128    -1.819986309464     0.230142541205    12.000000000000
         C           -0.436567474872    -0.841427309464    -0.370745458795    12.000000000000
         C            2.039879525128    -0.538581309464     1.036635541205    12.000000000000
         C           -0.327946574872     0.535694890536    -0.086257658795    12.000000000000
         C            0.925105525128     1.310537690536    -0.212323458795    12.000000000000
         C           -1.678182474872    -1.471985309464    -0.226133458795    12.000000000000
         C           -1.490409474872     1.254759690536     0.302343541205    12.000000000000
         C           -2.808031474872    -0.763201309464     0.185239541205    12.000000000000
         C           -2.714962474872     0.605912690536     0.446420541205    12.000000000000
         H            0.451529525128    -2.570495309464    -1.266234458795     1.007825032230
         H            1.229776525128    -1.049939309464    -1.684875458795     1.007825032230
         H            1.519721525128    -2.619310309464     0.915104541205     1.007825032230
         H            2.767552525128    -2.136671309464    -0.239680458795     1.007825032230
         H            1.242214525128    -0.437150309464     1.780449541205     1.007825032230
         H            2.986168525128    -0.574778309464     1.584236541205     1.007825032230
         H            2.892499525128     1.228557690536     0.166641541205     1.007825032230
         H           -1.762364474872    -2.533095309464    -0.456407458795     1.007825032230
         H           -1.394898474872     2.323272690536     0.477957541205     1.007825032230
         H           -3.760967474872    -1.276677309464     0.291041541205     1.007825032230
         H           -3.595047474872     1.165695690536     0.753469541205     1.007825032230

  Basis Set: AUG-CC-PVTZ
    Blend: AUG-CC-PVTZ
  Basis Set: (AUG-CC-PVTZ AUX)
    Blend: AUG-CC-PVTZ-JKFIT
	 Reference Energy          =    -514.5952801551389939 [Eh]
	 Singles Energy            =      -0.0000000000000000 [Eh]
	 Same-Spin Energy          =      -0.5588847967596455 [Eh]
	 Opposite-Spin Energy      =      -1.7447938293053991 [Eh]
	 Correlation Energy        =      -2.3036786260650448 [Eh]
	 Total Energy              =    -516.8989587812039872 [Eh]

	 ================> DF-SCS-MP2 Energies <==================
	-----------------------------------------------------------
	 SCS Same-Spin Scale       =       0.3333333333333333 [-]
	 SCS Opposite-Spin Scale   =       1.2000000000000000 [-]
	 SCS Same-Spin Energy      =      -0.1862949322532152 [Eh]
	 SCS Opposite-Spin Energy  =      -2.0937525951664786 [Eh]
	 SCS Correlation Energy    =      -2.2800475274196939 [Eh]
	 SCS Total Energy          =    -516.8753276825586909 [Eh]
	-----------------------------------------------------------

  Dipole Moment: [D]
     X:     0.5932      Y:    -3.6324      Z:     1.7714     Total:     4.0846

*** Psi4 exiting successfully. Buy a developer a beer!
