                               Psi4 1.3.2 release

  ==> Input File <==

--------------------------------------------------------------------------
#psi4
#
memory 32 gb

molecule  {
0 1
  O        0.9417500     2.5148810    -0.6596880
  N        2.0463840     0.6978680     0.1749460
  C        0.7844952    -1.5106080    -0.8705967
  C        1.8157710    -1.7711630     0.2163790
  C       -0.4497480    -0.7926040    -0.3845090
  C        2.0266990    -0.4897580     1.0228720
  C       -0.3650830     0.5850230    -0.0943830
  C        0.9119250     1.3593610    -0.2260870
  C       -1.6913630    -1.4231620    -0.2398970
  C       -1.5035900     1.3035830     0.2885800
  C       -2.8212120    -0.7143780     0.1714760
  C       -2.7281430     0.6547360     0.4326570
  H        0.4383490    -2.5216720    -1.2799980
  H        1.2165960    -1.0011160    -1.6986390
  H        1.5065410    -2.5704870     0.9013410
  H        2.7543720    -2.0878480    -0.2534440
  H        1.2290340    -0.3883270     1.7666860
  H        2.9729880    -0.5259550     1.5704730
  H        2.8793190     1.2773810     0.1528780
  H       -1.7755450    -2.4842720    -0.4701710
  H       -1.4080790     2.3720960     0.4641940
  H       -3.7741480    -1.2278540     0.2772780
  H       -3.6082280     1.2145190     0.7397060
units angstrom
no_reorient  #important for SAPT in psi4, default
symmetry c1  #important for SAPT in psi4, default
}

set PROPERTIES_ORIGIN ["COM"]
properties('MP2/aug-cc-pvtz', properties = ['dipole'])
--------------------------------------------------------------------------

    Molecular point group: c1
  Charge       = 0
  Multiplicity = 1
  Basis Set: AUG-CC-PVTZ
    Blend: AUG-CC-PVTZ
  Basis Set: (AUG-CC-PVTZ AUX)
    Blend: AUG-CC-PVTZ-JKFIT

    Orbital Energies [Eh]
    ---------------------

    Doubly Occupied:

       1A    -20.515428     2A    -15.582871     3A    -11.351673
       4A    -11.275141     5A    -11.258257     6A    -11.249147
       7A    -11.246687     8A    -11.245206     9A    -11.242702
      10A    -11.240140    11A    -11.240072    12A    -11.237627
      13A     -1.369340    14A     -1.235481    15A     -1.164320
      16A     -1.083789    17A     -1.037207    18A     -1.020953
      19A     -0.937980    20A     -0.881263    21A     -0.842671
      22A     -0.797616    23A     -0.776617    24A     -0.697659
      25A     -0.684595    26A     -0.673293    27A     -0.653563
      28A     -0.622177    29A     -0.617316    30A     -0.600131
      31A     -0.587988    32A     -0.577493    33A     -0.554202
      34A     -0.537719    35A     -0.520628    36A     -0.509987
      37A     -0.494680    38A     -0.482309    39A     -0.478336
      40A     -0.423738    41A     -0.389665    42A     -0.343899
      43A     -0.337111

  @DF-RHF Final Energy:  -514.59302749654728

   => Energetics <=

    Nuclear Repulsion Energy =            685.6411379603375735
    One-Electron Energy =               -2059.2309790210315441
    Two-Electron Energy =                 858.9968135641466915
    Total Energy =                       -514.5930274965472790
  Basis Set: (AUG-CC-PVTZ AUX)
    Blend: AUG-CC-PVTZ-RI
    Molecular point group: c1

    Geometry (in Angstrom), charge = 0, multiplicity = 1:

       Center              X                  Y                   Z               Mass
    ------------   -----------------  -----------------  -----------------  -----------------
         O            0.954624550727     2.462707802368    -0.646547723428    15.994914619570
         N            2.059258550727     0.645694802368     0.188086276572    14.003074004430
         C            0.797369750727    -1.562781197632    -0.857456423428    12.000000000000
         C            1.828645550727    -1.823336197632     0.229519276572    12.000000000000
         C           -0.436873449273    -0.844777197632    -0.371368723428    12.000000000000
         C            2.039573550727    -0.541931197632     1.036012276572    12.000000000000
         C           -0.352208449273     0.532849802368    -0.081242723428    12.000000000000
         C            0.924799550727     1.307187802368    -0.212946723428    12.000000000000
         C           -1.678488449273    -1.475335197632    -0.226756723428    12.000000000000
         C           -1.490715449273     1.251409802368     0.301720276572    12.000000000000
         C           -2.808337449273    -0.766551197632     0.184616276572    12.000000000000
         C           -2.715268449273     0.602562802368     0.445797276572    12.000000000000
         H            0.451223550727    -2.573845197632    -1.266857723428     1.007825032230
         H            1.229470550727    -1.053289197632    -1.685498723428     1.007825032230
         H            1.519415550727    -2.622660197632     0.914481276572     1.007825032230
         H            2.767246550727    -2.140021197632    -0.240303723428     1.007825032230
         H            1.241908550727    -0.440500197632     1.779826276572     1.007825032230
         H            2.985862550727    -0.578128197632     1.583613276572     1.007825032230
         H            2.892193550727     1.225207802368     0.166018276572     1.007825032230
         H           -1.762670449273    -2.536445197632    -0.457030723428     1.007825032230
         H           -1.395204449273     2.319922802368     0.477334276572     1.007825032230
         H           -3.761273449273    -1.280027197632     0.290418276572     1.007825032230
         H           -3.595353449273     1.162345802368     0.752846276572     1.007825032230

  Basis Set: AUG-CC-PVTZ
    Blend: AUG-CC-PVTZ
  Basis Set: (AUG-CC-PVTZ AUX)
    Blend: AUG-CC-PVTZ-JKFIT
	 Reference Energy          =    -514.5930274965472790 [Eh]
	 Singles Energy            =      -0.0000000000000000 [Eh]
	 Same-Spin Energy          =      -0.5589131844758287 [Eh]
	 Opposite-Spin Energy      =      -1.7448150978386292 [Eh]
	 Correlation Energy        =      -2.3037282823144580 [Eh]
	 Total Energy              =    -516.8967557788616887 [Eh]

	 ================> DF-SCS-MP2 Energies <==================
	-----------------------------------------------------------
	 SCS Same-Spin Scale       =       0.3333333333333333 [-]
	 SCS Opposite-Spin Scale   =       1.2000000000000000 [-]
	 SCS Same-Spin Energy      =      -0.1863043948252762 [Eh]
	 SCS Opposite-Spin Energy  =      -2.0937781174063548 [Eh]
	 SCS Correlation Energy    =      -2.2800825122316311 [Eh]
	 SCS Total Energy          =    -516.8731100087788946 [Eh]
	-----------------------------------------------------------

  Dipole Moment: [D]
     X:     0.6298      Y:    -3.5828      Z:     1.7769     Total:     4.0485

*** Psi4 exiting successfully. Buy a developer a beer!
