                               Psi4 1.3.2 release

  ==> Input File <==

--------------------------------------------------------------------------
#psi4
#
memory 32 gb

molecule  {
0 1
  O        0.9417500     2.5148810    -0.6596880
  N        2.0463840     0.6978680     0.1749460
  C        0.7564320    -1.5550710    -0.8733250
  C        1.8157710    -1.7711630     0.2163790
  C       -0.4497480    -0.7926040    -0.3845090
  C        2.0266990    -0.4897580     1.0228720
  C       -0.3650830     0.5850230    -0.0943830
  C        0.9249671     1.3791537    -0.2296175
  C       -1.6913630    -1.4231620    -0.2398970
  C       -1.5035900     1.3035830     0.2885800
  C       -2.8212120    -0.7143780     0.1714760
  C       -2.7281430     0.6547360     0.4326570
  H        0.4383490    -2.5216720    -1.2799980
  H        1.2165960    -1.0011160    -1.6986390
  H        1.5065410    -2.5704870     0.9013410
  H        2.7543720    -2.0878480    -0.2534440
  H        1.2290340    -0.3883270     1.7666860
  H        2.9729880    -0.5259550     1.5704730
  H        2.8793190     1.2773810     0.1528780
  H       -1.7755450    -2.4842720    -0.4701710
  H       -1.4080790     2.3720960     0.4641940
  H       -3.7741480    -1.2278540     0.2772780
  H       -3.6082280     1.2145190     0.7397060
units angstrom
no_reorient  #important for SAPT in psi4, default
symmetry c1  #important for SAPT in psi4, default
}

set PROPERTIES_ORIGIN ["COM"]
properties('MP2/aug-cc-pvtz', properties = ['dipole'])
--------------------------------------------------------------------------

    Molecular point group: c1
  Charge       = 0
  Multiplicity = 1
  Basis Set: AUG-CC-PVTZ
    Blend: AUG-CC-PVTZ
  Basis Set: (AUG-CC-PVTZ AUX)
    Blend: AUG-CC-PVTZ-JKFIT

    Orbital Energies [Eh]
    ---------------------

    Doubly Occupied:

       1A    -20.518651     2A    -15.581789     3A    -11.351101
       4A    -11.275956     5A    -11.256627     6A    -11.247178
       7A    -11.246507     8A    -11.243923     9A    -11.240752
      10A    -11.238801    11A    -11.238513    12A    -11.237395
      13A     -1.382025    14A     -1.236532    15A     -1.162509
      16A     -1.081641    17A     -1.033623    18A     -1.019773
      19A     -0.937916    20A     -0.877920    21A     -0.840271
      22A     -0.797277    23A     -0.774927    24A     -0.694768
      25A     -0.686398    26A     -0.671570    27A     -0.652927
      28A     -0.624320    29A     -0.616081    30A     -0.599341
      31A     -0.590047    32A     -0.576155    33A     -0.559087
      34A     -0.535450    35A     -0.519733    36A     -0.510272
      37A     -0.492397    38A     -0.489480    39A     -0.478409
      40A     -0.423377    41A     -0.391567    42A     -0.342673
      43A     -0.334949

  @DF-RHF Final Energy:  -514.59770424026703

   => Energetics <=

    Nuclear Repulsion Energy =            684.9682734641811521
    One-Electron Energy =               -2057.9107422415258952
    Two-Electron Energy =                 858.3447645370778218
    Total Energy =                       -514.5977042402670349
  Basis Set: (AUG-CC-PVTZ AUX)
    Blend: AUG-CC-PVTZ-RI
    Molecular point group: c1

    Geometry (in Angstrom), charge = 0, multiplicity = 1:

       Center              X                  Y                   Z               Mass
    ------------   -----------------  -----------------  -----------------  -----------------
         O            0.955743551549     2.464545622899    -0.646081472465    15.994914619570
         N            2.060377551549     0.647532622899     0.188552527535    14.003074004430
         C            0.770425551549    -1.605406377101    -0.859718472465    12.000000000000
         C            1.829764551549    -1.821498377101     0.229985527535    12.000000000000
         C           -0.435754448451    -0.842939377101    -0.370902472465    12.000000000000
         C            2.040692551549    -0.540093377101     1.036478527535    12.000000000000
         C           -0.351089448451     0.534687622899    -0.080776472465    12.000000000000
         C            0.938960651549     1.328818322899    -0.216010972465    12.000000000000
         C           -1.677369448451    -1.473497377101    -0.226290472465    12.000000000000
         C           -1.489596448451     1.253247622899     0.302186527535    12.000000000000
         C           -2.807218448451    -0.764713377101     0.185082527535    12.000000000000
         C           -2.714149448451     0.604400622899     0.446263527535    12.000000000000
         H            0.452342551549    -2.572007377101    -1.266391472465     1.007825032230
         H            1.230589551549    -1.051451377101    -1.685032472465     1.007825032230
         H            1.520534551549    -2.620822377101     0.914947527535     1.007825032230
         H            2.768365551549    -2.138183377101    -0.239837472465     1.007825032230
         H            1.243027551549    -0.438662377101     1.780292527535     1.007825032230
         H            2.986981551549    -0.576290377101     1.584079527535     1.007825032230
         H            2.893312551549     1.227045622899     0.166484527535     1.007825032230
         H           -1.761551448451    -2.534607377101    -0.456564472465     1.007825032230
         H           -1.394085448451     2.321760622899     0.477800527535     1.007825032230
         H           -3.760154448451    -1.278189377101     0.290884527535     1.007825032230
         H           -3.594234448451     1.164183622899     0.753312527535     1.007825032230

  Basis Set: AUG-CC-PVTZ
    Blend: AUG-CC-PVTZ
  Basis Set: (AUG-CC-PVTZ AUX)
    Blend: AUG-CC-PVTZ-JKFIT
	 Reference Energy          =    -514.5977042402670349 [Eh]
	 Singles Energy            =      -0.0000000000000000 [Eh]
	 Same-Spin Energy          =      -0.5581280673842575 [Eh]
	 Opposite-Spin Energy      =      -1.7433623611884510 [Eh]
	 Correlation Energy        =      -2.3014904285727082 [Eh]
	 Total Energy              =    -516.8991946688397547 [Eh]

	 ================> DF-SCS-MP2 Energies <==================
	-----------------------------------------------------------
	 SCS Same-Spin Scale       =       0.3333333333333333 [-]
	 SCS Opposite-Spin Scale   =       1.2000000000000000 [-]
	 SCS Same-Spin Energy      =      -0.1860426891280858 [Eh]
	 SCS Opposite-Spin Energy  =      -2.0920348334261409 [Eh]
	 SCS Correlation Energy    =      -2.2780775225542267 [Eh]
	 SCS Total Energy          =    -516.8757817628212479 [Eh]
	-----------------------------------------------------------

  Dipole Moment: [D]
     X:     0.7142      Y:    -3.4832      Z:     1.7328     Total:     3.9554

*** Psi4 exiting successfully. Buy a developer a beer!
