                               Psi4 1.4a3.dev225

  ==> Input File <==

--------------------------------------------------------------------------
#psi4
#
memory 32 gb

molecule  {
0 1
  O        0.9417500     2.5148810    -0.6596880
  N        2.0463840     0.6978680     0.1749460
  C        0.7564320    -1.5550710    -0.8733250
  C        1.8157710    -1.7711630     0.2163790
  C       -0.4497480    -0.7926040    -0.3845090
  C        2.0266990    -0.4897580     1.0228720
  C       -0.3650830     0.5850230    -0.0943830
  C        0.9119250     1.3593610    -0.2260870
  C       -1.6913630    -1.4231620    -0.2398970
  C       -1.4629206     1.2779148     0.2748999
  C       -2.8212120    -0.7143780     0.1714760
  C       -2.7281430     0.6547360     0.4326570
  H        0.4383490    -2.5216720    -1.2799980
  H        1.2165960    -1.0011160    -1.6986390
  H        1.5065410    -2.5704870     0.9013410
  H        2.7543720    -2.0878480    -0.2534440
  H        1.2290340    -0.3883270     1.7666860
  H        2.9729880    -0.5259550     1.5704730
  H        2.8793190     1.2773810     0.1528780
  H       -1.7755450    -2.4842720    -0.4701710
  H       -1.4080790     2.3720960     0.4641940
  H       -3.7741480    -1.2278540     0.2772780
  H       -3.6082280     1.2145190     0.7397060
units angstrom
no_reorient  #important for SAPT in psi4, default
symmetry c1  #important for SAPT in psi4, default
}

set PROPERTIES_ORIGIN ["COM"]
properties('MP2/aug-cc-pvtz', properties = ['dipole'])
--------------------------------------------------------------------------

    Molecular point group: c1
  Charge       = 0
  Multiplicity = 1
  Basis Set: AUG-CC-PVTZ
    Blend: AUG-CC-PVTZ
  Basis Set: (AUG-CC-PVTZ AUX)
    Blend: AUG-CC-PVTZ-JKFIT

    Orbital Energies [Eh]
    ---------------------

    Doubly Occupied:

       1A    -20.515387     2A    -15.582940     3A    -11.351603
       4A    -11.276104     5A    -11.257966     6A    -11.247946
       7A    -11.245027     8A    -11.242116     9A    -11.241804
      10A    -11.240942    11A    -11.239258    12A    -11.237935
      13A     -1.369403    14A     -1.235178    15A     -1.166953
      16A     -1.081591    17A     -1.041743    18A     -1.018694
      19A     -0.938285    20A     -0.879577    21A     -0.842129
      22A     -0.799027    23A     -0.777327    24A     -0.697635
      25A     -0.686193    26A     -0.669346    27A     -0.653044
      28A     -0.622023    29A     -0.615790    30A     -0.602418
      31A     -0.587401    32A     -0.574751    33A     -0.557350
      34A     -0.536778    35A     -0.520065    36A     -0.503591
      37A     -0.492843    38A     -0.490428    39A     -0.480074
      40A     -0.423579    41A     -0.389546    42A     -0.350153
      43A     -0.331939

  @DF-RHF Final Energy:  -514.59379383091402

   => Energetics <=

    Nuclear Repulsion Energy =            685.9916580726463735
    One-Electron Energy =               -2059.9431355683541369
    Two-Electron Energy =                 859.3576836647938535
    Total Energy =                       -514.5937938309140236
  Basis Set: (AUG-CC-PVTZ AUX)
    Blend: AUG-CC-PVTZ-RI
    Molecular point group: c1

    Geometry (in Angstrom), charge = 0, multiplicity = 1:

       Center              X                  Y                   Z               Mass
    ------------   -----------------  -----------------  -----------------  -----------------
         O            0.953685448520     2.467932244682    -0.645325375325    15.994914619570
         N            2.058319448520     0.650919244682     0.189308624675    14.003074004430
         C            0.768367448520    -1.602019755318    -0.858962375325    12.000000000000
         C            1.827706448520    -1.818111755318     0.230741624675    12.000000000000
         C           -0.437812551480    -0.839552755318    -0.370146375325    12.000000000000
         C            2.038634448520    -0.536706755318     1.037234624675    12.000000000000
         C           -0.353147551480     0.538074244682    -0.080020375325    12.000000000000
         C            0.923860448520     1.312412244682    -0.211724375325    12.000000000000
         C           -1.679427551480    -1.470110755318    -0.225534375325    12.000000000000
         C           -1.450985151480     1.230966044682     0.289262524675    12.000000000000
         C           -2.809276551480    -0.761326755318     0.185838624675    12.000000000000
         C           -2.716207551480     0.607787244682     0.447019624675    12.000000000000
         H            0.450284448520    -2.568620755318    -1.265635375325     1.007825032230
         H            1.228531448520    -1.048064755318    -1.684276375325     1.007825032230
         H            1.518476448520    -2.617435755318     0.915703624675     1.007825032230
         H            2.766307448520    -2.134796755318    -0.239081375325     1.007825032230
         H            1.240969448520    -0.435275755318     1.781048624675     1.007825032230
         H            2.984923448520    -0.572903755318     1.584835624675     1.007825032230
         H            2.891254448520     1.230432244682     0.167240624675     1.007825032230
         H           -1.763609551480    -2.531220755318    -0.455808375325     1.007825032230
         H           -1.396143551480     2.325147244682     0.478556624675     1.007825032230
         H           -3.762212551480    -1.274802755318     0.291640624675     1.007825032230
         H           -3.596292551480     1.167570244682     0.754068624675     1.007825032230

  Basis Set: AUG-CC-PVTZ
    Blend: AUG-CC-PVTZ
  Basis Set: (AUG-CC-PVTZ AUX)
    Blend: AUG-CC-PVTZ-JKFIT
	 Reference Energy          =    -514.5937938309140236 [Eh]
	 Singles Energy            =      -0.0000000000000000 [Eh]
	 Same-Spin Energy          =      -0.5585613221276400 [Eh]
	 Opposite-Spin Energy      =      -1.7444148407006692 [Eh]
	 Correlation Energy        =      -2.3029761628283092 [Eh]
	 Total Energy              =    -516.8967699937422822 [Eh]

	 ================> DF-SCS-MP2 Energies <==================
	-----------------------------------------------------------
	 SCS Same-Spin Scale       =       0.3333333333333333 [-]
	 SCS Opposite-Spin Scale   =       1.2000000000000000 [-]
	 SCS Same-Spin Energy      =      -0.1861871073758800 [Eh]
	 SCS Opposite-Spin Energy  =      -2.0932978088408030 [Eh]
	 SCS Correlation Energy    =      -2.2794849162166830 [Eh]
	 SCS Total Energy          =    -516.8732787471307120 [Eh]
	-----------------------------------------------------------

  Dipole Moment: [D]
     X:     0.6284      Y:    -3.6069      Z:     1.7706     Total:     4.0669

*** Psi4 exiting successfully. Buy a developer a beer!
