                               Psi4 1.4a3.dev225

  ==> Input File <==

--------------------------------------------------------------------------
#psi4
#
memory 32 gb

molecule  {
0 1
  O        0.9417500     2.5148810    -0.6596880
  N        2.0463840     0.6978680     0.1749460
  C        0.7564320    -1.5550710    -0.8733250
  C        1.8157710    -1.7711630     0.2163790
  C       -0.4497480    -0.7926040    -0.3845090
  C        2.0266990    -0.4897580     1.0228720
  C       -0.3650830     0.5850230    -0.0943830
  C        0.9119250     1.3593610    -0.2260870
  C       -1.7357050    -1.4456812    -0.2347324
  C       -1.5035900     1.3035830     0.2885800
  C       -2.8212120    -0.7143780     0.1714760
  C       -2.7281430     0.6547360     0.4326570
  H        0.4383490    -2.5216720    -1.2799980
  H        1.2165960    -1.0011160    -1.6986390
  H        1.5065410    -2.5704870     0.9013410
  H        2.7543720    -2.0878480    -0.2534440
  H        1.2290340    -0.3883270     1.7666860
  H        2.9729880    -0.5259550     1.5704730
  H        2.8793190     1.2773810     0.1528780
  H       -1.7755450    -2.4842720    -0.4701710
  H       -1.4080790     2.3720960     0.4641940
  H       -3.7741480    -1.2278540     0.2772780
  H       -3.6082280     1.2145190     0.7397060
units angstrom
no_reorient  #important for SAPT in psi4, default
symmetry c1  #important for SAPT in psi4, default
}

set PROPERTIES_ORIGIN ["COM"]
properties('MP2/aug-cc-pvtz', properties = ['dipole'])
--------------------------------------------------------------------------

    Molecular point group: c1
  Charge       = 0
  Multiplicity = 1
  Basis Set: AUG-CC-PVTZ
    Blend: AUG-CC-PVTZ
  Basis Set: (AUG-CC-PVTZ AUX)
    Blend: AUG-CC-PVTZ-JKFIT

    Orbital Energies [Eh]
    ---------------------

    Doubly Occupied:

       1A    -20.515405     2A    -15.582963     3A    -11.351662
       4A    -11.275905     5A    -11.264027     6A    -11.246967
       7A    -11.245965     8A    -11.245343     9A    -11.242310
      10A    -11.240218    11A    -11.239305    12A    -11.238477
      13A     -1.369294    14A     -1.234934    15A     -1.161510
      16A     -1.082091    17A     -1.039862    18A     -1.018059
      19A     -0.938193    20A     -0.879849    21A     -0.842956
      22A     -0.798249    23A     -0.775860    24A     -0.697634
      25A     -0.686339    26A     -0.671757    27A     -0.652558
      28A     -0.623879    29A     -0.614146    30A     -0.605031
      31A     -0.586713    32A     -0.576025    33A     -0.556757
      34A     -0.536661    35A     -0.518890    36A     -0.507544
      37A     -0.493048    38A     -0.489578    39A     -0.479626
      40A     -0.422980    41A     -0.389693    42A     -0.347888
      43A     -0.330556

  @DF-RHF Final Energy:  -514.59355619145435

   => Energetics <=

    Nuclear Repulsion Energy =            684.3336197180780118
    One-Electron Energy =               -2056.6209377404243241
    Two-Electron Energy =                 857.6937618308920719
    Total Energy =                       -514.5935561914543541
  Basis Set: (AUG-CC-PVTZ AUX)
    Blend: AUG-CC-PVTZ-RI
    Molecular point group: c1

    Geometry (in Angstrom), charge = 0, multiplicity = 1:

       Center              X                  Y                   Z               Mass
    ------------   -----------------  -----------------  -----------------  -----------------
         O            0.960018395273     2.467697659093    -0.646729216242    15.994914619570
         N            2.064652395273     0.650684659093     0.187904783758    14.003074004430
         C            0.774700395273    -1.602254340907    -0.860366216242    12.000000000000
         C            1.834039395273    -1.818346340907     0.229337783758    12.000000000000
         C           -0.431479604727    -0.839787340907    -0.371550216242    12.000000000000
         C            2.044967395273    -0.536941340907     1.035830783758    12.000000000000
         C           -0.346814604727     0.537839659093    -0.081424216242    12.000000000000
         C            0.930193395273     1.312177659093    -0.213128216242    12.000000000000
         C           -1.717436604727    -1.492864540907    -0.221773616242    12.000000000000
         C           -1.485321604727     1.256399659093     0.301538783758    12.000000000000
         C           -2.802943604727    -0.761561340907     0.184434783758    12.000000000000
         C           -2.709874604727     0.607552659093     0.445615783758    12.000000000000
         H            0.456617395273    -2.568855340907    -1.267039216242     1.007825032230
         H            1.234864395273    -1.048299340907    -1.685680216242     1.007825032230
         H            1.524809395273    -2.617670340907     0.914299783758     1.007825032230
         H            2.772640395273    -2.135031340907    -0.240485216242     1.007825032230
         H            1.247302395273    -0.435510340907     1.779644783758     1.007825032230
         H            2.991256395273    -0.573138340907     1.583431783758     1.007825032230
         H            2.897587395273     1.230197659093     0.165836783758     1.007825032230
         H           -1.757276604727    -2.531455340907    -0.457212216242     1.007825032230
         H           -1.389810604727     2.324912659093     0.477152783758     1.007825032230
         H           -3.755879604727    -1.275037340907     0.290236783758     1.007825032230
         H           -3.589959604727     1.167335659093     0.752664783758     1.007825032230

  Basis Set: AUG-CC-PVTZ
    Blend: AUG-CC-PVTZ
  Basis Set: (AUG-CC-PVTZ AUX)
    Blend: AUG-CC-PVTZ-JKFIT
	 Reference Energy          =    -514.5935561914543541 [Eh]
	 Singles Energy            =      -0.0000000000000000 [Eh]
	 Same-Spin Energy          =      -0.5585886674324678 [Eh]
	 Opposite-Spin Energy      =      -1.7445122029810622 [Eh]
	 Correlation Energy        =      -2.3031008704135303 [Eh]
	 Total Energy              =    -516.8966570618679270 [Eh]

	 ================> DF-SCS-MP2 Energies <==================
	-----------------------------------------------------------
	 SCS Same-Spin Scale       =       0.3333333333333333 [-]
	 SCS Opposite-Spin Scale   =       1.2000000000000000 [-]
	 SCS Same-Spin Energy      =      -0.1861962224774893 [Eh]
	 SCS Opposite-Spin Energy  =      -2.0934146435772747 [Eh]
	 SCS Correlation Energy    =      -2.2796108660547638 [Eh]
	 SCS Total Energy          =    -516.8731670575091357 [Eh]
	-----------------------------------------------------------

  Dipole Moment: [D]
     X:     0.6513      Y:    -3.6320      Z:     1.7600     Total:     4.0881

*** Psi4 exiting successfully. Buy a developer a beer!
