                               Psi4 1.3.2 release

  ==> Input File <==

--------------------------------------------------------------------------
#psi4
#
memory 32 gb

molecule  {
0 1
  O        0.9417500     2.5148810    -0.6596880
  N        2.0463840     0.6978680     0.1749460
  C        0.7564320    -1.5550710    -0.8733250
  C        1.9093866    -1.8058386     0.2540482
  C       -0.4497480    -0.7926040    -0.3845090
  C        2.0266990    -0.4897580     1.0228720
  C       -0.3650830     0.5850230    -0.0943830
  C        0.9119250     1.3593610    -0.2260870
  C       -1.6913630    -1.4231620    -0.2398970
  C       -1.5035900     1.3035830     0.2885800
  C       -2.8212120    -0.7143780     0.1714760
  C       -2.7281430     0.6547360     0.4326570
  H        0.4383490    -2.5216720    -1.2799980
  H        1.2165960    -1.0011160    -1.6986390
  H        1.5065410    -2.5704870     0.9013410
  H        2.7543720    -2.0878480    -0.2534440
  H        1.2290340    -0.3883270     1.7666860
  H        2.9729880    -0.5259550     1.5704730
  H        2.8793190     1.2773810     0.1528780
  H       -1.7755450    -2.4842720    -0.4701710
  H       -1.4080790     2.3720960     0.4641940
  H       -3.7741480    -1.2278540     0.2772780
  H       -3.6082280     1.2145190     0.7397060
units angstrom
no_reorient  #important for SAPT in psi4, default
symmetry c1  #important for SAPT in psi4, default
}

set PROPERTIES_ORIGIN ["COM"]
properties('MP2/aug-cc-pvtz', properties = ['dipole'])
--------------------------------------------------------------------------

    Molecular point group: c1
  Charge       = 0
  Multiplicity = 1
  Basis Set: AUG-CC-PVTZ
    Blend: AUG-CC-PVTZ
  Basis Set: (AUG-CC-PVTZ AUX)
    Blend: AUG-CC-PVTZ-JKFIT

    Orbital Energies [Eh]
    ---------------------

    Doubly Occupied:

       1A    -20.515076     2A    -15.583377     3A    -11.351418
       4A    -11.276418     5A    -11.258491     6A    -11.248539
       7A    -11.246756     8A    -11.245189     9A    -11.241638
      10A    -11.241440    11A    -11.239516    12A    -11.236275
      13A     -1.368976    14A     -1.233997    15A     -1.163261
      16A     -1.073609    17A     -1.036938    18A     -1.021462
      19A     -0.933081    20A     -0.882690    21A     -0.845027
      22A     -0.800964    23A     -0.775774    24A     -0.696778
      25A     -0.685266    26A     -0.671647    27A     -0.651838
      28A     -0.622658    29A     -0.618645    30A     -0.600241
      31A     -0.586668    32A     -0.574242    33A     -0.559884
      34A     -0.537504    35A     -0.520997    36A     -0.508541
      37A     -0.494305    38A     -0.487907    39A     -0.468993
      40A     -0.423349    41A     -0.390643    42A     -0.343601
      43A     -0.333943

  @DF-RHF Final Energy:  -514.58680097876186

   => Energetics <=

    Nuclear Repulsion Energy =            683.3693181540209025
    One-Electron Energy =               -2054.7171140642212777
    Two-Electron Energy =                 856.7609949314385176
    Total Energy =                       -514.5868009787618576
  Basis Set: (AUG-CC-PVTZ AUX)
    Blend: AUG-CC-PVTZ-RI
    Molecular point group: c1

    Geometry (in Angstrom), charge = 0, multiplicity = 1:

       Center              X                  Y                   Z               Mass
    ------------   -----------------  -----------------  -----------------  -----------------
         O            0.949741207331     2.468603253330    -0.649150655026    15.994914619570
         N            2.054375207331     0.651590253330     0.185483344974    14.003074004430
         C            0.764423207331    -1.601348746670    -0.862787655026    12.000000000000
         C            1.917377807331    -1.852116346670     0.264585544974    12.000000000000
         C           -0.441756792669    -0.838881746670    -0.373971655026    12.000000000000
         C            2.034690207331    -0.536035746670     1.033409344974    12.000000000000
         C           -0.357091792669     0.538745253330    -0.083845655026    12.000000000000
         C            0.919916207331     1.313083253330    -0.215549655026    12.000000000000
         C           -1.683371792669    -1.469439746670    -0.229359655026    12.000000000000
         C           -1.495598792669     1.257305253330     0.299117344974    12.000000000000
         C           -2.813220792669    -0.760655746670     0.182013344974    12.000000000000
         C           -2.720151792669     0.608458253330     0.443194344974    12.000000000000
         H            0.446340207331    -2.567949746670    -1.269460655026     1.007825032230
         H            1.224587207331    -1.047393746670    -1.688101655026     1.007825032230
         H            1.514532207331    -2.616764746670     0.911878344974     1.007825032230
         H            2.762363207331    -2.134125746670    -0.242906655026     1.007825032230
         H            1.237025207331    -0.434604746670     1.777223344974     1.007825032230
         H            2.980979207331    -0.572232746670     1.581010344974     1.007825032230
         H            2.887310207331     1.231103253330     0.163415344974     1.007825032230
         H           -1.767553792669    -2.530549746670    -0.459633655026     1.007825032230
         H           -1.400087792669     2.325818253330     0.474731344974     1.007825032230
         H           -3.766156792669    -1.274131746670     0.287815344974     1.007825032230
         H           -3.600236792669     1.168241253330     0.750243344974     1.007825032230

  Basis Set: AUG-CC-PVTZ
    Blend: AUG-CC-PVTZ
  Basis Set: (AUG-CC-PVTZ AUX)
    Blend: AUG-CC-PVTZ-JKFIT
	 Reference Energy          =    -514.5868009787618576 [Eh]
	 Singles Energy            =      -0.0000000000000000 [Eh]
	 Same-Spin Energy          =      -0.5585635484756820 [Eh]
	 Opposite-Spin Energy      =      -1.7446380201506235 [Eh]
	 Correlation Energy        =      -2.3032015686263057 [Eh]
	 Total Energy              =    -516.8900025473881215 [Eh]

	 ================> DF-SCS-MP2 Energies <==================
	-----------------------------------------------------------
	 SCS Same-Spin Scale       =       0.3333333333333333 [-]
	 SCS Opposite-Spin Scale   =       1.2000000000000000 [-]
	 SCS Same-Spin Energy      =      -0.1861878494918940 [Eh]
	 SCS Opposite-Spin Energy  =      -2.0935656241807483 [Eh]
	 SCS Correlation Energy    =      -2.2797534736726424 [Eh]
	 SCS Total Energy          =    -516.8665544524344568 [Eh]
	-----------------------------------------------------------

  Dipole Moment: [D]
     X:     0.6676      Y:    -3.6364      Z:     1.7698     Total:     4.0989

*** Psi4 exiting successfully. Buy a developer a beer!
