                               Psi4 1.3.2 release

  ==> Input File <==

--------------------------------------------------------------------------
#psi4
#
memory 32 gb

molecule  {
0 1
  O        0.9417500     2.5148810    -0.6596880
  N        2.0463840     0.6978680     0.1749460
  C        0.7564320    -1.5550710    -0.8733250
  C        1.8157710    -1.7711630     0.2163790
  C       -0.4497480    -0.7926040    -0.3845090
  C        1.8844953    -0.5135933     0.9724265
  C       -0.3650830     0.5850230    -0.0943830
  C        0.9119250     1.3593610    -0.2260870
  C       -1.6913630    -1.4231620    -0.2398970
  C       -1.5035900     1.3035830     0.2885800
  C       -2.8212120    -0.7143780     0.1714760
  C       -2.7281430     0.6547360     0.4326570
  H        0.4383490    -2.5216720    -1.2799980
  H        1.2165960    -1.0011160    -1.6986390
  H        1.5065410    -2.5704870     0.9013410
  H        2.7543720    -2.0878480    -0.2534440
  H        1.2290340    -0.3883270     1.7666860
  H        2.9729880    -0.5259550     1.5704730
  H        2.8793190     1.2773810     0.1528780
  H       -1.7755450    -2.4842720    -0.4701710
  H       -1.4080790     2.3720960     0.4641940
  H       -3.7741480    -1.2278540     0.2772780
  H       -3.6082280     1.2145190     0.7397060
units angstrom
no_reorient  #important for SAPT in psi4, default
symmetry c1  #important for SAPT in psi4, default
}

set PROPERTIES_ORIGIN ["COM"]
properties('MP2/aug-cc-pvtz', properties = ['dipole'])
--------------------------------------------------------------------------

    Molecular point group: c1
  Charge       = 0
  Multiplicity = 1
  Basis Set: AUG-CC-PVTZ
    Blend: AUG-CC-PVTZ
  Basis Set: (AUG-CC-PVTZ AUX)
    Blend: AUG-CC-PVTZ-JKFIT

    Orbital Energies [Eh]
    ---------------------

    Doubly Occupied:

       1A    -20.514356     2A    -15.584605     3A    -11.349171
       4A    -11.281535     5A    -11.259010     6A    -11.249494
       7A    -11.248112     8A    -11.246276     9A    -11.242836
      10A    -11.240788    11A    -11.238803    12A    -11.237905
      13A     -1.369036    14A     -1.238654    15A     -1.165129
      16A     -1.090221    17A     -1.037591    18A     -1.024379
      19A     -0.936929    20A     -0.879546    21A     -0.844866
      22A     -0.800268    23A     -0.777936    24A     -0.698069
      25A     -0.694946    26A     -0.673692    27A     -0.647584
      28A     -0.629916    29A     -0.615079    30A     -0.604183
      31A     -0.584995    32A     -0.580529    33A     -0.557010
      34A     -0.534827    35A     -0.520847    36A     -0.509290
      37A     -0.492288    38A     -0.487952    39A     -0.462983
      40A     -0.420415    41A     -0.394670    42A     -0.344264
      43A     -0.337221

  @DF-RHF Final Energy:  -514.57075596084314

   => Energetics <=

    Nuclear Repulsion Energy =            687.4887758737041850
    One-Electron Energy =               -2062.8226532519593093
    Two-Electron Energy =                 860.7631214174120942
    Total Energy =                       -514.5707559608431438
  Basis Set: (AUG-CC-PVTZ AUX)
    Blend: AUG-CC-PVTZ-RI
    Molecular point group: c1

    Geometry (in Angstrom), charge = 0, multiplicity = 1:

       Center              X                  Y                   Z               Mass
    ------------   -----------------  -----------------  -----------------  -----------------
         O            0.967308628528     2.467795702311    -0.642586527117    15.994914619570
         N            2.071942628528     0.650782702311     0.192047472883    14.003074004430
         C            0.781990628528    -1.602156297689    -0.856223527117    12.000000000000
         C            1.841329628528    -1.818248297689     0.233480472883    12.000000000000
         C           -0.424189371472    -0.839689297689    -0.367407527117    12.000000000000
         C            1.910053928528    -0.560678597689     0.989527972883    12.000000000000
         C           -0.339524371472     0.537937702311    -0.077281527117    12.000000000000
         C            0.937483628528     1.312275702311    -0.208985527117    12.000000000000
         C           -1.665804371472    -1.470247297689    -0.222795527117    12.000000000000
         C           -1.478031371472     1.256497702311     0.305681472883    12.000000000000
         C           -2.795653371472    -0.761463297689     0.188577472883    12.000000000000
         C           -2.702584371472     0.607650702311     0.449758472883    12.000000000000
         H            0.463907628528    -2.568757297689    -1.262896527117     1.007825032230
         H            1.242154628528    -1.048201297689    -1.681537527117     1.007825032230
         H            1.532099628528    -2.617572297689     0.918442472883     1.007825032230
         H            2.779930628528    -2.134933297689    -0.236342527117     1.007825032230
         H            1.254592628528    -0.435412297689     1.783787472883     1.007825032230
         H            2.998546628528    -0.573040297689     1.587574472883     1.007825032230
         H            2.904877628528     1.230295702311     0.169979472883     1.007825032230
         H           -1.749986371472    -2.531357297689    -0.453069527117     1.007825032230
         H           -1.382520371472     2.325010702311     0.481295472883     1.007825032230
         H           -3.748589371472    -1.274939297689     0.294379472883     1.007825032230
         H           -3.582669371472     1.167433702311     0.756807472883     1.007825032230

  Basis Set: AUG-CC-PVTZ
    Blend: AUG-CC-PVTZ
  Basis Set: (AUG-CC-PVTZ AUX)
    Blend: AUG-CC-PVTZ-JKFIT
	 Reference Energy          =    -514.5707559608431438 [Eh]
	 Singles Energy            =      -0.0000000000000000 [Eh]
	 Same-Spin Energy          =      -0.5601849960706331 [Eh]
	 Opposite-Spin Energy      =      -1.7469722043911904 [Eh]
	 Correlation Energy        =      -2.3071572004618233 [Eh]
	 Total Energy              =    -516.8779131613049458 [Eh]

	 ================> DF-SCS-MP2 Energies <==================
	-----------------------------------------------------------
	 SCS Same-Spin Scale       =       0.3333333333333333 [-]
	 SCS Opposite-Spin Scale   =       1.2000000000000000 [-]
	 SCS Same-Spin Energy      =      -0.1867283320235444 [Eh]
	 SCS Opposite-Spin Energy  =      -2.0963666452694283 [Eh]
	 SCS Correlation Energy    =      -2.2830949772929725 [Eh]
	 SCS Total Energy          =    -516.8538509381361337 [Eh]
	-----------------------------------------------------------

  Dipole Moment: [D]
     X:     0.4908      Y:    -3.6727      Z:     1.6991     Total:     4.0763

*** Psi4 exiting successfully. Buy a developer a beer!
