                               Psi4 1.3.2 release

  ==> Input File <==

--------------------------------------------------------------------------
#psi4
#
memory 32 gb

molecule  {
0 1
  O        0.9417500     2.5148810    -0.6596880
  N        2.0463840     0.6978680     0.1749460
  C        0.7564320    -1.5550710    -0.8733250
  C        1.8157710    -1.7711630     0.2163790
  C       -0.4497480    -0.7926040    -0.3845090
  C        2.0266990    -0.4897580     1.0228720
  C       -0.3650830     0.5850230    -0.0943830
  C        0.9119250     1.3593610    -0.2260870
  C       -1.7800470    -1.4682004    -0.2295679
  C       -1.5035900     1.3035830     0.2885800
  C       -2.8212120    -0.7143780     0.1714760
  C       -2.7281430     0.6547360     0.4326570
  H        0.4383490    -2.5216720    -1.2799980
  H        1.2165960    -1.0011160    -1.6986390
  H        1.5065410    -2.5704870     0.9013410
  H        2.7543720    -2.0878480    -0.2534440
  H        1.2290340    -0.3883270     1.7666860
  H        2.9729880    -0.5259550     1.5704730
  H        2.8793190     1.2773810     0.1528780
  H       -1.7755450    -2.4842720    -0.4701710
  H       -1.4080790     2.3720960     0.4641940
  H       -3.7741480    -1.2278540     0.2772780
  H       -3.6082280     1.2145190     0.7397060
units angstrom
no_reorient  #important for SAPT in psi4, default
symmetry c1  #important for SAPT in psi4, default
}

set PROPERTIES_ORIGIN ["COM"]
properties('MP2/aug-cc-pvtz', properties = ['dipole'])
--------------------------------------------------------------------------

    Molecular point group: c1
  Charge       = 0
  Multiplicity = 1
  Basis Set: AUG-CC-PVTZ
    Blend: AUG-CC-PVTZ
  Basis Set: (AUG-CC-PVTZ AUX)
    Blend: AUG-CC-PVTZ-JKFIT

    Orbital Energies [Eh]
    ---------------------

    Doubly Occupied:

       1A    -20.515597     2A    -15.583143     3A    -11.351794
       4A    -11.276003     5A    -11.268872     6A    -11.246738
       7A    -11.245267     8A    -11.243775     9A    -11.242232
      10A    -11.240996    11A    -11.238973    12A    -11.238814
      13A     -1.369470    14A     -1.234996    15A     -1.159374
      16A     -1.082087    17A     -1.043113    18A     -1.015849
      19A     -0.938226    20A     -0.878228    21A     -0.844506
      22A     -0.797981    23A     -0.775619    24A     -0.699051
      25A     -0.686843    26A     -0.671441    27A     -0.652943
      28A     -0.625838    29A     -0.612636    30A     -0.608130
      31A     -0.586183    32A     -0.575617    33A     -0.556530
      34A     -0.537644    35A     -0.519680    36A     -0.504862
      37A     -0.493529    38A     -0.489238    39A     -0.477745
      40A     -0.422258    41A     -0.389916    42A     -0.352283
      43A     -0.325628

  @DF-RHF Final Energy:  -514.58520933339901

   => Energetics <=

    Nuclear Repulsion Energy =            683.5794167918521680
    One-Electron Energy =               -2055.0899513595909411
    Two-Electron Energy =                 856.9253252343398799
    Total Energy =                       -514.5852093333990069
  Basis Set: (AUG-CC-PVTZ AUX)
    Blend: AUG-CC-PVTZ-RI
    Molecular point group: c1

    Geometry (in Angstrom), charge = 0, multiplicity = 1:

       Center              X                  Y                   Z               Mass
    ------------   -----------------  -----------------  -----------------  -----------------
         O            0.963321664305     2.469375232860    -0.647113947037    15.994914619570
         N            2.067955664305     0.652362232860     0.187520052963    14.003074004430
         C            0.778003664305    -1.600576767140    -0.860750947037    12.000000000000
         C            1.837342664305    -1.816668767140     0.228953052963    12.000000000000
         C           -0.428176335695    -0.838109767140    -0.371934947037    12.000000000000
         C            2.048270664305    -0.535263767140     1.035446052963    12.000000000000
         C           -0.343511335695     0.539517232860    -0.081808947037    12.000000000000
         C            0.933496664305     1.313855232860    -0.213512947037    12.000000000000
         C           -1.758475335695    -1.513706167140    -0.216993847037    12.000000000000
         C           -1.482018335695     1.258077232860     0.301154052963    12.000000000000
         C           -2.799640335695    -0.759883767140     0.184050052963    12.000000000000
         C           -2.706571335695     0.609230232860     0.445231052963    12.000000000000
         H            0.459920664305    -2.567177767140    -1.267423947037     1.007825032230
         H            1.238167664305    -1.046621767140    -1.686064947037     1.007825032230
         H            1.528112664305    -2.615992767140     0.913915052963     1.007825032230
         H            2.775943664305    -2.133353767140    -0.240869947037     1.007825032230
         H            1.250605664305    -0.433832767140     1.779260052963     1.007825032230
         H            2.994559664305    -0.571460767140     1.583047052963     1.007825032230
         H            2.900890664305     1.231875232860     0.165452052963     1.007825032230
         H           -1.753973335695    -2.529777767140    -0.457596947037     1.007825032230
         H           -1.386507335695     2.326590232860     0.476768052963     1.007825032230
         H           -3.752576335695    -1.273359767140     0.289852052963     1.007825032230
         H           -3.586656335695     1.169013232860     0.752280052963     1.007825032230

  Basis Set: AUG-CC-PVTZ
    Blend: AUG-CC-PVTZ
  Basis Set: (AUG-CC-PVTZ AUX)
    Blend: AUG-CC-PVTZ-JKFIT
	 Reference Energy          =    -514.5852093333990069 [Eh]
	 Singles Energy            =      -0.0000000000000000 [Eh]
	 Same-Spin Energy          =      -0.5584648143341456 [Eh]
	 Opposite-Spin Energy      =      -1.7448812348364808 [Eh]
	 Correlation Energy        =      -2.3033460491706266 [Eh]
	 Total Energy              =    -516.8885553825696206 [Eh]

	 ================> DF-SCS-MP2 Energies <==================
	-----------------------------------------------------------
	 SCS Same-Spin Scale       =       0.3333333333333333 [-]
	 SCS Opposite-Spin Scale   =       1.2000000000000000 [-]
	 SCS Same-Spin Energy      =      -0.1861549381113819 [Eh]
	 SCS Opposite-Spin Energy  =      -2.0938574818037767 [Eh]
	 SCS Correlation Energy    =      -2.2800124199151588 [Eh]
	 SCS Total Energy          =    -516.8652217533141311 [Eh]
	-----------------------------------------------------------

  Dipole Moment: [D]
     X:     0.6714      Y:    -3.6441      Z:     1.7525     Total:     4.0990

*** Psi4 exiting successfully. Buy a developer a beer!
