                               Psi4 1.3.2 release

  ==> Input File <==

--------------------------------------------------------------------------
#psi4
#
memory 32 gb

molecule  {
0 1
  O        0.9417500     2.5148810    -0.6596880
  N        2.0536809     0.7263528     0.2165420
  C        0.7564320    -1.5550710    -0.8733250
  C        1.8157710    -1.7711630     0.2163790
  C       -0.4497480    -0.7926040    -0.3845090
  C        2.0266990    -0.4897580     1.0228720
  C       -0.3650830     0.5850230    -0.0943830
  C        0.9119250     1.3593610    -0.2260870
  C       -1.6913630    -1.4231620    -0.2398970
  C       -1.5035900     1.3035830     0.2885800
  C       -2.8212120    -0.7143780     0.1714760
  C       -2.7281430     0.6547360     0.4326570
  H        0.4383490    -2.5216720    -1.2799980
  H        1.2165960    -1.0011160    -1.6986390
  H        1.5065410    -2.5704870     0.9013410
  H        2.7543720    -2.0878480    -0.2534440
  H        1.2290340    -0.3883270     1.7666860
  H        2.9729880    -0.5259550     1.5704730
  H        2.8793190     1.2773810     0.1528780
  H       -1.7755450    -2.4842720    -0.4701710
  H       -1.4080790     2.3720960     0.4641940
  H       -3.7741480    -1.2278540     0.2772780
  H       -3.6082280     1.2145190     0.7397060
units angstrom
no_reorient  #important for SAPT in psi4, default
symmetry c1  #important for SAPT in psi4, default
}

set PROPERTIES_ORIGIN ["COM"]
properties('MP2/aug-cc-pvtz', properties = ['dipole'])
--------------------------------------------------------------------------

    Molecular point group: c1
  Charge       = 0
  Multiplicity = 1
  Basis Set: AUG-CC-PVTZ
    Blend: AUG-CC-PVTZ
  Basis Set: (AUG-CC-PVTZ AUX)
    Blend: AUG-CC-PVTZ-JKFIT

    Orbital Energies [Eh]
    ---------------------

    Doubly Occupied:

       1A    -20.514414     2A    -15.580594     3A    -11.351712
       4A    -11.275310     5A    -11.258622     6A    -11.249066
       7A    -11.247874     8A    -11.245972     9A    -11.242011
      10A    -11.240188    11A    -11.240097    12A    -11.238736
      13A     -1.368532    14A     -1.233623    15A     -1.164760
      16A     -1.082999    17A     -1.036808    18A     -1.020753
      19A     -0.938494    20A     -0.882364    21A     -0.842340
      22A     -0.799141    23A     -0.778631    24A     -0.698737
      25A     -0.682699    26A     -0.672492    27A     -0.652997
      28A     -0.623088    29A     -0.617387    30A     -0.600245
      31A     -0.586756    32A     -0.578075    33A     -0.556675
      34A     -0.536518    35A     -0.518741    36A     -0.510756
      37A     -0.492949    38A     -0.490688    39A     -0.478690
      40A     -0.422697    41A     -0.387488    42A     -0.344191
      43A     -0.336387

  @DF-RHF Final Energy:  -514.59676183893748

   => Energetics <=

    Nuclear Repulsion Energy =            684.7224981363633560
    One-Electron Energy =               -2057.3959301415193295
    Two-Electron Energy =                 858.0766701662184914
    Total Energy =                       -514.5967618389374820
  Basis Set: (AUG-CC-PVTZ AUX)
    Blend: AUG-CC-PVTZ-RI
    Molecular point group: c1

    Geometry (in Angstrom), charge = 0, multiplicity = 1:

       Center              X                  Y                   Z               Mass
    ------------   -----------------  -----------------  -----------------  -----------------
         O            0.956080805080     2.463543895240    -0.649960427656    15.994914619570
         N            2.068011705080     0.675015695240     0.226269572344    14.003074004430
         C            0.770762805080    -1.606408104760    -0.863597427656    12.000000000000
         C            1.830101805080    -1.822500104760     0.226106572344    12.000000000000
         C           -0.435417194920    -0.843941104760    -0.374781427656    12.000000000000
         C            2.041029805080    -0.541095104760     1.032599572344    12.000000000000
         C           -0.350752194920     0.533685895240    -0.084655427656    12.000000000000
         C            0.926255805080     1.308023895240    -0.216359427656    12.000000000000
         C           -1.677032194920    -1.474499104760    -0.230169427656    12.000000000000
         C           -1.489259194920     1.252245895240     0.298307572344    12.000000000000
         C           -2.806881194920    -0.765715104760     0.181203572344    12.000000000000
         C           -2.713812194920     0.603398895240     0.442384572344    12.000000000000
         H            0.452679805080    -2.573009104760    -1.270270427656     1.007825032230
         H            1.230926805080    -1.052453104760    -1.688911427656     1.007825032230
         H            1.520871805080    -2.621824104760     0.911068572344     1.007825032230
         H            2.768702805080    -2.139185104760    -0.243716427656     1.007825032230
         H            1.243364805080    -0.439664104760     1.776413572344     1.007825032230
         H            2.987318805080    -0.577292104760     1.580200572344     1.007825032230
         H            2.893649805080     1.226043895240     0.162605572344     1.007825032230
         H           -1.761214194920    -2.535609104760    -0.460443427656     1.007825032230
         H           -1.393748194920     2.320758895240     0.473921572344     1.007825032230
         H           -3.759817194920    -1.279191104760     0.287005572344     1.007825032230
         H           -3.593897194920     1.163181895240     0.749433572344     1.007825032230

  Basis Set: AUG-CC-PVTZ
    Blend: AUG-CC-PVTZ
  Basis Set: (AUG-CC-PVTZ AUX)
    Blend: AUG-CC-PVTZ-JKFIT
	 Reference Energy          =    -514.5967618389374820 [Eh]
	 Singles Energy            =      -0.0000000000000000 [Eh]
	 Same-Spin Energy          =      -0.5583997148244189 [Eh]
	 Opposite-Spin Energy      =      -1.7439759795594041 [Eh]
	 Correlation Energy        =      -2.3023756943838229 [Eh]
	 Total Energy              =    -516.8991375333213227 [Eh]

	 ================> DF-SCS-MP2 Energies <==================
	-----------------------------------------------------------
	 SCS Same-Spin Scale       =       0.3333333333333333 [-]
	 SCS Opposite-Spin Scale   =       1.2000000000000000 [-]
	 SCS Same-Spin Energy      =      -0.1861332382748063 [Eh]
	 SCS Opposite-Spin Energy  =      -2.0927711754712850 [Eh]
	 SCS Correlation Energy    =      -2.2789044137460914 [Eh]
	 SCS Total Energy          =    -516.8756662526835726 [Eh]
	-----------------------------------------------------------

  Dipole Moment: [D]
     X:     0.6096      Y:    -3.6729      Z:     1.6913     Total:     4.0893

*** Psi4 exiting successfully. Buy a developer a beer!
