                               Psi4 1.3.2 release

  ==> Input File <==

--------------------------------------------------------------------------
#psi4
#
memory 32 gb

molecule  {
0 1
  O        0.9417500     2.5148810    -0.6596880
  N        2.0231268     0.6919078     0.1664406
  C        0.7564320    -1.5550710    -0.8733250
  C        1.8157710    -1.7711630     0.2163790
  C       -0.4497480    -0.7926040    -0.3845090
  C        2.0266990    -0.4897580     1.0228720
  C       -0.3650830     0.5850230    -0.0943830
  C        0.9119250     1.3593610    -0.2260870
  C       -1.6913630    -1.4231620    -0.2398970
  C       -1.5035900     1.3035830     0.2885800
  C       -2.8212120    -0.7143780     0.1714760
  C       -2.7281430     0.6547360     0.4326570
  H        0.4383490    -2.5216720    -1.2799980
  H        1.2165960    -1.0011160    -1.6986390
  H        1.5065410    -2.5704870     0.9013410
  H        2.7543720    -2.0878480    -0.2534440
  H        1.2290340    -0.3883270     1.7666860
  H        2.9729880    -0.5259550     1.5704730
  H        2.8793190     1.2773810     0.1528780
  H       -1.7755450    -2.4842720    -0.4701710
  H       -1.4080790     2.3720960     0.4641940
  H       -3.7741480    -1.2278540     0.2772780
  H       -3.6082280     1.2145190     0.7397060
units angstrom
no_reorient  #important for SAPT in psi4, default
symmetry c1  #important for SAPT in psi4, default
}

set PROPERTIES_ORIGIN ["COM"]
properties('MP2/aug-cc-pvtz', properties = ['dipole'])
--------------------------------------------------------------------------

    Molecular point group: c1
  Charge       = 0
  Multiplicity = 1
  Basis Set: AUG-CC-PVTZ
    Blend: AUG-CC-PVTZ
  Basis Set: (AUG-CC-PVTZ AUX)
    Blend: AUG-CC-PVTZ-JKFIT

    Orbital Energies [Eh]
    ---------------------

    Doubly Occupied:

       1A    -20.512799     2A    -15.585579     3A    -11.349146
       4A    -11.277142     5A    -11.257733     6A    -11.248221
       7A    -11.246088     8A    -11.244632     9A    -11.241370
      10A    -11.239403    11A    -11.239320    12A    -11.238330
      13A     -1.369047    14A     -1.237848    15A     -1.163576
      16A     -1.082547    17A     -1.036623    18A     -1.020917
      19A     -0.939455    20A     -0.881483    21A     -0.840968
      22A     -0.798234    23A     -0.775240    24A     -0.695428
      25A     -0.687413    26A     -0.671484    27A     -0.653593
      28A     -0.622958    29A     -0.615782    30A     -0.599699
      31A     -0.587574    32A     -0.574330    33A     -0.557840
      34A     -0.536390    35A     -0.518305    36A     -0.508550
      37A     -0.492825    38A     -0.489634    39A     -0.478365
      40A     -0.422624    41A     -0.390241    42A     -0.343212
      43A     -0.335725

  @DF-RHF Final Energy:  -514.59552813370476

   => Energetics <=

    Nuclear Repulsion Energy =            685.6884666790498386
    One-Electron Energy =               -2059.3526448235857060
    Two-Electron Energy =                 859.0686500108312202
    Total Energy =                       -514.5955281337047609
  Basis Set: (AUG-CC-PVTZ AUX)
    Blend: AUG-CC-PVTZ-RI
    Molecular point group: c1

    Geometry (in Angstrom), charge = 0, multiplicity = 1:

       Center              X                  Y                   Z               Mass
    ------------   -----------------  -----------------  -----------------  -----------------
         O            0.958736879882     2.466538206857    -0.645605101657    15.994914619570
         N            2.040113679882     0.643565006857     0.180523498343    14.003074004430
         C            0.773418879882    -1.603413793143    -0.859242101657    12.000000000000
         C            1.832757879882    -1.819505793143     0.230461898343    12.000000000000
         C           -0.432761120118    -0.840946793143    -0.370426101657    12.000000000000
         C            2.043685879882    -0.538100793143     1.036954898343    12.000000000000
         C           -0.348096120118     0.536680206857    -0.080300101657    12.000000000000
         C            0.928911879882     1.311018206857    -0.212004101657    12.000000000000
         C           -1.674376120118    -1.471504793143    -0.225814101657    12.000000000000
         C           -1.486603120118     1.255240206857     0.302662898343    12.000000000000
         C           -2.804225120118    -0.762720793143     0.185558898343    12.000000000000
         C           -2.711156120118     0.606393206857     0.446739898343    12.000000000000
         H            0.455335879882    -2.570014793143    -1.265915101657     1.007825032230
         H            1.233582879882    -1.049458793143    -1.684556101657     1.007825032230
         H            1.523527879882    -2.618829793143     0.915423898343     1.007825032230
         H            2.771358879882    -2.136190793143    -0.239361101657     1.007825032230
         H            1.246020879882    -0.436669793143     1.780768898343     1.007825032230
         H            2.989974879882    -0.574297793143     1.584555898343     1.007825032230
         H            2.896305879882     1.229038206857     0.166960898343     1.007825032230
         H           -1.758558120118    -2.532614793143    -0.456088101657     1.007825032230
         H           -1.391092120118     2.323753206857     0.478276898343     1.007825032230
         H           -3.757161120118    -1.276196793143     0.291360898343     1.007825032230
         H           -3.591241120118     1.166176206857     0.753788898343     1.007825032230

  Basis Set: AUG-CC-PVTZ
    Blend: AUG-CC-PVTZ
  Basis Set: (AUG-CC-PVTZ AUX)
    Blend: AUG-CC-PVTZ-JKFIT
	 Reference Energy          =    -514.5955281337047609 [Eh]
	 Singles Energy            =      -0.0000000000000000 [Eh]
	 Same-Spin Energy          =      -0.5588579789148462 [Eh]
	 Opposite-Spin Energy      =      -1.7445742751090696 [Eh]
	 Correlation Energy        =      -2.3034322540239156 [Eh]
	 Total Energy              =    -516.8989603877287209 [Eh]

	 ================> DF-SCS-MP2 Energies <==================
	-----------------------------------------------------------
	 SCS Same-Spin Scale       =       0.3333333333333333 [-]
	 SCS Opposite-Spin Scale   =       1.2000000000000000 [-]
	 SCS Same-Spin Energy      =      -0.1862859929716154 [Eh]
	 SCS Opposite-Spin Energy  =      -2.0934891301308833 [Eh]
	 SCS Correlation Energy    =      -2.2797751231024987 [Eh]
	 SCS Total Energy          =    -516.8753032568072285 [Eh]
	-----------------------------------------------------------

  Dipole Moment: [D]
     X:     0.7246      Y:    -3.6616      Z:     1.8138     Total:     4.1500

*** Psi4 exiting successfully. Buy a developer a beer!
