                               Psi4 1.4a3.dev225

  ==> Input File <==

--------------------------------------------------------------------------
#psi4
#
memory 32 gb

molecule  {
0 1
  O        0.9417500     2.5148810    -0.6596880
  N        2.0463840     0.6978680     0.1749460
  C        0.7564320    -1.5550710    -0.8733250
  C        1.8157710    -1.7711630     0.2163790
  C       -0.4497480    -0.7926040    -0.3845090
  C        2.0266990    -0.4897580     1.0228720
  C       -0.3620815     0.6338615    -0.0840977
  C        0.9119250     1.3593610    -0.2260870
  C       -1.6913630    -1.4231620    -0.2398970
  C       -1.5035900     1.3035830     0.2885800
  C       -2.8212120    -0.7143780     0.1714760
  C       -2.7281430     0.6547360     0.4326570
  H        0.4383490    -2.5216720    -1.2799980
  H        1.2165960    -1.0011160    -1.6986390
  H        1.5065410    -2.5704870     0.9013410
  H        2.7543720    -2.0878480    -0.2534440
  H        1.2290340    -0.3883270     1.7666860
  H        2.9729880    -0.5259550     1.5704730
  H        2.8793190     1.2773810     0.1528780
  H       -1.7755450    -2.4842720    -0.4701710
  H       -1.4080790     2.3720960     0.4641940
  H       -3.7741480    -1.2278540     0.2772780
  H       -3.6082280     1.2145190     0.7397060
units angstrom
no_reorient  #important for SAPT in psi4, default
symmetry c1  #important for SAPT in psi4, default
}

set PROPERTIES_ORIGIN ["COM"]
properties('MP2/aug-cc-pvtz', properties = ['dipole'])
--------------------------------------------------------------------------

    Molecular point group: c1
  Charge       = 0
  Multiplicity = 1
  Basis Set: AUG-CC-PVTZ
    Blend: AUG-CC-PVTZ
  Basis Set: (AUG-CC-PVTZ AUX)
    Blend: AUG-CC-PVTZ-JKFIT

    Orbital Energies [Eh]
    ---------------------

    Doubly Occupied:

       1A    -20.513633     2A    -15.583135     3A    -11.349665
       4A    -11.275884     5A    -11.263560     6A    -11.249747
       7A    -11.247344     8A    -11.243910     9A    -11.241653
      10A    -11.240020    11A    -11.239763    12A    -11.238060
      13A     -1.369366    14A     -1.234709    15A     -1.161902
      16A     -1.082208    17A     -1.039090    18A     -1.020726
      19A     -0.938131    20A     -0.885090    21A     -0.840600
      22A     -0.796288    23A     -0.775835    24A     -0.699707
      25A     -0.685785    26A     -0.672182    27A     -0.651669
      28A     -0.622773    29A     -0.617512    30A     -0.602155
      31A     -0.585201    32A     -0.576952    33A     -0.557369
      34A     -0.535589    35A     -0.519538    36A     -0.509475
      37A     -0.491040    38A     -0.489044    39A     -0.478049
      40A     -0.424085    41A     -0.389297    42A     -0.347574
      43A     -0.331271

  @DF-RHF Final Energy:  -514.59356902902744

   => Energetics <=

    Nuclear Repulsion Energy =            684.8859188428593825
    One-Electron Energy =               -2057.7258031671094614
    Two-Electron Energy =                 858.2463152952226437
    Total Energy =                       -514.5935690290274351
  Basis Set: (AUG-CC-PVTZ AUX)
    Blend: AUG-CC-PVTZ-RI
    Molecular point group: c1

    Geometry (in Angstrom), charge = 0, multiplicity = 1:

       Center              X                  Y                   Z               Mass
    ------------   -----------------  -----------------  -----------------  -----------------
         O            0.956491528705     2.462381848337    -0.647110684144    15.994914619570
         N            2.061125528705     0.645368848337     0.187523315856    14.003074004430
         C            0.771173528705    -1.607570151663    -0.860747684144    12.000000000000
         C            1.830512528705    -1.823662151663     0.228956315856    12.000000000000
         C           -0.435006471295    -0.845103151663    -0.371931684144    12.000000000000
         C            2.041440528705    -0.542257151663     1.035449315856    12.000000000000
         C           -0.347339971295     0.581362348337    -0.071520384144    12.000000000000
         C            0.926666528705     1.306861848337    -0.213509684144    12.000000000000
         C           -1.676621471295    -1.475661151663    -0.227319684144    12.000000000000
         C           -1.488848471295     1.251083848337     0.301157315856    12.000000000000
         C           -2.806470471295    -0.766877151663     0.184053315856    12.000000000000
         C           -2.713401471295     0.602236848337     0.445234315856    12.000000000000
         H            0.453090528705    -2.574171151663    -1.267420684144     1.007825032230
         H            1.231337528705    -1.053615151663    -1.686061684144     1.007825032230
         H            1.521282528705    -2.622986151663     0.913918315856     1.007825032230
         H            2.769113528705    -2.140347151663    -0.240866684144     1.007825032230
         H            1.243775528705    -0.440826151663     1.779263315856     1.007825032230
         H            2.987729528705    -0.578454151663     1.583050315856     1.007825032230
         H            2.894060528705     1.224881848337     0.165455315856     1.007825032230
         H           -1.760803471295    -2.536771151663    -0.457593684144     1.007825032230
         H           -1.393337471295     2.319596848337     0.476771315856     1.007825032230
         H           -3.759406471295    -1.280353151663     0.289855315856     1.007825032230
         H           -3.593486471295     1.162019848337     0.752283315856     1.007825032230

  Basis Set: AUG-CC-PVTZ
    Blend: AUG-CC-PVTZ
  Basis Set: (AUG-CC-PVTZ AUX)
    Blend: AUG-CC-PVTZ-JKFIT
	 Reference Energy          =    -514.5935690290274351 [Eh]
	 Singles Energy            =      -0.0000000000000000 [Eh]
	 Same-Spin Energy          =      -0.5586973015021980 [Eh]
	 Opposite-Spin Energy      =      -1.7446276536713363 [Eh]
	 Correlation Energy        =      -2.3033249551735344 [Eh]
	 Total Energy              =    -516.8968939842009149 [Eh]

	 ================> DF-SCS-MP2 Energies <==================
	-----------------------------------------------------------
	 SCS Same-Spin Scale       =       0.3333333333333333 [-]
	 SCS Opposite-Spin Scale   =       1.2000000000000000 [-]
	 SCS Same-Spin Energy      =      -0.1862324338340660 [Eh]
	 SCS Opposite-Spin Energy  =      -2.0935531844056037 [Eh]
	 SCS Correlation Energy    =      -2.2797856182396696 [Eh]
	 SCS Total Energy          =    -516.8733546472670923 [Eh]
	-----------------------------------------------------------

  Dipole Moment: [D]
     X:     0.6056      Y:    -3.6423      Z:     1.7771     Total:     4.0977

*** Psi4 exiting successfully. Buy a developer a beer!
