                               Psi4 1.3.2 release

  ==> Input File <==

--------------------------------------------------------------------------
#psi4
#
memory 32 gb

molecule  {
0 1
  O        0.8989570     2.5133676    -0.6645233
  N        2.0463840     0.6978680     0.1749460
  C        0.7564320    -1.5550710    -0.8733250
  C        1.8157710    -1.7711630     0.2163790
  C       -0.4497480    -0.7926040    -0.3845090
  C        2.0266990    -0.4897580     1.0228720
  C       -0.3650830     0.5850230    -0.0943830
  C        0.9119250     1.3593610    -0.2260870
  C       -1.6913630    -1.4231620    -0.2398970
  C       -1.5035900     1.3035830     0.2885800
  C       -2.8212120    -0.7143780     0.1714760
  C       -2.7281430     0.6547360     0.4326570
  H        0.4383490    -2.5216720    -1.2799980
  H        1.2165960    -1.0011160    -1.6986390
  H        1.5065410    -2.5704870     0.9013410
  H        2.7543720    -2.0878480    -0.2534440
  H        1.2290340    -0.3883270     1.7666860
  H        2.9729880    -0.5259550     1.5704730
  H        2.8793190     1.2773810     0.1528780
  H       -1.7755450    -2.4842720    -0.4701710
  H       -1.4080790     2.3720960     0.4641940
  H       -3.7741480    -1.2278540     0.2772780
  H       -3.6082280     1.2145190     0.7397060
units angstrom
no_reorient  #important for SAPT in psi4, default
symmetry c1  #important for SAPT in psi4, default
}

set PROPERTIES_ORIGIN ["COM"]
properties('MP2/aug-cc-pvtz', properties = ['dipole'])
--------------------------------------------------------------------------

    Molecular point group: c1
  Charge       = 0
  Multiplicity = 1
  Basis Set: AUG-CC-PVTZ
    Blend: AUG-CC-PVTZ
  Basis Set: (AUG-CC-PVTZ AUX)
    Blend: AUG-CC-PVTZ-JKFIT

    Orbital Energies [Eh]
    ---------------------

    Doubly Occupied:

       1A    -20.515876     2A    -15.585074     3A    -11.351834
       4A    -11.276968     5A    -11.257003     6A    -11.247693
       7A    -11.245590     8A    -11.244109     9A    -11.240838
      10A    -11.239208    11A    -11.238868    12A    -11.238242
      13A     -1.369077    14A     -1.237176    15A     -1.163221
      16A     -1.082209    17A     -1.035605    18A     -1.020248
      19A     -0.938606    20A     -0.881053    21A     -0.840963
      22A     -0.797841    23A     -0.776416    24A     -0.696990
      25A     -0.686148    26A     -0.671723    27A     -0.652600
      28A     -0.622785    29A     -0.616610    30A     -0.599322
      31A     -0.587222    32A     -0.576283    33A     -0.556931
      34A     -0.535879    35A     -0.518583    36A     -0.509120
      37A     -0.492681    38A     -0.489540    39A     -0.478052
      40A     -0.423304    41A     -0.391395    42A     -0.342310
      43A     -0.335214

  @DF-RHF Final Energy:  -514.59620436915043

   => Energetics <=

    Nuclear Repulsion Energy =            685.3277841638268910
    One-Electron Energy =               -2058.6351633575368396
    Two-Electron Energy =                 858.7111748245595209
    Total Energy =                       -514.5962043691504277
  Basis Set: (AUG-CC-PVTZ AUX)
    Blend: AUG-CC-PVTZ-RI
    Molecular point group: c1

    Geometry (in Angstrom), charge = 0, multiplicity = 1:

       Center              X                  Y                   Z               Mass
    ------------   -----------------  -----------------  -----------------  -----------------
         O            0.918171276434     2.464656959061    -0.650699654708    15.994914619570
         N            2.065598276434     0.649157359061     0.188769645292    14.003074004430
         C            0.775646276434    -1.603781640939    -0.859501354708    12.000000000000
         C            1.834985276434    -1.819873640939     0.230202645292    12.000000000000
         C           -0.430533723566    -0.841314640939    -0.370685354708    12.000000000000
         C            2.045913276434    -0.538468640939     1.036695645292    12.000000000000
         C           -0.345868723566     0.536312359061    -0.080559354708    12.000000000000
         C            0.931139276434     1.310650359061    -0.212263354708    12.000000000000
         C           -1.672148723566    -1.471872640939    -0.226073354708    12.000000000000
         C           -1.484375723566     1.254872359061     0.302403645292    12.000000000000
         C           -2.801997723566    -0.763088640939     0.185299645292    12.000000000000
         C           -2.708928723566     0.606025359061     0.446480645292    12.000000000000
         H            0.457563276434    -2.570382640939    -1.266174354708     1.007825032230
         H            1.235810276434    -1.049826640939    -1.684815354708     1.007825032230
         H            1.525755276434    -2.619197640939     0.915164645292     1.007825032230
         H            2.773586276434    -2.136558640939    -0.239620354708     1.007825032230
         H            1.248248276434    -0.437037640939     1.780509645292     1.007825032230
         H            2.992202276434    -0.574665640939     1.584296645292     1.007825032230
         H            2.898533276434     1.228670359061     0.166701645292     1.007825032230
         H           -1.756330723566    -2.532982640939    -0.456347354708     1.007825032230
         H           -1.388864723566     2.323385359061     0.478017645292     1.007825032230
         H           -3.754933723566    -1.276564640939     0.291101645292     1.007825032230
         H           -3.589013723566     1.165808359061     0.753529645292     1.007825032230

  Basis Set: AUG-CC-PVTZ
    Blend: AUG-CC-PVTZ
  Basis Set: (AUG-CC-PVTZ AUX)
    Blend: AUG-CC-PVTZ-JKFIT
	 Reference Energy          =    -514.5962043691504277 [Eh]
	 Singles Energy            =      -0.0000000000000000 [Eh]
	 Same-Spin Energy          =      -0.5587148152856912 [Eh]
	 Opposite-Spin Energy      =      -1.7444904851587602 [Eh]
	 Correlation Energy        =      -2.3032053004444513 [Eh]
	 Total Energy              =    -516.8994096695948883 [Eh]

	 ================> DF-SCS-MP2 Energies <==================
	-----------------------------------------------------------
	 SCS Same-Spin Scale       =       0.3333333333333333 [-]
	 SCS Opposite-Spin Scale   =       1.2000000000000000 [-]
	 SCS Same-Spin Energy      =      -0.1862382717618971 [Eh]
	 SCS Opposite-Spin Energy  =      -2.0933885821905123 [Eh]
	 SCS Correlation Energy    =      -2.2796268539524092 [Eh]
	 SCS Total Energy          =    -516.8758312231028640 [Eh]
	-----------------------------------------------------------

  Dipole Moment: [D]
     X:     0.7701      Y:    -3.5865      Z:     1.7803     Total:     4.0775

*** Psi4 exiting successfully. Buy a developer a beer!
