                               Psi4 1.4a3.dev225

  ==> Input File <==

--------------------------------------------------------------------------
#psi4
#
memory 32 gb

molecule  {
0 1
  O        0.9417500     2.5148810    -0.6596880
  N        2.0463840     0.6978680     0.1749460
  C        0.7564320    -1.5550710    -0.8733250
  C        1.8157710    -1.7711630     0.2163790
  C       -0.4497480    -0.7926040    -0.3845090
  C        2.0266990    -0.4897580     1.0228720
  C       -0.3650830     0.5850230    -0.0943830
  C        0.9114418     1.3406414    -0.2190626
  C       -1.6913630    -1.4231620    -0.2398970
  C       -1.5035900     1.3035830     0.2885800
  C       -2.8212120    -0.7143780     0.1714760
  C       -2.7281430     0.6547360     0.4326570
  H        0.4383490    -2.5216720    -1.2799980
  H        1.2165960    -1.0011160    -1.6986390
  H        1.5065410    -2.5704870     0.9013410
  H        2.7543720    -2.0878480    -0.2534440
  H        1.2290340    -0.3883270     1.7666860
  H        2.9729880    -0.5259550     1.5704730
  H        2.8793190     1.2773810     0.1528780
  H       -1.7755450    -2.4842720    -0.4701710
  H       -1.4080790     2.3720960     0.4641940
  H       -3.7741480    -1.2278540     0.2772780
  H       -3.6082280     1.2145190     0.7397060
units angstrom
no_reorient  #important for SAPT in psi4, default
symmetry c1  #important for SAPT in psi4, default
}

set PROPERTIES_ORIGIN ["COM"]
properties('MP2/aug-cc-pvtz', properties = ['dipole'])
--------------------------------------------------------------------------

    Molecular point group: c1
  Charge       = 0
  Multiplicity = 1
  Basis Set: AUG-CC-PVTZ
    Blend: AUG-CC-PVTZ
  Basis Set: (AUG-CC-PVTZ AUX)
    Blend: AUG-CC-PVTZ-JKFIT

    Orbital Energies [Eh]
    ---------------------

    Doubly Occupied:

       1A    -20.510923     2A    -15.585456     3A    -11.351421
       4A    -11.276858     5A    -11.258985     6A    -11.249561
       7A    -11.247639     8A    -11.246249     9A    -11.242191
      10A    -11.240283    11A    -11.240247    12A    -11.238990
      13A     -1.357492    14A     -1.235899    15A     -1.165238
      16A     -1.083322    17A     -1.038290    18A     -1.021603
      19A     -0.939739    20A     -0.884025    21A     -0.842417
      22A     -0.799016    23A     -0.778597    24A     -0.698765
      25A     -0.686280    26A     -0.672377    27A     -0.652681
      28A     -0.623014    29A     -0.616369    30A     -0.600325
      31A     -0.584369    32A     -0.575571    33A     -0.555877
      34A     -0.536391    35A     -0.517828    36A     -0.509003
      37A     -0.493204    38A     -0.490399    39A     -0.478153
      40A     -0.421699    41A     -0.388614    42A     -0.344050
      43A     -0.336682

  @DF-RHF Final Energy:  -514.59449879229442

   => Energetics <=

    Nuclear Repulsion Energy =            685.2498109430015347
    One-Electron Energy =               -2058.4564336964576796
    Two-Electron Energy =                 858.6121239611616147
    Total Energy =                       -514.5944987922944165
  Basis Set: (AUG-CC-PVTZ AUX)
    Blend: AUG-CC-PVTZ-RI
    Molecular point group: c1

    Geometry (in Angstrom), charge = 0, multiplicity = 1:

       Center              X                  Y                   Z               Mass
    ------------   -----------------  -----------------  -----------------  -----------------
         O            0.956751122354     2.467414606885    -0.646867762535    15.994914619570
         N            2.061385122354     0.650401606885     0.187766237465    14.003074004430
         C            0.771433122354    -1.602537393115    -0.860504762535    12.000000000000
         C            1.830772122354    -1.818629393115     0.229199237465    12.000000000000
         C           -0.434746877646    -0.840070393115    -0.371688762535    12.000000000000
         C            2.041700122354    -0.537224393115     1.035692237465    12.000000000000
         C           -0.350081877646     0.537556606885    -0.081562762535    12.000000000000
         C            0.926442922354     1.293175006885    -0.206242362535    12.000000000000
         C           -1.676361877646    -1.470628393115    -0.227076762535    12.000000000000
         C           -1.488588877646     1.256116606885     0.301400237465    12.000000000000
         C           -2.806210877646    -0.761844393115     0.184296237465    12.000000000000
         C           -2.713141877646     0.607269606885     0.445477237465    12.000000000000
         H            0.453350122354    -2.569138393115    -1.267177762535     1.007825032230
         H            1.231597122354    -1.048582393115    -1.685818762535     1.007825032230
         H            1.521542122354    -2.617953393115     0.914161237465     1.007825032230
         H            2.769373122354    -2.135314393115    -0.240623762535     1.007825032230
         H            1.244035122354    -0.435793393115     1.779506237465     1.007825032230
         H            2.987989122354    -0.573421393115     1.583293237465     1.007825032230
         H            2.894320122354     1.229914606885     0.165698237465     1.007825032230
         H           -1.760543877646    -2.531738393115    -0.457350762535     1.007825032230
         H           -1.393077877646     2.324629606885     0.477014237465     1.007825032230
         H           -3.759146877646    -1.275320393115     0.290098237465     1.007825032230
         H           -3.593226877646     1.167052606885     0.752526237465     1.007825032230

  Basis Set: AUG-CC-PVTZ
    Blend: AUG-CC-PVTZ
  Basis Set: (AUG-CC-PVTZ AUX)
    Blend: AUG-CC-PVTZ-JKFIT
	 Reference Energy          =    -514.5944987922944165 [Eh]
	 Singles Energy            =      -0.0000000000000000 [Eh]
	 Same-Spin Energy          =      -0.5591035281933645 [Eh]
	 Opposite-Spin Energy      =      -1.7452424666945165 [Eh]
	 Correlation Energy        =      -2.3043459948878811 [Eh]
	 Total Energy              =    -516.8988447871822700 [Eh]

	 ================> DF-SCS-MP2 Energies <==================
	-----------------------------------------------------------
	 SCS Same-Spin Scale       =       0.3333333333333333 [-]
	 SCS Opposite-Spin Scale   =       1.2000000000000000 [-]
	 SCS Same-Spin Energy      =      -0.1863678427311215 [Eh]
	 SCS Opposite-Spin Energy  =      -2.0942909600334199 [Eh]
	 SCS Correlation Energy    =      -2.2806588027645414 [Eh]
	 SCS Total Energy          =    -516.8751575950589086 [Eh]
	-----------------------------------------------------------

  Dipole Moment: [D]
     X:     0.6424      Y:    -3.7576      Z:     1.8261     Total:     4.2269

*** Psi4 exiting successfully. Buy a developer a beer!
