                               Psi4 1.3.2 release

  ==> Input File <==

--------------------------------------------------------------------------
#psi4
#
memory 32 gb

molecule  {
0 1
  O        0.9417500     2.5148810    -0.6596880
  N        2.0463840     0.6978680     0.1749460
  C        0.7564320    -1.5550710    -0.8733250
  C        1.8157710    -1.7711630     0.2163790
  C       -0.3697820    -0.8431532    -0.4169160
  C        2.0266990    -0.4897580     1.0228720
  C       -0.3650830     0.5850230    -0.0943830
  C        0.9119250     1.3593610    -0.2260870
  C       -1.6913630    -1.4231620    -0.2398970
  C       -1.5035900     1.3035830     0.2885800
  C       -2.8212120    -0.7143780     0.1714760
  C       -2.7281430     0.6547360     0.4326570
  H        0.4383490    -2.5216720    -1.2799980
  H        1.2165960    -1.0011160    -1.6986390
  H        1.5065410    -2.5704870     0.9013410
  H        2.7543720    -2.0878480    -0.2534440
  H        1.2290340    -0.3883270     1.7666860
  H        2.9729880    -0.5259550     1.5704730
  H        2.8793190     1.2773810     0.1528780
  H       -1.7755450    -2.4842720    -0.4701710
  H       -1.4080790     2.3720960     0.4641940
  H       -3.7741480    -1.2278540     0.2772780
  H       -3.6082280     1.2145190     0.7397060
units angstrom
no_reorient  #important for SAPT in psi4, default
symmetry c1  #important for SAPT in psi4, default
}

set PROPERTIES_ORIGIN ["COM"]
properties('MP2/aug-cc-pvtz', properties = ['dipole'])
--------------------------------------------------------------------------

    Molecular point group: c1
  Charge       = 0
  Multiplicity = 1
  Basis Set: AUG-CC-PVTZ
    Blend: AUG-CC-PVTZ
  Basis Set: (AUG-CC-PVTZ AUX)
    Blend: AUG-CC-PVTZ-JKFIT

    Orbital Energies [Eh]
    ---------------------

    Doubly Occupied:

       1A    -20.513324     2A    -15.582572     3A    -11.348759
       4A    -11.276601     5A    -11.266375     6A    -11.252069
       7A    -11.248942     8A    -11.247321     9A    -11.245739
      10A    -11.240850    11A    -11.240385    12A    -11.236276
      13A     -1.367573    14A     -1.235166    15A     -1.158609
      16A     -1.095365    17A     -1.033491    18A     -1.018309
      19A     -0.942223    20A     -0.882497    21A     -0.843798
      22A     -0.794629    23A     -0.771434    24A     -0.696767
      25A     -0.687412    26A     -0.676061    27A     -0.655066
      28A     -0.623279    29A     -0.615843    30A     -0.598911
      31A     -0.589368    32A     -0.574833    33A     -0.561058
      34A     -0.538753    35A     -0.522640    36A     -0.507432
      37A     -0.493295    38A     -0.485201    39A     -0.484423
      40A     -0.419006    41A     -0.389370    42A     -0.342369
      43A     -0.326466

  @DF-RHF Final Energy:  -514.58016270061046

   => Energetics <=

    Nuclear Repulsion Energy =            684.7869259265527262
    One-Electron Energy =               -2057.4744524097800422
    Two-Electron Energy =                 858.1073637826169715
    Total Energy =                       -514.5801627006104582
  Basis Set: (AUG-CC-PVTZ AUX)
    Blend: AUG-CC-PVTZ-RI
    Molecular point group: c1

    Geometry (in Angstrom), charge = 0, multiplicity = 1:

       Center              X                  Y                   Z               Mass
    ------------   -----------------  -----------------  -----------------  -----------------
         O            0.950758037898     2.469785761366    -0.643930309951    15.994914619570
         N            2.055392037898     0.652772761366     0.190703690049    14.003074004430
         C            0.765440037898    -1.600166238634    -0.857567309951    12.000000000000
         C            1.824779037898    -1.816258238634     0.232136690049    12.000000000000
         C           -0.360773962102    -0.888248438634    -0.401158309951    12.000000000000
         C            2.035707037898    -0.534853238634     1.038629690049    12.000000000000
         C           -0.356074962102     0.539927761366    -0.078625309951    12.000000000000
         C            0.920933037898     1.314265761366    -0.210329309951    12.000000000000
         C           -1.682354962102    -1.468257238634    -0.224139309951    12.000000000000
         C           -1.494581962102     1.258487761366     0.304337690049    12.000000000000
         C           -2.812203962102    -0.759473238634     0.187233690049    12.000000000000
         C           -2.719134962102     0.609640761366     0.448414690049    12.000000000000
         H            0.447357037898    -2.566767238634    -1.264240309951     1.007825032230
         H            1.225604037898    -1.046211238634    -1.682881309951     1.007825032230
         H            1.515549037898    -2.615582238634     0.917098690049     1.007825032230
         H            2.763380037898    -2.132943238634    -0.237686309951     1.007825032230
         H            1.238042037898    -0.433422238634     1.782443690049     1.007825032230
         H            2.981996037898    -0.571050238634     1.586230690049     1.007825032230
         H            2.888327037898     1.232285761366     0.168635690049     1.007825032230
         H           -1.766536962102    -2.529367238634    -0.454413309951     1.007825032230
         H           -1.399070962102     2.327000761366     0.479951690049     1.007825032230
         H           -3.765139962102    -1.272949238634     0.293035690049     1.007825032230
         H           -3.599219962102     1.169423761366     0.755463690049     1.007825032230

  Basis Set: AUG-CC-PVTZ
    Blend: AUG-CC-PVTZ
  Basis Set: (AUG-CC-PVTZ AUX)
    Blend: AUG-CC-PVTZ-JKFIT
	 Reference Energy          =    -514.5801627006104582 [Eh]
	 Singles Energy            =      -0.0000000000000000 [Eh]
	 Same-Spin Energy          =      -0.5604644472031790 [Eh]
	 Opposite-Spin Energy      =      -1.7469682844390440 [Eh]
	 Correlation Energy        =      -2.3074327316422227 [Eh]
	 Total Energy              =    -516.8875954322527377 [Eh]

	 ================> DF-SCS-MP2 Energies <==================
	-----------------------------------------------------------
	 SCS Same-Spin Scale       =       0.3333333333333333 [-]
	 SCS Opposite-Spin Scale   =       1.2000000000000000 [-]
	 SCS Same-Spin Energy      =      -0.1868214824010597 [Eh]
	 SCS Opposite-Spin Energy  =      -2.0963619413268528 [Eh]
	 SCS Correlation Energy    =      -2.2831834237279125 [Eh]
	 SCS Total Energy          =    -516.8633461243383636 [Eh]
	-----------------------------------------------------------

  Dipole Moment: [D]
     X:     0.7126      Y:    -3.6732      Z:     1.7472     Total:     4.1295

*** Psi4 exiting successfully. Buy a developer a beer!
