                               Psi4 1.3.2 release

  ==> Input File <==

--------------------------------------------------------------------------
#psi4
#
memory 32 gb

molecule  {
0 1
  O        0.9417500     2.5148810    -0.6596880
  N        2.0463840     0.6978680     0.1749460
  C        0.7564320    -1.5550710    -0.8733250
  C        1.8157710    -1.7711630     0.2163790
  C       -0.4979523    -0.7908332    -0.3746735
  C        2.0266990    -0.4897580     1.0228720
  C       -0.3650830     0.5850230    -0.0943830
  C        0.9119250     1.3593610    -0.2260870
  C       -1.6913630    -1.4231620    -0.2398970
  C       -1.5035900     1.3035830     0.2885800
  C       -2.8212120    -0.7143780     0.1714760
  C       -2.7281430     0.6547360     0.4326570
  H        0.4383490    -2.5216720    -1.2799980
  H        1.2165960    -1.0011160    -1.6986390
  H        1.5065410    -2.5704870     0.9013410
  H        2.7543720    -2.0878480    -0.2534440
  H        1.2290340    -0.3883270     1.7666860
  H        2.9729880    -0.5259550     1.5704730
  H        2.8793190     1.2773810     0.1528780
  H       -1.7755450    -2.4842720    -0.4701710
  H       -1.4080790     2.3720960     0.4641940
  H       -3.7741480    -1.2278540     0.2772780
  H       -3.6082280     1.2145190     0.7397060
units angstrom
no_reorient  #important for SAPT in psi4, default
symmetry c1  #important for SAPT in psi4, default
}

set PROPERTIES_ORIGIN ["COM"]
properties('MP2/aug-cc-pvtz', properties = ['dipole'])
--------------------------------------------------------------------------

    Molecular point group: c1
  Charge       = 0
  Multiplicity = 1
  Basis Set: AUG-CC-PVTZ
    Blend: AUG-CC-PVTZ
  Basis Set: (AUG-CC-PVTZ AUX)
    Blend: AUG-CC-PVTZ-JKFIT

    Orbital Energies [Eh]
    ---------------------

    Doubly Occupied:

       1A    -20.515840     2A    -15.582685     3A    -11.352855
       4A    -11.275425     5A    -11.254897     6A    -11.249221
       7A    -11.246962     8A    -11.245639     9A    -11.240052
      10A    -11.239591    11A    -11.237109    12A    -11.237062
      13A     -1.369572    14A     -1.234513    15A     -1.167692
      16A     -1.077691    17A     -1.036880    18A     -1.023816
      19A     -0.936805    20A     -0.882450    21A     -0.839102
      22A     -0.798276    23A     -0.779039    24A     -0.697613
      25A     -0.684697    26A     -0.671617    27A     -0.651854
      28A     -0.625055    29A     -0.614826    30A     -0.600435
      31A     -0.586197    32A     -0.576836    33A     -0.555149
      34A     -0.535155    35A     -0.518809    36A     -0.511718
      37A     -0.493145    38A     -0.490894    39A     -0.469975
      40A     -0.425167    41A     -0.389348    42A     -0.345740
      43A     -0.338897

  @DF-RHF Final Energy:  -514.59483824213646

   => Energetics <=

    Nuclear Repulsion Energy =            685.0928386770568750
    One-Electron Energy =               -2058.1627493526107173
    Two-Electron Energy =                 858.4750724334172673
    Total Energy =                       -514.5948382421364613
  Basis Set: (AUG-CC-PVTZ AUX)
    Blend: AUG-CC-PVTZ-RI
    Molecular point group: c1

    Geometry (in Angstrom), charge = 0, multiplicity = 1:

       Center              X                  Y                   Z               Mass
    ------------   -----------------  -----------------  -----------------  -----------------
         O            0.960306118335     2.465888169112    -0.647077176174    15.994914619570
         N            2.064940118335     0.648875169112     0.187556823826    14.003074004430
         C            0.774988118335    -1.604063830888    -0.860714176174    12.000000000000
         C            1.834327118335    -1.820155830888     0.228989823826    12.000000000000
         C           -0.479396181665    -0.839826030888    -0.362062676174    12.000000000000
         C            2.045255118335    -0.538750830888     1.035482823826    12.000000000000
         C           -0.346526881665     0.536030169112    -0.081772176174    12.000000000000
         C            0.930481118335     1.310368169112    -0.213476176174    12.000000000000
         C           -1.672806881665    -1.472154830888    -0.227286176174    12.000000000000
         C           -1.485033881665     1.254590169112     0.301190823826    12.000000000000
         C           -2.802655881665    -0.763370830888     0.184086823826    12.000000000000
         C           -2.709586881665     0.605743169112     0.445267823826    12.000000000000
         H            0.456905118335    -2.570664830888    -1.267387176174     1.007825032230
         H            1.235152118335    -1.050108830888    -1.686028176174     1.007825032230
         H            1.525097118335    -2.619479830888     0.913951823826     1.007825032230
         H            2.772928118335    -2.136840830888    -0.240833176174     1.007825032230
         H            1.247590118335    -0.437319830888     1.779296823826     1.007825032230
         H            2.991544118335    -0.574947830888     1.583083823826     1.007825032230
         H            2.897875118335     1.228388169112     0.165488823826     1.007825032230
         H           -1.756988881665    -2.533264830888    -0.457560176174     1.007825032230
         H           -1.389522881665     2.323103169112     0.476804823826     1.007825032230
         H           -3.755591881665    -1.276846830888     0.289888823826     1.007825032230
         H           -3.589671881665     1.165526169112     0.752316823826     1.007825032230

  Basis Set: AUG-CC-PVTZ
    Blend: AUG-CC-PVTZ
  Basis Set: (AUG-CC-PVTZ AUX)
    Blend: AUG-CC-PVTZ-JKFIT
	 Reference Energy          =    -514.5948382421364613 [Eh]
	 Singles Energy            =      -0.0000000000000000 [Eh]
	 Same-Spin Energy          =      -0.5582030985330051 [Eh]
	 Opposite-Spin Energy      =      -1.7438649786268803 [Eh]
	 Correlation Energy        =      -2.3020680771598854 [Eh]
	 Total Energy              =    -516.8969063192963631 [Eh]

	 ================> DF-SCS-MP2 Energies <==================
	-----------------------------------------------------------
	 SCS Same-Spin Scale       =       0.3333333333333333 [-]
	 SCS Opposite-Spin Scale   =       1.2000000000000000 [-]
	 SCS Same-Spin Energy      =      -0.1860676995110017 [Eh]
	 SCS Opposite-Spin Energy  =      -2.0926379743522561 [Eh]
	 SCS Correlation Energy    =      -2.2787056738632576 [Eh]
	 SCS Total Energy          =    -516.8735439159996758 [Eh]
	-----------------------------------------------------------

  Dipole Moment: [D]
     X:     0.5998      Y:    -3.5850      Z:     1.7815     Total:     4.0479

*** Psi4 exiting successfully. Buy a developer a beer!
