                               Psi4 1.3.2 release

  ==> Input File <==

--------------------------------------------------------------------------
#psi4
#
memory 32 gb

molecule  {
0 1
  O        0.9417500     2.5148810    -0.6596880
  N        2.0463840     0.6978680     0.1749460
  C        0.7564320    -1.5550710    -0.8733250
  C        1.8157710    -1.7711630     0.2163790
  C       -0.4178847    -0.7532363    -0.3701265
  C        2.0266990    -0.4897580     1.0228720
  C       -0.3650830     0.5850230    -0.0943830
  C        0.9119250     1.3593610    -0.2260870
  C       -1.6913630    -1.4231620    -0.2398970
  C       -1.5035900     1.3035830     0.2885800
  C       -2.8212120    -0.7143780     0.1714760
  C       -2.7281430     0.6547360     0.4326570
  H        0.4383490    -2.5216720    -1.2799980
  H        1.2165960    -1.0011160    -1.6986390
  H        1.5065410    -2.5704870     0.9013410
  H        2.7543720    -2.0878480    -0.2534440
  H        1.2290340    -0.3883270     1.7666860
  H        2.9729880    -0.5259550     1.5704730
  H        2.8793190     1.2773810     0.1528780
  H       -1.7755450    -2.4842720    -0.4701710
  H       -1.4080790     2.3720960     0.4641940
  H       -3.7741480    -1.2278540     0.2772780
  H       -3.6082280     1.2145190     0.7397060
units angstrom
no_reorient  #important for SAPT in psi4, default
symmetry c1  #important for SAPT in psi4, default
}

set PROPERTIES_ORIGIN ["COM"]
properties('MP2/aug-cc-pvtz', properties = ['dipole'])
--------------------------------------------------------------------------

    Molecular point group: c1
  Charge       = 0
  Multiplicity = 1
  Basis Set: AUG-CC-PVTZ
    Blend: AUG-CC-PVTZ
  Basis Set: (AUG-CC-PVTZ AUX)
    Blend: AUG-CC-PVTZ-JKFIT

    Orbital Energies [Eh]
    ---------------------

    Doubly Occupied:

       1A    -20.515207     2A    -15.583001     3A    -11.350911
       4A    -11.275947     5A    -11.258419     6A    -11.248143
       7A    -11.245796     8A    -11.245509     9A    -11.243118
      10A    -11.239868    11A    -11.239570    12A    -11.237707
      13A     -1.369246    14A     -1.235516    15A     -1.164575
      16A     -1.082552    17A     -1.040635    18A     -1.016176
      19A     -0.938447    20A     -0.879190    21A     -0.843413
      22A     -0.801092    23A     -0.774740    24A     -0.695704
      25A     -0.686549    26A     -0.671729    27A     -0.652718
      28A     -0.625991    29A     -0.614887    30A     -0.599520
      31A     -0.588155    32A     -0.575214    33A     -0.557619
      34A     -0.535916    35A     -0.517585    36A     -0.509476
      37A     -0.496871    38A     -0.489775    39A     -0.476194
      40A     -0.422069    41A     -0.389714    42A     -0.347612
      43A     -0.332581

  @DF-RHF Final Energy:  -514.59358259902183

   => Energetics <=

    Nuclear Repulsion Energy =            685.6175840034439943
    One-Electron Energy =               -2059.1930256709606510
    Two-Electron Energy =                 858.9818590684949413
    Total Energy =                       -514.5935825990218291
  Basis Set: (AUG-CC-PVTZ AUX)
    Blend: AUG-CC-PVTZ-RI
    Molecular point group: c1

    Geometry (in Angstrom), charge = 0, multiplicity = 1:

       Center              X                  Y                   Z               Mass
    ------------   -----------------  -----------------  -----------------  -----------------
         O            0.954341461271     2.463087378091    -0.647415906143    15.994914619570
         N            2.058975461271     0.646074378091     0.187218093857    14.003074004430
         C            0.769023461271    -1.606864621909    -0.861052906143    12.000000000000
         C            1.828362461271    -1.822956621909     0.228651093857    12.000000000000
         C           -0.405293238729    -0.805029921909    -0.357854406143    12.000000000000
         C            2.039290461271    -0.541551621909     1.035144093857    12.000000000000
         C           -0.352491538729     0.533229378091    -0.082110906143    12.000000000000
         C            0.924516461271     1.307567378091    -0.213814906143    12.000000000000
         C           -1.678771538729    -1.474955621909    -0.227624906143    12.000000000000
         C           -1.490998538729     1.251789378091     0.300852093857    12.000000000000
         C           -2.808620538729    -0.766171621909     0.183748093857    12.000000000000
         C           -2.715551538729     0.602942378091     0.444929093857    12.000000000000
         H            0.450940461271    -2.573465621909    -1.267725906143     1.007825032230
         H            1.229187461271    -1.052909621909    -1.686366906143     1.007825032230
         H            1.519132461271    -2.622280621909     0.913613093857     1.007825032230
         H            2.766963461271    -2.139641621909    -0.241171906143     1.007825032230
         H            1.241625461271    -0.440120621909     1.778958093857     1.007825032230
         H            2.985579461271    -0.577748621909     1.582745093857     1.007825032230
         H            2.891910461271     1.225587378091     0.165150093857     1.007825032230
         H           -1.762953538729    -2.536065621909    -0.457898906143     1.007825032230
         H           -1.395487538729     2.320302378091     0.476466093857     1.007825032230
         H           -3.761556538729    -1.279647621909     0.289550093857     1.007825032230
         H           -3.595636538729     1.162725378091     0.751978093857     1.007825032230

  Basis Set: AUG-CC-PVTZ
    Blend: AUG-CC-PVTZ
  Basis Set: (AUG-CC-PVTZ AUX)
    Blend: AUG-CC-PVTZ-JKFIT
	 Reference Energy          =    -514.5935825990218291 [Eh]
	 Singles Energy            =      -0.0000000000000000 [Eh]
	 Same-Spin Energy          =      -0.5586091210201047 [Eh]
	 Opposite-Spin Energy      =      -1.7445829987467723 [Eh]
	 Correlation Energy        =      -2.3031921197668770 [Eh]
	 Total Energy              =    -516.8967747187887198 [Eh]

	 ================> DF-SCS-MP2 Energies <==================
	-----------------------------------------------------------
	 SCS Same-Spin Scale       =       0.3333333333333333 [-]
	 SCS Opposite-Spin Scale   =       1.2000000000000000 [-]
	 SCS Same-Spin Energy      =      -0.1862030403400349 [Eh]
	 SCS Opposite-Spin Energy  =      -2.0934995984961264 [Eh]
	 SCS Correlation Energy    =      -2.2797026388361612 [Eh]
	 SCS Total Energy          =    -516.8732852378579992 [Eh]
	-----------------------------------------------------------

  Dipole Moment: [D]
     X:     0.6322      Y:    -3.6327      Z:     1.7574     Total:     4.0847

*** Psi4 exiting successfully. Buy a developer a beer!
