                               Psi4 1.4a3.dev225

  ==> Input File <==

--------------------------------------------------------------------------
#psi4
#
memory 32 gb

molecule  {
0 1
  O        0.9417500     2.5148810    -0.6596880
  N        2.0463840     0.6978680     0.1749460
  C        0.7564320    -1.5550710    -0.8733250
  C        1.8157710    -1.7711630     0.2163790
  C       -0.4337548    -0.8027138    -0.3909904
  C        2.0266990    -0.4897580     1.0228720
  C       -0.3650830     0.5850230    -0.0943830
  C        0.9119250     1.3593610    -0.2260870
  C       -1.6913630    -1.4231620    -0.2398970
  C       -1.5035900     1.3035830     0.2885800
  C       -2.8212120    -0.7143780     0.1714760
  C       -2.7281430     0.6547360     0.4326570
  H        0.4383490    -2.5216720    -1.2799980
  H        1.2165960    -1.0011160    -1.6986390
  H        1.5065410    -2.5704870     0.9013410
  H        2.7543720    -2.0878480    -0.2534440
  H        1.2290340    -0.3883270     1.7666860
  H        2.9729880    -0.5259550     1.5704730
  H        2.8793190     1.2773810     0.1528780
  H       -1.7755450    -2.4842720    -0.4701710
  H       -1.4080790     2.3720960     0.4641940
  H       -3.7741480    -1.2278540     0.2772780
  H       -3.6082280     1.2145190     0.7397060
units angstrom
no_reorient  #important for SAPT in psi4, default
symmetry c1  #important for SAPT in psi4, default
}

set PROPERTIES_ORIGIN ["COM"]
properties('MP2/aug-cc-pvtz', properties = ['dipole'])
--------------------------------------------------------------------------

    Molecular point group: c1
  Charge       = 0
  Multiplicity = 1
  Basis Set: AUG-CC-PVTZ
    Blend: AUG-CC-PVTZ
  Basis Set: (AUG-CC-PVTZ AUX)
    Blend: AUG-CC-PVTZ-JKFIT

    Orbital Energies [Eh]
    ---------------------

    Doubly Occupied:

       1A    -20.514795     2A    -15.582697     3A    -11.350923
       4A    -11.275935     5A    -11.259831     6A    -11.248796
       7A    -11.248098     8A    -11.245627     9A    -11.242884
      10A    -11.239987    11A    -11.238983    12A    -11.238317
      13A     -1.368773    14A     -1.234885    15A     -1.162786
      16A     -1.084621    17A     -1.036028    18A     -1.020133
      19A     -0.939127    20A     -0.881729    21A     -0.841826
      22A     -0.797609    23A     -0.775403    24A     -0.696775
      25A     -0.685971    26A     -0.672606    27A     -0.652883
      28A     -0.622710    29A     -0.616509    30A     -0.599725
      31A     -0.587530    32A     -0.576200    33A     -0.557773
      34A     -0.536302    35A     -0.519292    36A     -0.508948
      37A     -0.492287    38A     -0.489284    39A     -0.481318
      40A     -0.422643    41A     -0.389438    42A     -0.343542
      43A     -0.334347

  @DF-RHF Final Energy:  -514.59552726398454

   => Energetics <=

    Nuclear Repulsion Energy =            685.0431345501253872
    One-Electron Energy =               -2058.0455776839162354
    Two-Electron Energy =                 858.4069158698063120
    Total Energy =                       -514.5955272639845361
  Basis Set: (AUG-CC-PVTZ AUX)
    Blend: AUG-CC-PVTZ-RI
    Molecular point group: c1

    Geometry (in Angstrom), charge = 0, multiplicity = 1:

       Center              X                  Y                   Z               Mass
    ------------   -----------------  -----------------  -----------------  -----------------
         O            0.955523708573     2.466773217555    -0.645861644388    15.994914619570
         N            2.060157708573     0.649760217555     0.188772355612    14.003074004430
         C            0.770205708573    -1.603178782445    -0.859498644388    12.000000000000
         C            1.829544708573    -1.819270782445     0.230205355612    12.000000000000
         C           -0.419981091427    -0.850821582445    -0.377164044388    12.000000000000
         C            2.040472708573    -0.537865782445     1.036698355612    12.000000000000
         C           -0.351309291427     0.536915217555    -0.080556644388    12.000000000000
         C            0.925698708573     1.311253217555    -0.212260644388    12.000000000000
         C           -1.677589291427    -1.471269782445    -0.226070644388    12.000000000000
         C           -1.489816291427     1.255475217555     0.302406355612    12.000000000000
         C           -2.807438291427    -0.762485782445     0.185302355612    12.000000000000
         C           -2.714369291427     0.606628217555     0.446483355612    12.000000000000
         H            0.452122708573    -2.569779782445    -1.266171644388     1.007825032230
         H            1.230369708573    -1.049223782445    -1.684812644388     1.007825032230
         H            1.520314708573    -2.618594782445     0.915167355612     1.007825032230
         H            2.768145708573    -2.135955782445    -0.239617644388     1.007825032230
         H            1.242807708573    -0.436434782445     1.780512355612     1.007825032230
         H            2.986761708573    -0.574062782445     1.584299355612     1.007825032230
         H            2.893092708573     1.229273217555     0.166704355612     1.007825032230
         H           -1.761771291427    -2.532379782445    -0.456344644388     1.007825032230
         H           -1.394305291427     2.323988217555     0.478020355612     1.007825032230
         H           -3.760374291427    -1.275961782445     0.291104355612     1.007825032230
         H           -3.594454291427     1.166411217555     0.753532355612     1.007825032230

  Basis Set: AUG-CC-PVTZ
    Blend: AUG-CC-PVTZ
  Basis Set: (AUG-CC-PVTZ AUX)
    Blend: AUG-CC-PVTZ-JKFIT
	 Reference Energy          =    -514.5955272639845361 [Eh]
	 Singles Energy            =      -0.0000000000000000 [Eh]
	 Same-Spin Energy          =      -0.5589133999138629 [Eh]
	 Opposite-Spin Energy      =      -1.7447397593009195 [Eh]
	 Correlation Energy        =      -2.3036531592147824 [Eh]
	 Total Energy              =    -516.8991804231993683 [Eh]

	 ================> DF-SCS-MP2 Energies <==================
	-----------------------------------------------------------
	 SCS Same-Spin Scale       =       0.3333333333333333 [-]
	 SCS Opposite-Spin Scale   =       1.2000000000000000 [-]
	 SCS Same-Spin Energy      =      -0.1863044666379543 [Eh]
	 SCS Opposite-Spin Energy  =      -2.0936877111611034 [Eh]
	 SCS Correlation Energy    =      -2.2799921777990577 [Eh]
	 SCS Total Energy          =    -516.8755194417835810 [Eh]
	-----------------------------------------------------------

  Dipole Moment: [D]
     X:     0.6441      Y:    -3.6264      Z:     1.7649     Total:     4.0842

*** Psi4 exiting successfully. Buy a developer a beer!
