                               Psi4 1.3.2 release

  ==> Input File <==

--------------------------------------------------------------------------
#psi4
#
memory 32 gb

molecule  {
0 1
  O        0.9417500     2.5148810    -0.6596880
  N        2.0463840     0.6978680     0.1749460
  C        0.7564320    -1.5550710    -0.8733250
  C        1.8157710    -1.7711630     0.2163790
  C       -0.4497480    -0.7926040    -0.3845090
  C        2.0266990    -0.4897580     1.0228720
  C       -0.3650830     0.5850230    -0.0943830
  C        0.8992285     1.3393668    -0.2224343
  C       -1.6913630    -1.4231620    -0.2398970
  C       -1.5035900     1.3035830     0.2885800
  C       -2.8212120    -0.7143780     0.1714760
  C       -2.7281430     0.6547360     0.4326570
  H        0.4383490    -2.5216720    -1.2799980
  H        1.2165960    -1.0011160    -1.6986390
  H        1.5065410    -2.5704870     0.9013410
  H        2.7543720    -2.0878480    -0.2534440
  H        1.2290340    -0.3883270     1.7666860
  H        2.9729880    -0.5259550     1.5704730
  H        2.8793190     1.2773810     0.1528780
  H       -1.7755450    -2.4842720    -0.4701710
  H       -1.4080790     2.3720960     0.4641940
  H       -3.7741480    -1.2278540     0.2772780
  H       -3.6082280     1.2145190     0.7397060
units angstrom
no_reorient  #important for SAPT in psi4, default
symmetry c1  #important for SAPT in psi4, default
}

set PROPERTIES_ORIGIN ["COM"]
properties('MP2/aug-cc-pvtz', properties = ['dipole'])
--------------------------------------------------------------------------

    Molecular point group: c1
  Charge       = 0
  Multiplicity = 1
  Basis Set: AUG-CC-PVTZ
    Blend: AUG-CC-PVTZ
  Basis Set: (AUG-CC-PVTZ AUX)
    Blend: AUG-CC-PVTZ-JKFIT

    Orbital Energies [Eh]
    ---------------------

    Doubly Occupied:

       1A    -20.511645     2A    -15.583793     3A    -11.351833
       4A    -11.275654     5A    -11.259926     6A    -11.250444
       7A    -11.247984     8A    -11.246768     9A    -11.242713
      10A    -11.240813    11A    -11.240227    12A    -11.238493
      13A     -1.356906    14A     -1.232761    15A     -1.165912
      16A     -1.082901    17A     -1.039990    18A     -1.021491
      19A     -0.938826    20A     -0.885295    21A     -0.842287
      22A     -0.799260    23A     -0.777797    24A     -0.699149
      25A     -0.685133    26A     -0.672822    27A     -0.652244
      28A     -0.623500    29A     -0.615769    30A     -0.600525
      31A     -0.584399    32A     -0.575730    33A     -0.555446
      34A     -0.536261    35A     -0.517740    36A     -0.509632
      37A     -0.493123    38A     -0.490345    39A     -0.478146
      40A     -0.422430    41A     -0.387240    42A     -0.344946
      43A     -0.337242

  @DF-RHF Final Energy:  -514.59389291804644

   => Energetics <=

    Nuclear Repulsion Energy =            685.2860759965640227
    One-Electron Energy =               -2058.5288510492719070
    Two-Electron Energy =                 858.6488821346614486
    Total Energy =                       -514.5938929180464356
  Basis Set: (AUG-CC-PVTZ AUX)
    Blend: AUG-CC-PVTZ-RI
    Molecular point group: c1

    Geometry (in Angstrom), charge = 0, multiplicity = 1:

       Center              X                  Y                   Z               Mass
    ------------   -----------------  -----------------  -----------------  -----------------
         O            0.957660955371     2.467509558550    -0.646616586851    15.994914619570
         N            2.062294955371     0.650496558550     0.188017413149    14.003074004430
         C            0.772342955371    -1.602442441450    -0.860253586851    12.000000000000
         C            1.831681955371    -1.818534441450     0.229450413149    12.000000000000
         C           -0.433837044629    -0.839975441450    -0.371437586851    12.000000000000
         C            2.042609955371    -0.537129441450     1.035943413149    12.000000000000
         C           -0.349172044629     0.537651558550    -0.081311586851    12.000000000000
         C            0.915139455371     1.291995358550    -0.209362886851    12.000000000000
         C           -1.675452044629    -1.470533441450    -0.226825586851    12.000000000000
         C           -1.487679044629     1.256211558550     0.301651413149    12.000000000000
         C           -2.805301044629    -0.761749441450     0.184547413149    12.000000000000
         C           -2.712232044629     0.607364558550     0.445728413149    12.000000000000
         H            0.454259955371    -2.569043441450    -1.266926586851     1.007825032230
         H            1.232506955371    -1.048487441450    -1.685567586851     1.007825032230
         H            1.522451955371    -2.617858441450     0.914412413149     1.007825032230
         H            2.770282955371    -2.135219441450    -0.240372586851     1.007825032230
         H            1.244944955371    -0.435698441450     1.779757413149     1.007825032230
         H            2.988898955371    -0.573326441450     1.583544413149     1.007825032230
         H            2.895229955371     1.230009558550     0.165949413149     1.007825032230
         H           -1.759634044629    -2.531643441450    -0.457099586851     1.007825032230
         H           -1.392168044629     2.324724558550     0.477265413149     1.007825032230
         H           -3.758237044629    -1.275225441450     0.290349413149     1.007825032230
         H           -3.592317044629     1.167147558550     0.752777413149     1.007825032230

  Basis Set: AUG-CC-PVTZ
    Blend: AUG-CC-PVTZ
  Basis Set: (AUG-CC-PVTZ AUX)
    Blend: AUG-CC-PVTZ-JKFIT
	 Reference Energy          =    -514.5938929180464356 [Eh]
	 Singles Energy            =      -0.0000000000000000 [Eh]
	 Same-Spin Energy          =      -0.5592203306077279 [Eh]
	 Opposite-Spin Energy      =      -1.7454872879831504 [Eh]
	 Correlation Energy        =      -2.3047076185908786 [Eh]
	 Total Energy              =    -516.8986005366373320 [Eh]

	 ================> DF-SCS-MP2 Energies <==================
	-----------------------------------------------------------
	 SCS Same-Spin Scale       =       0.3333333333333333 [-]
	 SCS Opposite-Spin Scale   =       1.2000000000000000 [-]
	 SCS Same-Spin Energy      =      -0.1864067768692426 [Eh]
	 SCS Opposite-Spin Energy  =      -2.0945847455797804 [Eh]
	 SCS Correlation Energy    =      -2.2809915224490229 [Eh]
	 SCS Total Energy          =    -516.8748844404954070 [Eh]
	-----------------------------------------------------------

  Dipole Moment: [D]
     X:     0.5499      Y:    -3.7438      Z:     1.8045     Total:     4.1922

*** Psi4 exiting successfully. Buy a developer a beer!
