                               Psi4 1.3.2 release

  ==> Input File <==

--------------------------------------------------------------------------
#psi4
#
memory 32 gb

molecule  {
0 1
  O        0.9417500     2.5148810    -0.6596880
  N        2.0463840     0.6978680     0.1749460
  C        0.7564320    -1.5550710    -0.8733250
  C        1.6774156    -1.7075054     0.1672946
  C       -0.4497480    -0.7926040    -0.3845090
  C        2.0266990    -0.4897580     1.0228720
  C       -0.3650830     0.5850230    -0.0943830
  C        0.9119250     1.3593610    -0.2260870
  C       -1.6913630    -1.4231620    -0.2398970
  C       -1.5035900     1.3035830     0.2885800
  C       -2.8212120    -0.7143780     0.1714760
  C       -2.7281430     0.6547360     0.4326570
  H        0.4383490    -2.5216720    -1.2799980
  H        1.2165960    -1.0011160    -1.6986390
  H        1.5065410    -2.5704870     0.9013410
  H        2.7543720    -2.0878480    -0.2534440
  H        1.2290340    -0.3883270     1.7666860
  H        2.9729880    -0.5259550     1.5704730
  H        2.8793190     1.2773810     0.1528780
  H       -1.7755450    -2.4842720    -0.4701710
  H       -1.4080790     2.3720960     0.4641940
  H       -3.7741480    -1.2278540     0.2772780
  H       -3.6082280     1.2145190     0.7397060
units angstrom
no_reorient  #important for SAPT in psi4, default
symmetry c1  #important for SAPT in psi4, default
}

set PROPERTIES_ORIGIN ["COM"]
properties('MP2/aug-cc-pvtz', properties = ['dipole'])
--------------------------------------------------------------------------

    Molecular point group: c1
  Charge       = 0
  Multiplicity = 1
  Basis Set: AUG-CC-PVTZ
    Blend: AUG-CC-PVTZ
  Basis Set: (AUG-CC-PVTZ AUX)
    Blend: AUG-CC-PVTZ-JKFIT

    Orbital Energies [Eh]
    ---------------------

    Doubly Occupied:

       1A    -20.515693     2A    -15.582157     3A    -11.352043
       4A    -11.277746     5A    -11.258617     6A    -11.249574
       7A    -11.248325     8A    -11.246470     9A    -11.246377
      10A    -11.242611    11A    -11.240604    12A    -11.234907
      13A     -1.369651    14A     -1.237512    15A     -1.167198
      16A     -1.101654    17A     -1.037175    18A     -1.020376
      19A     -0.948268    20A     -0.881101    21A     -0.837793
      22A     -0.792452    23A     -0.777925    24A     -0.698651
      25A     -0.689012    26A     -0.674199    27A     -0.655633
      28A     -0.626508    29A     -0.619839    30A     -0.600857
      31A     -0.591664    32A     -0.579436    33A     -0.557864
      34A     -0.546104    35A     -0.521628    36A     -0.510479
      37A     -0.502183    38A     -0.482151    39A     -0.447961
      40A     -0.423159    41A     -0.386842    42A     -0.344665
      43A     -0.338498

  @DF-RHF Final Energy:  -514.56786072370346

   => Energetics <=

    Nuclear Repulsion Energy =            687.9995852432886068
    One-Electron Energy =               -2063.8077678292447672
    Two-Electron Energy =                 861.2403218622528129
    Total Energy =                       -514.5678607237034612
  Basis Set: (AUG-CC-PVTZ AUX)
    Blend: AUG-CC-PVTZ-RI
    Molecular point group: c1

    Geometry (in Angstrom), charge = 0, multiplicity = 1:

       Center              X                  Y                   Z               Mass
    ------------   -----------------  -----------------  -----------------  -----------------
         O            0.967021948400     2.461277895558    -0.642687922622    15.994914619570
         N            2.071655948400     0.644264895558     0.191946077378    14.003074004430
         C            0.781703948400    -1.608674104442    -0.856324922622    12.000000000000
         C            1.702687548400    -1.761108504442     0.184294677378    12.000000000000
         C           -0.424476051600    -0.846207104442    -0.367508922622    12.000000000000
         C            2.051970948400    -0.543361104442     1.039872077378    12.000000000000
         C           -0.339811051600     0.531419895558    -0.077382922622    12.000000000000
         C            0.937196948400     1.305757895558    -0.209086922622    12.000000000000
         C           -1.666091051600    -1.476765104442    -0.222896922622    12.000000000000
         C           -1.478318051600     1.249979895558     0.305580077378    12.000000000000
         C           -2.795940051600    -0.767981104442     0.188476077378    12.000000000000
         C           -2.702871051600     0.601132895558     0.449657077378    12.000000000000
         H            0.463620948400    -2.575275104442    -1.262997922622     1.007825032230
         H            1.241867948400    -1.054719104442    -1.681638922622     1.007825032230
         H            1.531812948400    -2.624090104442     0.918341077378     1.007825032230
         H            2.779643948400    -2.141451104442    -0.236443922622     1.007825032230
         H            1.254305948400    -0.441930104442     1.783686077378     1.007825032230
         H            2.998259948400    -0.579558104442     1.587473077378     1.007825032230
         H            2.904590948400     1.223777895558     0.169878077378     1.007825032230
         H           -1.750273051600    -2.537875104442    -0.453170922622     1.007825032230
         H           -1.382807051600     2.318492895558     0.481194077378     1.007825032230
         H           -3.748876051600    -1.281457104442     0.294278077378     1.007825032230
         H           -3.582956051600     1.160915895558     0.756706077378     1.007825032230

  Basis Set: AUG-CC-PVTZ
    Blend: AUG-CC-PVTZ
  Basis Set: (AUG-CC-PVTZ AUX)
    Blend: AUG-CC-PVTZ-JKFIT
	 Reference Energy          =    -514.5678607237034612 [Eh]
	 Singles Energy            =      -0.0000000000000000 [Eh]
	 Same-Spin Energy          =      -0.5603764272204164 [Eh]
	 Opposite-Spin Energy      =      -1.7468954530637233 [Eh]
	 Correlation Energy        =      -2.3072718802841399 [Eh]
	 Total Energy              =    -516.8751326039875948 [Eh]

	 ================> DF-SCS-MP2 Energies <==================
	-----------------------------------------------------------
	 SCS Same-Spin Scale       =       0.3333333333333333 [-]
	 SCS Opposite-Spin Scale   =       1.2000000000000000 [-]
	 SCS Same-Spin Energy      =      -0.1867921424068054 [Eh]
	 SCS Opposite-Spin Energy  =      -2.0962745436764680 [Eh]
	 SCS Correlation Energy    =      -2.2830666860832736 [Eh]
	 SCS Total Energy          =    -516.8509274097867774 [Eh]
	-----------------------------------------------------------

  Dipole Moment: [D]
     X:     0.5010      Y:    -3.5304      Z:     1.7628     Total:     3.9777

*** Psi4 exiting successfully. Buy a developer a beer!
