                               Psi4 1.3.2 release

  ==> Input File <==

--------------------------------------------------------------------------
#psi4
#
memory 32 gb

molecule  {
0 1
  O        0.9417500     2.5148810    -0.6596880
  N        2.0463840     0.6978680     0.1749460
  C        0.7564320    -1.5550710    -0.8733250
  C        1.8157710    -1.7711630     0.2163790
  C       -0.4497480    -0.7926040    -0.3845090
  C        2.0266990    -0.4897580     1.0228720
  C       -0.3650830     0.5850230    -0.0943830
  C        0.9167567     1.5465572    -0.2963311
  C       -1.6913630    -1.4231620    -0.2398970
  C       -1.5035900     1.3035830     0.2885800
  C       -2.8212120    -0.7143780     0.1714760
  C       -2.7281430     0.6547360     0.4326570
  H        0.4383490    -2.5216720    -1.2799980
  H        1.2165960    -1.0011160    -1.6986390
  H        1.5065410    -2.5704870     0.9013410
  H        2.7543720    -2.0878480    -0.2534440
  H        1.2290340    -0.3883270     1.7666860
  H        2.9729880    -0.5259550     1.5704730
  H        2.8793190     1.2773810     0.1528780
  H       -1.7755450    -2.4842720    -0.4701710
  H       -1.4080790     2.3720960     0.4641940
  H       -3.7741480    -1.2278540     0.2772780
  H       -3.6082280     1.2145190     0.7397060
units angstrom
no_reorient  #important for SAPT in psi4, default
symmetry c1  #important for SAPT in psi4, default
}

set PROPERTIES_ORIGIN ["COM"]
properties('MP2/aug-cc-pvtz', properties = ['dipole'])
--------------------------------------------------------------------------

    Molecular point group: c1
  Charge       = 0
  Multiplicity = 1
  Basis Set: AUG-CC-PVTZ
    Blend: AUG-CC-PVTZ
  Basis Set: (AUG-CC-PVTZ AUX)
    Blend: AUG-CC-PVTZ-JKFIT

    Orbital Energies [Eh]
    ---------------------

    Doubly Occupied:

       1A    -20.559011     2A    -15.553989     3A    -11.348718
       4A    -11.263821     5A    -11.250198     6A    -11.240808
       7A    -11.240252     8A    -11.237424     9A    -11.236482
      10A    -11.234565    11A    -11.230001    12A    -11.226919
      13A     -1.536178    14A     -1.203115    15A     -1.153156
      16A     -1.070458    17A     -1.021408    18A     -1.009457
      19A     -0.924104    20A     -0.856597    21A     -0.829934
      22A     -0.792353    23A     -0.758514    24A     -0.710757
      25A     -0.697755    26A     -0.672826    27A     -0.662269
      28A     -0.643329    29A     -0.628373    30A     -0.608964
      31A     -0.605541    32A     -0.581281    33A     -0.564753
      34A     -0.532225    35A     -0.521045    36A     -0.517585
      37A     -0.486115    38A     -0.483846    39A     -0.472313
      40A     -0.403704    41A     -0.380681    42A     -0.338566
      43A     -0.329018

  @DF-RHF Final Energy:  -514.52198753889832

   => Energetics <=

    Nuclear Repulsion Energy =            684.5791912780042594
    One-Electron Energy =               -2056.9655488806970425
    Two-Electron Energy =                 857.8643700637945813
    Total Energy =                       -514.5219875388983155
  Basis Set: (AUG-CC-PVTZ AUX)
    Blend: AUG-CC-PVTZ-RI
    Molecular point group: c1

    Geometry (in Angstrom), charge = 0, multiplicity = 1:

       Center              X                  Y                   Z               Mass
    ------------   -----------------  -----------------  -----------------  -----------------
         O            0.956355187471     2.452074854839    -0.641111625167    15.994914619570
         N            2.060989187471     0.635061854839     0.193522374833    14.003074004430
         C            0.771037187471    -1.617877145161    -0.854748625167    12.000000000000
         C            1.830376187471    -1.833969145161     0.234955374833    12.000000000000
         C           -0.435142812529    -0.855410145161    -0.365932625167    12.000000000000
         C            2.041304187471    -0.552564145161     1.041448374833    12.000000000000
         C           -0.350477812529     0.522216854839    -0.075806625167    12.000000000000
         C            0.931361887471     1.483751054839    -0.277754725167    12.000000000000
         C           -1.676757812529    -1.485968145161    -0.221320625167    12.000000000000
         C           -1.488984812529     1.240776854839     0.307156374833    12.000000000000
         C           -2.806606812529    -0.777184145161     0.190052374833    12.000000000000
         C           -2.713537812529     0.591929854839     0.451233374833    12.000000000000
         H            0.452954187471    -2.584478145161    -1.261421625167     1.007825032230
         H            1.231201187471    -1.063922145161    -1.680062625167     1.007825032230
         H            1.521146187471    -2.633293145161     0.919917374833     1.007825032230
         H            2.768977187471    -2.150654145161    -0.234867625167     1.007825032230
         H            1.243639187471    -0.451133145161     1.785262374833     1.007825032230
         H            2.987593187471    -0.588761145161     1.589049374833     1.007825032230
         H            2.893924187471     1.214574854839     0.171454374833     1.007825032230
         H           -1.760939812529    -2.547078145161    -0.451594625167     1.007825032230
         H           -1.393473812529     2.309289854839     0.482770374833     1.007825032230
         H           -3.759542812529    -1.290660145161     0.295854374833     1.007825032230
         H           -3.593622812529     1.151712854839     0.758282374833     1.007825032230

  Basis Set: AUG-CC-PVTZ
    Blend: AUG-CC-PVTZ
  Basis Set: (AUG-CC-PVTZ AUX)
    Blend: AUG-CC-PVTZ-JKFIT
	 Reference Energy          =    -514.5219875388983155 [Eh]
	 Singles Energy            =      -0.0000000000000000 [Eh]
	 Same-Spin Energy          =      -0.5551441963113481 [Eh]
	 Opposite-Spin Energy      =      -1.7374697385491735 [Eh]
	 Correlation Energy        =      -2.2926139348605217 [Eh]
	 Total Energy              =    -516.8146014737587848 [Eh]

	 ================> DF-SCS-MP2 Energies <==================
	-----------------------------------------------------------
	 SCS Same-Spin Scale       =       0.3333333333333333 [-]
	 SCS Opposite-Spin Scale   =       1.2000000000000000 [-]
	 SCS Same-Spin Energy      =      -0.1850480654371160 [Eh]
	 SCS Opposite-Spin Energy  =      -2.0849636862590080 [Eh]
	 SCS Correlation Energy    =      -2.2700117516961242 [Eh]
	 SCS Total Energy          =    -516.7919992905943900 [Eh]
	-----------------------------------------------------------

  Dipole Moment: [D]
     X:     0.5214      Y:    -1.9224      Z:     1.0884     Total:     2.2698

*** Psi4 exiting successfully. Buy a developer a beer!
