                               Psi4 1.4a3.dev225

  ==> Input File <==

--------------------------------------------------------------------------
#psi4
#
memory 32 gb

molecule  {
0 1
  O        0.9417500     2.5148810    -0.6596880
  N        2.0463840     0.6978680     0.1749460
  C        0.7564320    -1.5550710    -0.8733250
  C        1.8157710    -1.7711630     0.2163790
  C       -0.4497480    -0.7926040    -0.3845090
  C        2.0266990    -0.4897580     1.0228720
  C       -0.3650830     0.5850230    -0.0943830
  C        0.9119250     1.3593610    -0.2260870
  C       -1.6913630    -1.4231620    -0.2398970
  C       -1.5035900     1.3035830     0.2885800
  C       -2.8212120    -0.7143780     0.1714760
  C       -2.7281430     0.6547360     0.4326570
  H        0.4383490    -2.5216720    -1.2799980
  H        1.2081938    -1.0112308    -1.6835694
  H        1.5065410    -2.5704870     0.9013410
  H        2.7543720    -2.0878480    -0.2534440
  H        1.2290340    -0.3883270     1.7666860
  H        2.9729880    -0.5259550     1.5704730
  H        2.8793190     1.2773810     0.1528780
  H       -1.7755450    -2.4842720    -0.4701710
  H       -1.4080790     2.3720960     0.4641940
  H       -3.7741480    -1.2278540     0.2772780
  H       -3.6082280     1.2145190     0.7397060
units angstrom
no_reorient  #important for SAPT in psi4, default
symmetry c1  #important for SAPT in psi4, default
}

set PROPERTIES_ORIGIN ["COM"]
properties('MP2/aug-cc-pvtz', properties = ['dipole'])
--------------------------------------------------------------------------

    Molecular point group: c1
  Charge       = 0
  Multiplicity = 1
  Basis Set: AUG-CC-PVTZ
    Blend: AUG-CC-PVTZ
  Basis Set: (AUG-CC-PVTZ AUX)
    Blend: AUG-CC-PVTZ-JKFIT

    Orbital Energies [Eh]
    ---------------------

    Doubly Occupied:

       1A    -20.515170     2A    -15.582792     3A    -11.351494
       4A    -11.275765     5A    -11.258159     6A    -11.248759
       7A    -11.247154     8A    -11.245504     9A    -11.241649
      10A    -11.239771    11A    -11.237940    12A    -11.236853
      13A     -1.369091    14A     -1.234900    15A     -1.164212
      16A     -1.082780    17A     -1.036727    18A     -1.020578
      19A     -0.939243    20A     -0.881557    21A     -0.841364
      22A     -0.799045    23A     -0.776511    24A     -0.697053
      25A     -0.685645    26A     -0.672377    27A     -0.653226
      28A     -0.623385    29A     -0.616205    30A     -0.599856
      31A     -0.587242    32A     -0.577092    33A     -0.556949
      34A     -0.536465    35A     -0.518739    36A     -0.509892
      37A     -0.492707    38A     -0.490891    39A     -0.478498
      40A     -0.423406    41A     -0.389513    42A     -0.343835
      43A     -0.336174

  @DF-RHF Final Energy:  -514.59675968472402

   => Energetics <=

    Nuclear Repulsion Energy =            685.2185696726603510
    One-Electron Energy =               -2058.3983282828967276
    Two-Electron Energy =                 858.5829989255123564
    Total Energy =                       -514.5967596847240202
  Basis Set: (AUG-CC-PVTZ AUX)
    Blend: AUG-CC-PVTZ-RI
    Molecular point group: c1

    Geometry (in Angstrom), charge = 0, multiplicity = 1:

       Center              X                  Y                   Z               Mass
    ------------   -----------------  -----------------  -----------------  -----------------
         O            0.956767694741     2.466083368735    -0.646438761191    15.994914619570
         N            2.061401694741     0.649070368735     0.188195238809    14.003074004430
         C            0.771449694741    -1.603868631265    -0.860075761191    12.000000000000
         C            1.830788694741    -1.819960631265     0.229628238809    12.000000000000
         C           -0.434730305259    -0.841401631265    -0.371259761191    12.000000000000
         C            2.041716694741    -0.538555631265     1.036121238809    12.000000000000
         C           -0.350065305259     0.536225368735    -0.081133761191    12.000000000000
         C            0.926942694741     1.310563368735    -0.212837761191    12.000000000000
         C           -1.676345305259    -1.471959631265    -0.226647761191    12.000000000000
         C           -1.488572305259     1.254785368735     0.301829238809    12.000000000000
         C           -2.806194305259    -0.763175631265     0.184725238809    12.000000000000
         C           -2.713125305259     0.605938368735     0.445906238809    12.000000000000
         H            0.453366694741    -2.570469631265    -1.266748761191     1.007825032230
         H            1.223211494741    -1.060028431265    -1.670320161191     1.007825032230
         H            1.521558694741    -2.619284631265     0.914590238809     1.007825032230
         H            2.769389694741    -2.136645631265    -0.240194761191     1.007825032230
         H            1.244051694741    -0.437124631265     1.779935238809     1.007825032230
         H            2.988005694741    -0.574752631265     1.583722238809     1.007825032230
         H            2.894336694741     1.228583368735     0.166127238809     1.007825032230
         H           -1.760527305259    -2.533069631265    -0.456921761191     1.007825032230
         H           -1.393061305259     2.323298368735     0.477443238809     1.007825032230
         H           -3.759130305259    -1.276651631265     0.290527238809     1.007825032230
         H           -3.593210305259     1.165721368735     0.752955238809     1.007825032230

  Basis Set: AUG-CC-PVTZ
    Blend: AUG-CC-PVTZ
  Basis Set: (AUG-CC-PVTZ AUX)
    Blend: AUG-CC-PVTZ-JKFIT
	 Reference Energy          =    -514.5967596847240202 [Eh]
	 Singles Energy            =      -0.0000000000000000 [Eh]
	 Same-Spin Energy          =      -0.5586134472279657 [Eh]
	 Opposite-Spin Energy      =      -1.7442221012548216 [Eh]
	 Correlation Energy        =      -2.3028355484827872 [Eh]
	 Total Energy              =    -516.8995952332068100 [Eh]

	 ================> DF-SCS-MP2 Energies <==================
	-----------------------------------------------------------
	 SCS Same-Spin Scale       =       0.3333333333333333 [-]
	 SCS Opposite-Spin Scale   =       1.2000000000000000 [-]
	 SCS Same-Spin Energy      =      -0.1862044824093219 [Eh]
	 SCS Opposite-Spin Energy  =      -2.0930665215057860 [Eh]
	 SCS Correlation Energy    =      -2.2792710039151078 [Eh]
	 SCS Total Energy          =    -516.8760306886391618 [Eh]
	-----------------------------------------------------------

  Dipole Moment: [D]
     X:     0.6328      Y:    -3.6147      Z:     1.7618     Total:     4.0706

*** Psi4 exiting successfully. Buy a developer a beer!
