                               Psi4 1.3.2 release

  ==> Input File <==

--------------------------------------------------------------------------
#psi4
#
memory 32 gb

molecule  {
0 1
  O        0.9417500     2.5148810    -0.6596880
  N        2.0463840     0.6978680     0.1749460
  C        0.7564320    -1.5550710    -0.8733250
  C        1.8157710    -1.7711630     0.2163790
  C       -0.4497480    -0.7926040    -0.3845090
  C        2.1791455    -0.4894089     1.0131402
  C       -0.3650830     0.5850230    -0.0943830
  C        0.9119250     1.3593610    -0.2260870
  C       -1.6913630    -1.4231620    -0.2398970
  C       -1.5035900     1.3035830     0.2885800
  C       -2.8212120    -0.7143780     0.1714760
  C       -2.7281430     0.6547360     0.4326570
  H        0.4383490    -2.5216720    -1.2799980
  H        1.2165960    -1.0011160    -1.6986390
  H        1.5065410    -2.5704870     0.9013410
  H        2.7543720    -2.0878480    -0.2534440
  H        1.2290340    -0.3883270     1.7666860
  H        2.9729880    -0.5259550     1.5704730
  H        2.8793190     1.2773810     0.1528780
  H       -1.7755450    -2.4842720    -0.4701710
  H       -1.4080790     2.3720960     0.4641940
  H       -3.7741480    -1.2278540     0.2772780
  H       -3.6082280     1.2145190     0.7397060
units angstrom
no_reorient  #important for SAPT in psi4, default
symmetry c1  #important for SAPT in psi4, default
}

set PROPERTIES_ORIGIN ["COM"]
properties('MP2/aug-cc-pvtz', properties = ['dipole'])
--------------------------------------------------------------------------

    Molecular point group: c1
  Charge       = 0
  Multiplicity = 1
  Basis Set: AUG-CC-PVTZ
    Blend: AUG-CC-PVTZ
  Basis Set: (AUG-CC-PVTZ AUX)
    Blend: AUG-CC-PVTZ-JKFIT

    Orbital Energies [Eh]
    ---------------------

    Doubly Occupied:

       1A    -20.516470     2A    -15.584088     3A    -11.355044
       4A    -11.278974     5A    -11.258441     6A    -11.248701
       7A    -11.247173     8A    -11.245404     9A    -11.241720
      10A    -11.241490    11A    -11.240151    12A    -11.239533
      13A     -1.369964    14A     -1.234015    15A     -1.164226
      16A     -1.080326    17A     -1.037888    18A     -1.020483
      19A     -0.943398    20A     -0.884674    21A     -0.840504
      22A     -0.799237    23A     -0.774206    24A     -0.704558
      25A     -0.691168    26A     -0.668330    27A     -0.659436
      28A     -0.623805    29A     -0.616586    30A     -0.599874
      31A     -0.586643    32A     -0.569912    33A     -0.556953
      34A     -0.540738    35A     -0.511864    36A     -0.507003
      37A     -0.499696    38A     -0.489346    39A     -0.471573
      40A     -0.425734    41A     -0.380804    42A     -0.343689
      43A     -0.335704

  @DF-RHF Final Energy:  -514.56839255697787

   => Energetics <=

    Nuclear Repulsion Energy =            683.3721656466620971
    One-Electron Energy =               -2054.6220551481274015
    Two-Electron Energy =                 856.6814969444874350
    Total Energy =                       -514.5683925569778694
  Basis Set: (AUG-CC-PVTZ AUX)
    Blend: AUG-CC-PVTZ-RI
    Molecular point group: c1

    Geometry (in Angstrom), charge = 0, multiplicity = 1:

       Center              X                  Y                   Z               Mass
    ------------   -----------------  -----------------  -----------------  -----------------
         O            0.945358583858     2.465994079030    -0.645619504979    15.994914619570
         N            2.049992583858     0.648981079030     0.189014495021    14.003074004430
         C            0.760040583858    -1.603957920970    -0.859256504979    12.000000000000
         C            1.819379583858    -1.820049920970     0.230447495021    12.000000000000
         C           -0.446139416142    -0.841490920970    -0.370440504979    12.000000000000
         C            2.182754083858    -0.538295820970     1.027208695021    12.000000000000
         C           -0.361474416142     0.536136079030    -0.080314504979    12.000000000000
         C            0.915533583858     1.310474079030    -0.212018504979    12.000000000000
         C           -1.687754416142    -1.472048920970    -0.225828504979    12.000000000000
         C           -1.499981416142     1.254696079030     0.302648495021    12.000000000000
         C           -2.817603416142    -0.763264920970     0.185544495021    12.000000000000
         C           -2.724534416142     0.605849079030     0.446725495021    12.000000000000
         H            0.441957583858    -2.570558920970    -1.265929504979     1.007825032230
         H            1.220204583858    -1.050002920970    -1.684570504979     1.007825032230
         H            1.510149583858    -2.619373920970     0.915409495021     1.007825032230
         H            2.757980583858    -2.136734920970    -0.239375504979     1.007825032230
         H            1.232642583858    -0.437213920970     1.780754495021     1.007825032230
         H            2.976596583858    -0.574841920970     1.584541495021     1.007825032230
         H            2.882927583858     1.228494079030     0.166946495021     1.007825032230
         H           -1.771936416142    -2.533158920970    -0.456102504979     1.007825032230
         H           -1.404470416142     2.323209079030     0.478262495021     1.007825032230
         H           -3.770539416142    -1.276740920970     0.291346495021     1.007825032230
         H           -3.604619416142     1.165632079030     0.753774495021     1.007825032230

  Basis Set: AUG-CC-PVTZ
    Blend: AUG-CC-PVTZ
  Basis Set: (AUG-CC-PVTZ AUX)
    Blend: AUG-CC-PVTZ-JKFIT
	 Reference Energy          =    -514.5683925569778694 [Eh]
	 Singles Energy            =      -0.0000000000000000 [Eh]
	 Same-Spin Energy          =      -0.5588723964209847 [Eh]
	 Opposite-Spin Energy      =      -1.7454741252840718 [Eh]
	 Correlation Energy        =      -2.3043465217050567 [Eh]
	 Total Energy              =    -516.8727390786829119 [Eh]

	 ================> DF-SCS-MP2 Energies <==================
	-----------------------------------------------------------
	 SCS Same-Spin Scale       =       0.3333333333333333 [-]
	 SCS Opposite-Spin Scale   =       1.2000000000000000 [-]
	 SCS Same-Spin Energy      =      -0.1862907988069949 [Eh]
	 SCS Opposite-Spin Energy  =      -2.0945689503408862 [Eh]
	 SCS Correlation Energy    =      -2.2808597491478810 [Eh]
	 SCS Total Energy          =    -516.8492523061257771 [Eh]
	-----------------------------------------------------------

  Dipole Moment: [D]
     X:     0.7050      Y:    -3.5921      Z:     1.6902     Total:     4.0320

*** Psi4 exiting successfully. Buy a developer a beer!
