                               Psi4 1.3.2 release

  ==> Input File <==

--------------------------------------------------------------------------
#psi4
#
memory 32 gb

molecule  {
0 1
  O        1.0696124     2.5112396    -0.6413414
  N        2.0463840     0.6978680     0.1749460
  C        0.7564320    -1.5550710    -0.8733250
  C        1.8157710    -1.7711630     0.2163790
  C       -0.4497480    -0.7926040    -0.3845090
  C        2.0266990    -0.4897580     1.0228720
  C       -0.3650830     0.5850230    -0.0943830
  C        0.9119250     1.3593610    -0.2260870
  C       -1.6913630    -1.4231620    -0.2398970
  C       -1.5035900     1.3035830     0.2885800
  C       -2.8212120    -0.7143780     0.1714760
  C       -2.7281430     0.6547360     0.4326570
  H        0.4383490    -2.5216720    -1.2799980
  H        1.2165960    -1.0011160    -1.6986390
  H        1.5065410    -2.5704870     0.9013410
  H        2.7543720    -2.0878480    -0.2534440
  H        1.2290340    -0.3883270     1.7666860
  H        2.9729880    -0.5259550     1.5704730
  H        2.8793190     1.2773810     0.1528780
  H       -1.7755450    -2.4842720    -0.4701710
  H       -1.4080790     2.3720960     0.4641940
  H       -3.7741480    -1.2278540     0.2772780
  H       -3.6082280     1.2145190     0.7397060
units angstrom
no_reorient  #important for SAPT in psi4, default
symmetry c1  #important for SAPT in psi4, default
}

set PROPERTIES_ORIGIN ["COM"]
properties('MP2/aug-cc-pvtz', properties = ['dipole'])
--------------------------------------------------------------------------

    Molecular point group: c1
  Charge       = 0
  Multiplicity = 1
  Basis Set: AUG-CC-PVTZ
    Blend: AUG-CC-PVTZ
  Basis Set: (AUG-CC-PVTZ AUX)
    Blend: AUG-CC-PVTZ-JKFIT

    Orbital Energies [Eh]
    ---------------------

    Doubly Occupied:

       1A    -20.512721     2A    -15.575499     3A    -11.350639
       4A    -11.271924     5A    -11.261916     6A    -11.252023
       7A    -11.251965     8A    -11.249566     9A    -11.244319
      10A    -11.242515    11A    -11.239779    12A    -11.236773
      13A     -1.370021    14A     -1.227487    15A     -1.166877
      16A     -1.082300    17A     -1.040131    18A     -1.021484
      19A     -0.937383    20A     -0.883153    21A     -0.842213
      22A     -0.799364    23A     -0.776257    24A     -0.696391
      25A     -0.684118    26A     -0.673267    27A     -0.652071
      28A     -0.625193    29A     -0.614239    30A     -0.601462
      31A     -0.587062    32A     -0.576612    33A     -0.557242
      34A     -0.535636    35A     -0.518757    36A     -0.511955
      37A     -0.493353    38A     -0.490836    39A     -0.479081
      40A     -0.422323    41A     -0.383235    42A     -0.348168
      43A     -0.338646

  @DF-RHF Final Energy:  -514.59381982466266

   => Energetics <=

    Nuclear Repulsion Energy =            684.6875369069668977
    One-Electron Energy =               -2057.3107988936812944
    Two-Electron Energy =                 858.0294421620517369
    Total Energy =                       -514.5938198246626598
  Basis Set: (AUG-CC-PVTZ AUX)
    Blend: AUG-CC-PVTZ-RI
    Molecular point group: c1

    Geometry (in Angstrom), charge = 0, multiplicity = 1:

       Center              X                  Y                   Z               Mass
    ------------   -----------------  -----------------  -----------------  -----------------
         O            1.071881371697     2.462740259778    -0.629819611900    15.994914619570
         N            2.048652971697     0.649368659778     0.186467788100    14.003074004430
         C            0.758700971697    -1.603570340222    -0.861803211900    12.000000000000
         C            1.818039971697    -1.819662340222     0.227900788100    12.000000000000
         C           -0.447479028303    -0.841103340222    -0.372987211900    12.000000000000
         C            2.028967971697    -0.538257340222     1.034393788100    12.000000000000
         C           -0.362814028303     0.536523659778    -0.082861211900    12.000000000000
         C            0.914193971697     1.310861659778    -0.214565211900    12.000000000000
         C           -1.689094028303    -1.471661340222    -0.228375211900    12.000000000000
         C           -1.501321028303     1.255083659778     0.300101788100    12.000000000000
         C           -2.818943028303    -0.762877340222     0.182997788100    12.000000000000
         C           -2.725874028303     0.606236659778     0.444178788100    12.000000000000
         H            0.440617971697    -2.570171340222    -1.268476211900     1.007825032230
         H            1.218864971697    -1.049615340222    -1.687117211900     1.007825032230
         H            1.508809971697    -2.618986340222     0.912862788100     1.007825032230
         H            2.756640971697    -2.136347340222    -0.241922211900     1.007825032230
         H            1.231302971697    -0.436826340222     1.778207788100     1.007825032230
         H            2.975256971697    -0.574454340222     1.581994788100     1.007825032230
         H            2.881587971697     1.228881659778     0.164399788100     1.007825032230
         H           -1.773276028303    -2.532771340222    -0.458649211900     1.007825032230
         H           -1.405810028303     2.323596659778     0.475715788100     1.007825032230
         H           -3.771879028303    -1.276353340222     0.288799788100     1.007825032230
         H           -3.605959028303     1.166019659778     0.751227788100     1.007825032230

  Basis Set: AUG-CC-PVTZ
    Blend: AUG-CC-PVTZ
  Basis Set: (AUG-CC-PVTZ AUX)
    Blend: AUG-CC-PVTZ-JKFIT
	 Reference Energy          =    -514.5938198246626598 [Eh]
	 Singles Energy            =      -0.0000000000000000 [Eh]
	 Same-Spin Energy          =      -0.5586187124638003 [Eh]
	 Opposite-Spin Energy      =      -1.7443505304383784 [Eh]
	 Correlation Energy        =      -2.3029692429021789 [Eh]
	 Total Energy              =    -516.8967890675647823 [Eh]

	 ================> DF-SCS-MP2 Energies <==================
	-----------------------------------------------------------
	 SCS Same-Spin Scale       =       0.3333333333333333 [-]
	 SCS Opposite-Spin Scale   =       1.2000000000000000 [-]
	 SCS Same-Spin Energy      =      -0.1862062374879334 [Eh]
	 SCS Opposite-Spin Energy  =      -2.0932206365260542 [Eh]
	 SCS Correlation Energy    =      -2.2794268740139878 [Eh]
	 SCS Total Energy          =    -516.8732466986766667 [Eh]
	-----------------------------------------------------------

  Dipole Moment: [D]
     X:     0.2132      Y:    -3.6724      Z:     1.7222     Total:     4.0617

*** Psi4 exiting successfully. Buy a developer a beer!
