                               Psi4 1.3.2 release

  ==> Input File <==

--------------------------------------------------------------------------
#psi4
#
memory 32 gb

molecule  {
0 1
  O        0.9417500     2.5148810    -0.6596880
  N        2.0463840     0.6978680     0.1749460
  C        0.7564320    -1.5550710    -0.8733250
  C        1.8390963    -1.7804243     0.2254348
  C       -0.4497480    -0.7926040    -0.3845090
  C        2.0266990    -0.4897580     1.0228720
  C       -0.3650830     0.5850230    -0.0943830
  C        0.9119250     1.3593610    -0.2260870
  C       -1.6913630    -1.4231620    -0.2398970
  C       -1.5035900     1.3035830     0.2885800
  C       -2.8212120    -0.7143780     0.1714760
  C       -2.7281430     0.6547360     0.4326570
  H        0.4383490    -2.5216720    -1.2799980
  H        1.2165960    -1.0011160    -1.6986390
  H        1.5065410    -2.5704870     0.9013410
  H        2.7543720    -2.0878480    -0.2534440
  H        1.2290340    -0.3883270     1.7666860
  H        2.9729880    -0.5259550     1.5704730
  H        2.8793190     1.2773810     0.1528780
  H       -1.7755450    -2.4842720    -0.4701710
  H       -1.4080790     2.3720960     0.4641940
  H       -3.7741480    -1.2278540     0.2772780
  H       -3.6082280     1.2145190     0.7397060
units angstrom
no_reorient  #important for SAPT in psi4, default
symmetry c1  #important for SAPT in psi4, default
}

set PROPERTIES_ORIGIN ["COM"]
properties('MP2/aug-cc-pvtz', properties = ['dipole'])
--------------------------------------------------------------------------

    Molecular point group: c1
  Charge       = 0
  Multiplicity = 1
  Basis Set: AUG-CC-PVTZ
    Blend: AUG-CC-PVTZ
  Basis Set: (AUG-CC-PVTZ AUX)
    Blend: AUG-CC-PVTZ-JKFIT

    Orbital Energies [Eh]
    ---------------------

    Doubly Occupied:

       1A    -20.515120     2A    -15.582881     3A    -11.351438
       4A    -11.275809     5A    -11.258321     6A    -11.248728
       7A    -11.247060     8A    -11.245431     9A    -11.241658
      10A    -11.239969    11A    -11.239733    12A    -11.237236
      13A     -1.369028    14A     -1.234578    15A     -1.163919
      16A     -1.079805    17A     -1.036771    18A     -1.020803
      19A     -0.936924    20A     -0.881797    21A     -0.842150
      22A     -0.799043    23A     -0.776191    24A     -0.696739
      25A     -0.685396    26A     -0.671927    27A     -0.652278
      28A     -0.623053    29A     -0.616431    30A     -0.599885
      31A     -0.586872    32A     -0.575813    33A     -0.557746
      34A     -0.535803    35A     -0.518768    36A     -0.509430
      37A     -0.491453    38A     -0.489322    39A     -0.480063
      40A     -0.423374    41A     -0.389781    42A     -0.343786
      43A     -0.335640

  @DF-RHF Final Energy:  -514.59620569717515

   => Energetics <=

    Nuclear Repulsion Energy =            684.6717504646076122
    One-Electron Energy =               -2057.3200005258458987
    Two-Electron Energy =                 858.0520443640631356
    Total Energy =                       -514.5962056971751508
  Basis Set: (AUG-CC-PVTZ AUX)
    Blend: AUG-CC-PVTZ-RI
    Molecular point group: c1

    Geometry (in Angstrom), charge = 0, multiplicity = 1:

       Center              X                  Y                   Z               Mass
    ------------   -----------------  -----------------  -----------------  -----------------
         O            0.954977501842     2.466710008322    -0.647019092216    15.994914619570
         N            2.059611501842     0.649697008322     0.187614907784    14.003074004430
         C            0.769659501842    -1.603241991678    -0.860656092216    12.000000000000
         C            1.852323801842    -1.828595291678     0.238103707784    12.000000000000
         C           -0.436520498158    -0.840774991678    -0.371840092216    12.000000000000
         C            2.039926501842    -0.537928991678     1.035540907784    12.000000000000
         C           -0.351855498158     0.536852008322    -0.081714092216    12.000000000000
         C            0.925152501842     1.311190008322    -0.213418092216    12.000000000000
         C           -1.678135498158    -1.471332991678    -0.227228092216    12.000000000000
         C           -1.490362498158     1.255412008322     0.301248907784    12.000000000000
         C           -2.807984498158    -0.762548991678     0.184144907784    12.000000000000
         C           -2.714915498158     0.606565008322     0.445325907784    12.000000000000
         H            0.451576501842    -2.569842991678    -1.267329092216     1.007825032230
         H            1.229823501842    -1.049286991678    -1.685970092216     1.007825032230
         H            1.519768501842    -2.618657991678     0.914009907784     1.007825032230
         H            2.767599501842    -2.136018991678    -0.240775092216     1.007825032230
         H            1.242261501842    -0.436497991678     1.779354907784     1.007825032230
         H            2.986215501842    -0.574125991678     1.583141907784     1.007825032230
         H            2.892546501842     1.229210008322     0.165546907784     1.007825032230
         H           -1.762317498158    -2.532442991678    -0.457502092216     1.007825032230
         H           -1.394851498158     2.323925008322     0.476862907784     1.007825032230
         H           -3.760920498158    -1.276024991678     0.289946907784     1.007825032230
         H           -3.595000498158     1.166348008322     0.752374907784     1.007825032230

  Basis Set: AUG-CC-PVTZ
    Blend: AUG-CC-PVTZ
  Basis Set: (AUG-CC-PVTZ AUX)
    Blend: AUG-CC-PVTZ-JKFIT
	 Reference Energy          =    -514.5962056971751508 [Eh]
	 Singles Energy            =      -0.0000000000000000 [Eh]
	 Same-Spin Energy          =      -0.5585483660051036 [Eh]
	 Opposite-Spin Energy      =      -1.7442996091777210 [Eh]
	 Correlation Energy        =      -2.3028479751828246 [Eh]
	 Total Energy              =    -516.8990536723579226 [Eh]

	 ================> DF-SCS-MP2 Energies <==================
	-----------------------------------------------------------
	 SCS Same-Spin Scale       =       0.3333333333333333 [-]
	 SCS Opposite-Spin Scale   =       1.2000000000000000 [-]
	 SCS Same-Spin Energy      =      -0.1861827886683678 [Eh]
	 SCS Opposite-Spin Energy  =      -2.0931595310132649 [Eh]
	 SCS Correlation Energy    =      -2.2793423196816329 [Eh]
	 SCS Total Energy          =    -516.8755480168567829 [Eh]
	-----------------------------------------------------------

  Dipole Moment: [D]
     X:     0.6423      Y:    -3.6232      Z:     1.7694     Total:     4.0830

*** Psi4 exiting successfully. Buy a developer a beer!
