                               Psi4 1.3.2 release

  ==> Input File <==

--------------------------------------------------------------------------
#psi4
#
memory 32 gb

molecule  {
0 1
  O        0.9417500     2.5148810    -0.6596880
  N        2.0463840     0.6978680     0.1749460
  C        0.7564320    -1.5550710    -0.8733250
  C        1.8157710    -1.7711630     0.2163790
  C       -0.4497480    -0.7926040    -0.3845090
  C        2.0266990    -0.4897580     1.0228720
  C       -0.3590800     0.6827001    -0.0738124
  C        0.9119250     1.3593610    -0.2260870
  C       -1.6913630    -1.4231620    -0.2398970
  C       -1.5035900     1.3035830     0.2885800
  C       -2.8212120    -0.7143780     0.1714760
  C       -2.7281430     0.6547360     0.4326570
  H        0.4383490    -2.5216720    -1.2799980
  H        1.2165960    -1.0011160    -1.6986390
  H        1.5065410    -2.5704870     0.9013410
  H        2.7543720    -2.0878480    -0.2534440
  H        1.2290340    -0.3883270     1.7666860
  H        2.9729880    -0.5259550     1.5704730
  H        2.8793190     1.2773810     0.1528780
  H       -1.7755450    -2.4842720    -0.4701710
  H       -1.4080790     2.3720960     0.4641940
  H       -3.7741480    -1.2278540     0.2772780
  H       -3.6082280     1.2145190     0.7397060
units angstrom
no_reorient  #important for SAPT in psi4, default
symmetry c1  #important for SAPT in psi4, default
}

set PROPERTIES_ORIGIN ["COM"]
properties('MP2/aug-cc-pvtz', properties = ['dipole'])
--------------------------------------------------------------------------

    Molecular point group: c1
  Charge       = 0
  Multiplicity = 1
  Basis Set: AUG-CC-PVTZ
    Blend: AUG-CC-PVTZ
  Basis Set: (AUG-CC-PVTZ AUX)
    Blend: AUG-CC-PVTZ-JKFIT

    Orbital Energies [Eh]
    ---------------------

    Doubly Occupied:

       1A    -20.512322     2A    -15.583612     3A    -11.348016
       4A    -11.276000     5A    -11.267922     6A    -11.250673
       7A    -11.247394     8A    -11.242267     9A    -11.241502
      10A    -11.240134    11A    -11.240091    12A    -11.238159
      13A     -1.369958    14A     -1.234643    15A     -1.160158
      16A     -1.082290    17A     -1.042357    18A     -1.020011
      19A     -0.938118    20A     -0.888603    21A     -0.840433
      22A     -0.795908    23A     -0.773454    24A     -0.702888
      25A     -0.686191    26A     -0.672467    27A     -0.650723
      28A     -0.622299    29A     -0.619231    30A     -0.603712
      31A     -0.583342    32A     -0.577279    33A     -0.557903
      34A     -0.535483    35A     -0.520584    36A     -0.509676
      37A     -0.490277    38A     -0.486902    39A     -0.475828
      40A     -0.423878    41A     -0.389240    42A     -0.351744
      43A     -0.326658

  @DF-RHF Final Energy:  -514.58514556545742

   => Energetics <=

    Nuclear Repulsion Energy =            684.6750155283509685
    One-Electron Energy =               -2057.2796660060339491
    Two-Electron Energy =                 858.0195049122255568
    Total Energy =                       -514.5851455654574238
  Basis Set: (AUG-CC-PVTZ AUX)
    Blend: AUG-CC-PVTZ-RI
    Molecular point group: c1

    Geometry (in Angstrom), charge = 0, multiplicity = 1:

       Center              X                  Y                   Z               Mass
    ------------   -----------------  -----------------  -----------------  -----------------
         O            0.956267931167     2.458743603898    -0.647876890291    15.994914619570
         N            2.060901931167     0.641730603898     0.186757109709    14.003074004430
         C            0.770949931167    -1.611208396102    -0.861513890291    12.000000000000
         C            1.830288931167    -1.827300396102     0.228190109709    12.000000000000
         C           -0.435230068833    -0.848741396102    -0.372697890291    12.000000000000
         C            2.041216931167    -0.545895396102     1.034683109709    12.000000000000
         C           -0.344562068833     0.626562703898    -0.062001290291    12.000000000000
         C            0.926442931167     1.303223603898    -0.214275890291    12.000000000000
         C           -1.676845068833    -1.479299396102    -0.228085890291    12.000000000000
         C           -1.489072068833     1.247445603898     0.300391109709    12.000000000000
         C           -2.806694068833    -0.770515396102     0.183287109709    12.000000000000
         C           -2.713625068833     0.598598603898     0.444468109709    12.000000000000
         H            0.452866931167    -2.577809396102    -1.268186890291     1.007825032230
         H            1.231113931167    -1.057253396102    -1.686827890291     1.007825032230
         H            1.521058931167    -2.626624396102     0.913152109709     1.007825032230
         H            2.768889931167    -2.143985396102    -0.241632890291     1.007825032230
         H            1.243551931167    -0.444464396102     1.778497109709     1.007825032230
         H            2.987505931167    -0.582092396102     1.582284109709     1.007825032230
         H            2.893836931167     1.221243603898     0.164689109709     1.007825032230
         H           -1.761027068833    -2.540409396102    -0.458359890291     1.007825032230
         H           -1.393561068833     2.315958603898     0.476005109709     1.007825032230
         H           -3.759630068833    -1.283991396102     0.289089109709     1.007825032230
         H           -3.593710068833     1.158381603898     0.751517109709     1.007825032230

  Basis Set: AUG-CC-PVTZ
    Blend: AUG-CC-PVTZ
  Basis Set: (AUG-CC-PVTZ AUX)
    Blend: AUG-CC-PVTZ-JKFIT
	 Reference Energy          =    -514.5851455654574238 [Eh]
	 Singles Energy            =      -0.0000000000000000 [Eh]
	 Same-Spin Energy          =      -0.5587426134298383 [Eh]
	 Opposite-Spin Energy      =      -1.7451658539387549 [Eh]
	 Correlation Energy        =      -2.3039084673685934 [Eh]
	 Total Energy              =    -516.8890540328260386 [Eh]

	 ================> DF-SCS-MP2 Energies <==================
	-----------------------------------------------------------
	 SCS Same-Spin Scale       =       0.3333333333333333 [-]
	 SCS Opposite-Spin Scale   =       1.2000000000000000 [-]
	 SCS Same-Spin Energy      =      -0.1862475378099461 [Eh]
	 SCS Opposite-Spin Energy  =      -2.0941990247265059 [Eh]
	 SCS Correlation Energy    =      -2.2804465625364521 [Eh]
	 SCS Total Energy          =    -516.8655921279938639 [Eh]
	-----------------------------------------------------------

  Dipole Moment: [D]
     X:     0.5857      Y:    -3.6624      Z:     1.7847     Total:     4.1160

*** Psi4 exiting successfully. Buy a developer a beer!
