                               Psi4 1.4a3.dev225

  ==> Input File <==

--------------------------------------------------------------------------
#psi4
#
memory 32 gb

molecule  {
0 1
  O        0.9417500     2.5148810    -0.6596880
  N        2.0463840     0.6978680     0.1749460
  C        0.7564320    -1.5550710    -0.8733250
  C        1.8157710    -1.7711630     0.2163790
  C       -0.4497480    -0.7926040    -0.3845090
  C        2.0266990    -0.4897580     1.0228720
  C       -0.3650830     0.5850230    -0.0943830
  C        0.9119250     1.3593610    -0.2260870
  C       -1.6913630    -1.4231620    -0.2398970
  C       -1.5035900     1.3035830     0.2885800
  C       -2.8212120    -0.7143780     0.1714760
  C       -2.7281430     0.6547360     0.4326570
  H        0.4383490    -2.5216720    -1.2799980
  H        1.2165960    -1.0011160    -1.6986390
  H        1.5065410    -2.5704870     0.9013410
  H        2.7543720    -2.0878480    -0.2534440
  H        1.2144696    -0.3864750     1.7802672
  H        2.9729880    -0.5259550     1.5704730
  H        2.8793190     1.2773810     0.1528780
  H       -1.7755450    -2.4842720    -0.4701710
  H       -1.4080790     2.3720960     0.4641940
  H       -3.7741480    -1.2278540     0.2772780
  H       -3.6082280     1.2145190     0.7397060
units angstrom
no_reorient  #important for SAPT in psi4, default
symmetry c1  #important for SAPT in psi4, default
}

set PROPERTIES_ORIGIN ["COM"]
properties('MP2/aug-cc-pvtz', properties = ['dipole'])
--------------------------------------------------------------------------

    Molecular point group: c1
  Charge       = 0
  Multiplicity = 1
  Basis Set: AUG-CC-PVTZ
    Blend: AUG-CC-PVTZ
  Basis Set: (AUG-CC-PVTZ AUX)
    Blend: AUG-CC-PVTZ-JKFIT

    Orbital Energies [Eh]
    ---------------------

    Doubly Occupied:

       1A    -20.515275     2A    -15.582980     3A    -11.351551
       4A    -11.278123     5A    -11.258271     6A    -11.248783
       7A    -11.247165     8A    -11.245509     9A    -11.241719
      10A    -11.239793    11A    -11.239422    12A    -11.238136
      13A     -1.369166    14A     -1.234806    15A     -1.164191
      16A     -1.082234    17A     -1.036675    18A     -1.020428
      19A     -0.937544    20A     -0.881615    21A     -0.840850
      22A     -0.798113    23A     -0.776006    24A     -0.696668
      25A     -0.684767    26A     -0.671870    27A     -0.652605
      28A     -0.623171    29A     -0.616079    30A     -0.599931
      31A     -0.587119    32A     -0.575940    33A     -0.556901
      34A     -0.535098    35A     -0.518062    36A     -0.509906
      37A     -0.492885    38A     -0.489928    39A     -0.478108
      40A     -0.423477    41A     -0.389349    42A     -0.343822
      43A     -0.336046

  @DF-RHF Final Energy:  -514.59606287728468

   => Energetics <=

    Nuclear Repulsion Energy =            685.0368327493350762
    One-Electron Energy =               -2058.0456126673720973
    Two-Electron Energy =                 858.4127170407522271
    Total Energy =                       -514.5960628772846803
  Basis Set: (AUG-CC-PVTZ AUX)
    Blend: AUG-CC-PVTZ-RI
    Molecular point group: c1

    Geometry (in Angstrom), charge = 0, multiplicity = 1:

       Center              X                  Y                   Z               Mass
    ------------   -----------------  -----------------  -----------------  -----------------
         O            0.956806248644     2.466008498259    -0.646429448993    15.994914619570
         N            2.061440248644     0.648995498259     0.188204551007    14.003074004430
         C            0.771488248644    -1.603943501741    -0.860066448993    12.000000000000
         C            1.830827248644    -1.820035501741     0.229637551007    12.000000000000
         C           -0.434691751356    -0.841476501741    -0.371250448993    12.000000000000
         C            2.041755248644    -0.538630501741     1.036130551007    12.000000000000
         C           -0.350026751356     0.536150498259    -0.081124448993    12.000000000000
         C            0.926981248644     1.310488498259    -0.212828448993    12.000000000000
         C           -1.676306751356    -1.472034501741    -0.226638448993    12.000000000000
         C           -1.488533751356     1.254710498259     0.301838551007    12.000000000000
         C           -2.806155751356    -0.763250501741     0.184734551007    12.000000000000
         C           -2.713086751356     0.605863498259     0.445915551007    12.000000000000
         H            0.453405248644    -2.570544501741    -1.266739448993     1.007825032230
         H            1.231652248644    -1.049988501741    -1.685380448993     1.007825032230
         H            1.521597248644    -2.619359501741     0.914599551007     1.007825032230
         H            2.769428248644    -2.136720501741    -0.240185448993     1.007825032230
         H            1.229525848644    -0.435347501741     1.793525751007     1.007825032230
         H            2.988044248644    -0.574827501741     1.583731551007     1.007825032230
         H            2.894375248644     1.228508498259     0.166136551007     1.007825032230
         H           -1.760488751356    -2.533144501741    -0.456912448993     1.007825032230
         H           -1.393022751356     2.323223498259     0.477452551007     1.007825032230
         H           -3.759091751356    -1.276726501741     0.290536551007     1.007825032230
         H           -3.593171751356     1.165646498259     0.752964551007     1.007825032230

  Basis Set: AUG-CC-PVTZ
    Blend: AUG-CC-PVTZ
  Basis Set: (AUG-CC-PVTZ AUX)
    Blend: AUG-CC-PVTZ-JKFIT
	 Reference Energy          =    -514.5960628772846803 [Eh]
	 Singles Energy            =      -0.0000000000000000 [Eh]
	 Same-Spin Energy          =      -0.5586914545493633 [Eh]
	 Opposite-Spin Energy      =      -1.7445517452850317 [Eh]
	 Correlation Energy        =      -2.3032431998343950 [Eh]
	 Total Energy              =    -516.8993060771190358 [Eh]

	 ================> DF-SCS-MP2 Energies <==================
	-----------------------------------------------------------
	 SCS Same-Spin Scale       =       0.3333333333333333 [-]
	 SCS Opposite-Spin Scale   =       1.2000000000000000 [-]
	 SCS Same-Spin Energy      =      -0.1862304848497878 [Eh]
	 SCS Opposite-Spin Energy  =      -2.0934620943420379 [Eh]
	 SCS Correlation Energy    =      -2.2796925791918254 [Eh]
	 SCS Total Energy          =    -516.8757554564765542 [Eh]
	-----------------------------------------------------------

  Dipole Moment: [D]
     X:     0.6330      Y:    -3.6135      Z:     1.7582     Total:     4.0681

*** Psi4 exiting successfully. Buy a developer a beer!
