                               Psi4 1.3.2 release

  ==> Input File <==

--------------------------------------------------------------------------
#psi4
#
memory 32 gb

molecule  {
0 1
  O        0.9417500     2.5148810    -0.6596880
  N        2.0594011     0.7171596     0.1692276
  C        0.7564320    -1.5550710    -0.8733250
  C        1.8157710    -1.7711630     0.2163790
  C       -0.4497480    -0.7926040    -0.3845090
  C        2.0266990    -0.4897580     1.0228720
  C       -0.3650830     0.5850230    -0.0943830
  C        0.9119250     1.3593610    -0.2260870
  C       -1.6913630    -1.4231620    -0.2398970
  C       -1.5035900     1.3035830     0.2885800
  C       -2.8212120    -0.7143780     0.1714760
  C       -2.7281430     0.6547360     0.4326570
  H        0.4383490    -2.5216720    -1.2799980
  H        1.2165960    -1.0011160    -1.6986390
  H        1.5065410    -2.5704870     0.9013410
  H        2.7543720    -2.0878480    -0.2534440
  H        1.2290340    -0.3883270     1.7666860
  H        2.9729880    -0.5259550     1.5704730
  H        2.8793190     1.2773810     0.1528780
  H       -1.7755450    -2.4842720    -0.4701710
  H       -1.4080790     2.3720960     0.4641940
  H       -3.7741480    -1.2278540     0.2772780
  H       -3.6082280     1.2145190     0.7397060
units angstrom
no_reorient  #important for SAPT in psi4, default
symmetry c1  #important for SAPT in psi4, default
}

set PROPERTIES_ORIGIN ["COM"]
properties('MP2/aug-cc-pvtz', properties = ['dipole'])
--------------------------------------------------------------------------

    Molecular point group: c1
  Charge       = 0
  Multiplicity = 1
  Basis Set: AUG-CC-PVTZ
    Blend: AUG-CC-PVTZ
  Basis Set: (AUG-CC-PVTZ AUX)
    Blend: AUG-CC-PVTZ-JKFIT

    Orbital Energies [Eh]
    ---------------------

    Doubly Occupied:

       1A    -20.513719     2A    -15.580844     3A    -11.350789
       4A    -11.277001     5A    -11.258582     6A    -11.249085
       7A    -11.247902     8A    -11.245963     9A    -11.241978
      10A    -11.240079    11A    -11.239683    12A    -11.238656
      13A     -1.368579    14A     -1.231340    15A     -1.164607
      16A     -1.082950    17A     -1.036610    18A     -1.020977
      19A     -0.938237    20A     -0.881678    21A     -0.841637
      22A     -0.798239    23A     -0.778994    24A     -0.698609
      25A     -0.683330    26A     -0.672127    27A     -0.651038
      28A     -0.623156    29A     -0.617894    30A     -0.599851
      31A     -0.586051    32A     -0.576460    33A     -0.556895
      34A     -0.535721    35A     -0.518903    36A     -0.510240
      37A     -0.493035    38A     -0.490424    39A     -0.478514
      40A     -0.422666    41A     -0.389677    42A     -0.344102
      43A     -0.336373

  @DF-RHF Final Energy:  -514.59673978175658

   => Energetics <=

    Nuclear Repulsion Energy =            684.7132913909722447
    One-Electron Energy =               -2057.3936708846285910
    Two-Electron Energy =                 858.0836397118997638
    Total Energy =                       -514.5967397817565825
  Basis Set: (AUG-CC-PVTZ AUX)
    Blend: AUG-CC-PVTZ-RI
    Molecular point group: c1

    Geometry (in Angstrom), charge = 0, multiplicity = 1:

       Center              X                  Y                   Z               Mass
    ------------   -----------------  -----------------  -----------------  -----------------
         O            0.955583546804     2.464343062188    -0.645847376196    15.994914619570
         N            2.073234646804     0.666621662188     0.183068223804    14.003074004430
         C            0.770265546804    -1.605608937812    -0.859484376196    12.000000000000
         C            1.829604546804    -1.821700937812     0.230219623804    12.000000000000
         C           -0.435914453196    -0.843141937812    -0.370668376196    12.000000000000
         C            2.040532546804    -0.540295937812     1.036712623804    12.000000000000
         C           -0.351249453196     0.534485062188    -0.080542376196    12.000000000000
         C            0.925758546804     1.308823062188    -0.212246376196    12.000000000000
         C           -1.677529453196    -1.473699937812    -0.226056376196    12.000000000000
         C           -1.489756453196     1.253045062188     0.302420623804    12.000000000000
         C           -2.807378453196    -0.764915937812     0.185316623804    12.000000000000
         C           -2.714309453196     0.604198062188     0.446497623804    12.000000000000
         H            0.452182546804    -2.572209937812    -1.266157376196     1.007825032230
         H            1.230429546804    -1.051653937812    -1.684798376196     1.007825032230
         H            1.520374546804    -2.621024937812     0.915181623804     1.007825032230
         H            2.768205546804    -2.138385937812    -0.239603376196     1.007825032230
         H            1.242867546804    -0.438864937812     1.780526623804     1.007825032230
         H            2.986821546804    -0.576492937812     1.584313623804     1.007825032230
         H            2.893152546804     1.226843062188     0.166718623804     1.007825032230
         H           -1.761711453196    -2.534809937812    -0.456330376196     1.007825032230
         H           -1.394245453196     2.321558062188     0.478034623804     1.007825032230
         H           -3.760314453196    -1.278391937812     0.291118623804     1.007825032230
         H           -3.594394453196     1.163981062188     0.753546623804     1.007825032230

  Basis Set: AUG-CC-PVTZ
    Blend: AUG-CC-PVTZ
  Basis Set: (AUG-CC-PVTZ AUX)
    Blend: AUG-CC-PVTZ-JKFIT
	 Reference Energy          =    -514.5967397817565825 [Eh]
	 Singles Energy            =      -0.0000000000000000 [Eh]
	 Same-Spin Energy          =      -0.5582806182312394 [Eh]
	 Opposite-Spin Energy      =      -1.7439616902269504 [Eh]
	 Correlation Energy        =      -2.3022423084581898 [Eh]
	 Total Energy              =    -516.8989820902147585 [Eh]

	 ================> DF-SCS-MP2 Energies <==================
	-----------------------------------------------------------
	 SCS Same-Spin Scale       =       0.3333333333333333 [-]
	 SCS Opposite-Spin Scale   =       1.2000000000000000 [-]
	 SCS Same-Spin Energy      =      -0.1860935394104131 [Eh]
	 SCS Opposite-Spin Energy  =      -2.0927540282723402 [Eh]
	 SCS Correlation Energy    =      -2.2788475676827535 [Eh]
	 SCS Total Energy          =    -516.8755873494393427 [Eh]
	-----------------------------------------------------------

  Dipole Moment: [D]
     X:     0.5979      Y:    -3.6563      Z:     1.7780     Total:     4.1094

*** Psi4 exiting successfully. Buy a developer a beer!
