                               Psi4 1.4a3.dev225

  ==> Input File <==

--------------------------------------------------------------------------
#psi4
#
memory 32 gb

molecule  {
0 1
  O        0.9417500     2.5148810    -0.6596880
  N        2.0463840     0.6978680     0.1749460
  C        0.7564320    -1.5550710    -0.8733250
  C        1.8157710    -1.7711630     0.2163790
  C       -0.4497480    -0.7926040    -0.3845090
  C        2.0266990    -0.4897580     1.0228720
  C       -0.3650830     0.5850230    -0.0943830
  C        0.9119250     1.3593610    -0.2260870
  C       -1.6913630    -1.4231620    -0.2398970
  C       -1.5035900     1.3035830     0.2885800
  C       -2.8212120    -0.7143780     0.1714760
  C       -2.7281430     0.6547360     0.4326570
  H        0.4383490    -2.5216720    -1.2799980
  H        1.2165960    -1.0011160    -1.6986390
  H        1.4924484    -2.6069146     0.9325568
  H        2.7543720    -2.0878480    -0.2534440
  H        1.2290340    -0.3883270     1.7666860
  H        2.9729880    -0.5259550     1.5704730
  H        2.8793190     1.2773810     0.1528780
  H       -1.7755450    -2.4842720    -0.4701710
  H       -1.4080790     2.3720960     0.4641940
  H       -3.7741480    -1.2278540     0.2772780
  H       -3.6082280     1.2145190     0.7397060
units angstrom
no_reorient  #important for SAPT in psi4, default
symmetry c1  #important for SAPT in psi4, default
}

set PROPERTIES_ORIGIN ["COM"]
properties('MP2/aug-cc-pvtz', properties = ['dipole'])
--------------------------------------------------------------------------

    Molecular point group: c1
  Charge       = 0
  Multiplicity = 1
  Basis Set: AUG-CC-PVTZ
    Blend: AUG-CC-PVTZ
  Basis Set: (AUG-CC-PVTZ AUX)
    Blend: AUG-CC-PVTZ-JKFIT

    Orbital Energies [Eh]
    ---------------------

    Doubly Occupied:

       1A    -20.515425     2A    -15.583136     3A    -11.351731
       4A    -11.276243     5A    -11.258432     6A    -11.248886
       7A    -11.247343     8A    -11.245643     9A    -11.244111
      10A    -11.241852    11A    -11.239931    12A    -11.239823
      13A     -1.369335    14A     -1.235174    15A     -1.164327
      16A     -1.081502    17A     -1.036705    18A     -1.020026
      19A     -0.938665    20A     -0.881106    21A     -0.839871
      22A     -0.796682    23A     -0.776571    24A     -0.696790
      25A     -0.685437    26A     -0.671721    27A     -0.651984
      28A     -0.623248    29A     -0.616023    30A     -0.599603
      31A     -0.586968    32A     -0.576026    33A     -0.556776
      34A     -0.535250    35A     -0.516979    36A     -0.509869
      37A     -0.493141    38A     -0.487486    39A     -0.478297
      40A     -0.423582    41A     -0.389837    42A     -0.343959
      43A     -0.336282

  @DF-RHF Final Energy:  -514.59453046237661

   => Energetics <=

    Nuclear Repulsion Energy =            684.8759885529568692
    One-Electron Energy =               -2057.7174888204399394
    Two-Electron Energy =                 858.2469698051064597
    Total Energy =                       -514.5945304623766106
  Basis Set: (AUG-CC-PVTZ AUX)
    Blend: AUG-CC-PVTZ-RI
    Molecular point group: c1

    Geometry (in Angstrom), charge = 0, multiplicity = 1:

       Center              X                  Y                   Z               Mass
    ------------   -----------------  -----------------  -----------------  -----------------
         O            0.956803296820     2.466247995191    -0.646539780151    15.994914619570
         N            2.061437296820     0.649234995191     0.188094219849    14.003074004430
         C            0.771485296820    -1.603704004809    -0.860176780151    12.000000000000
         C            1.830824296820    -1.819796004809     0.229527219849    12.000000000000
         C           -0.434694703180    -0.841237004809    -0.371360780151    12.000000000000
         C            2.041752296820    -0.538391004809     1.036020219849    12.000000000000
         C           -0.350029703180     0.536389995191    -0.081234780151    12.000000000000
         C            0.926978296820     1.310727995191    -0.212938780151    12.000000000000
         C           -1.676309703180    -1.471795004809    -0.226748780151    12.000000000000
         C           -1.488536703180     1.254949995191     0.301728219849    12.000000000000
         C           -2.806158703180    -0.763011004809     0.184624219849    12.000000000000
         C           -2.713089703180     0.606102995191     0.445805219849    12.000000000000
         H            0.453402296820    -2.570305004809    -1.266849780151     1.007825032230
         H            1.231649296820    -1.049749004809    -1.685490780151     1.007825032230
         H            1.507501696820    -2.655547604809     0.945705019849     1.007825032230
         H            2.769425296820    -2.136481004809    -0.240295780151     1.007825032230
         H            1.244087296820    -0.436960004809     1.779834219849     1.007825032230
         H            2.988041296820    -0.574588004809     1.583621219849     1.007825032230
         H            2.894372296820     1.228747995191     0.166026219849     1.007825032230
         H           -1.760491703180    -2.532905004809    -0.457022780151     1.007825032230
         H           -1.393025703180     2.323462995191     0.477342219849     1.007825032230
         H           -3.759094703180    -1.276487004809     0.290426219849     1.007825032230
         H           -3.593174703180     1.165885995191     0.752854219849     1.007825032230

  Basis Set: AUG-CC-PVTZ
    Blend: AUG-CC-PVTZ
  Basis Set: (AUG-CC-PVTZ AUX)
    Blend: AUG-CC-PVTZ-JKFIT
	 Reference Energy          =    -514.5945304623766106 [Eh]
	 Singles Energy            =      -0.0000000000000000 [Eh]
	 Same-Spin Energy          =      -0.5586645157480378 [Eh]
	 Opposite-Spin Energy      =      -1.7447419027635735 [Eh]
	 Correlation Energy        =      -2.3034064185116114 [Eh]
	 Total Energy              =    -516.8979368808882100 [Eh]

	 ================> DF-SCS-MP2 Energies <==================
	-----------------------------------------------------------
	 SCS Same-Spin Scale       =       0.3333333333333333 [-]
	 SCS Opposite-Spin Scale   =       1.2000000000000000 [-]
	 SCS Same-Spin Energy      =      -0.1862215052493459 [Eh]
	 SCS Opposite-Spin Energy  =      -2.0936902833162883 [Eh]
	 SCS Correlation Energy    =      -2.2799117885656344 [Eh]
	 SCS Total Energy          =    -516.8744422509422520 [Eh]
	-----------------------------------------------------------

  Dipole Moment: [D]
     X:     0.6241      Y:    -3.5848      Z:     1.7470     Total:     4.0364

*** Psi4 exiting successfully. Buy a developer a beer!
