                               Psi4 1.3.2 release

  ==> Input File <==

--------------------------------------------------------------------------
#psi4
#
memory 32 gb

molecule  {
0 1
  O        0.9417500     2.5148810    -0.6596880
  N        2.0463840     0.6978680     0.1749460
  C        0.7564320    -1.5550710    -0.8733250
  C        1.8157710    -1.7711630     0.2163790
  C       -0.4497480    -0.7926040    -0.3845090
  C        2.0266990    -0.4897580     1.0228720
  C       -0.3650830     0.5850230    -0.0943830
  C        1.0771658     1.2630105    -0.1676741
  C       -1.6913630    -1.4231620    -0.2398970
  C       -1.5035900     1.3035830     0.2885800
  C       -2.8212120    -0.7143780     0.1714760
  C       -2.7281430     0.6547360     0.4326570
  H        0.4383490    -2.5216720    -1.2799980
  H        1.2165960    -1.0011160    -1.6986390
  H        1.5065410    -2.5704870     0.9013410
  H        2.7543720    -2.0878480    -0.2534440
  H        1.2290340    -0.3883270     1.7666860
  H        2.9729880    -0.5259550     1.5704730
  H        2.8793190     1.2773810     0.1528780
  H       -1.7755450    -2.4842720    -0.4701710
  H       -1.4080790     2.3720960     0.4641940
  H       -3.7741480    -1.2278540     0.2772780
  H       -3.6082280     1.2145190     0.7397060
units angstrom
no_reorient  #important for SAPT in psi4, default
symmetry c1  #important for SAPT in psi4, default
}

set PROPERTIES_ORIGIN ["COM"]
properties('MP2/aug-cc-pvtz', properties = ['dipole'])
--------------------------------------------------------------------------

    Molecular point group: c1
  Charge       = 0
  Multiplicity = 1
  Basis Set: AUG-CC-PVTZ
    Blend: AUG-CC-PVTZ
  Basis Set: (AUG-CC-PVTZ AUX)
    Blend: AUG-CC-PVTZ-JKFIT

    Orbital Energies [Eh]
    ---------------------

    Doubly Occupied:

       1A    -20.479768     2A    -15.616920     3A    -11.340947
       4A    -11.298217     5A    -11.251697     6A    -11.251228
       7A    -11.249963     8A    -11.244703     9A    -11.241925
      10A    -11.238895    11A    -11.237686    12A    -11.235814
      13A     -1.376943    14A     -1.235522    15A     -1.160756
      16A     -1.096668    17A     -1.035343    18A     -1.018464
      19A     -0.959373    20A     -0.887069    21A     -0.851694
      22A     -0.801855    23A     -0.797117    24A     -0.714442
      25A     -0.694762    26A     -0.667226    27A     -0.666564
      28A     -0.628931    29A     -0.619408    30A     -0.601101
      31A     -0.588079    32A     -0.569073    33A     -0.546846
      34A     -0.539182    35A     -0.521143    36A     -0.502739
      37A     -0.492753    38A     -0.481852    39A     -0.476213
      40A     -0.393282    41A     -0.384990    42A     -0.334217
      43A     -0.330281

  @DF-RHF Final Energy:  -514.53000117739521

   => Energetics <=

    Nuclear Repulsion Energy =            685.7273794224878429
    One-Electron Energy =               -2059.1914565705556015
    Two-Electron Energy =                 858.9340759706724384
    Total Energy =                       -514.5300011773952065
  Basis Set: (AUG-CC-PVTZ AUX)
    Blend: AUG-CC-PVTZ-RI
    Molecular point group: c1

    Geometry (in Angstrom), charge = 0, multiplicity = 1:

       Center              X                  Y                   Z               Mass
    ------------   -----------------  -----------------  -----------------  -----------------
         O            0.944405469091     2.473197741337    -0.650695962450    15.994914619570
         N            2.049039469091     0.656184741337     0.183938037550    14.003074004430
         C            0.759087469091    -1.596754258663    -0.864332962450    12.000000000000
         C            1.818426469091    -1.812846258663     0.225371037550    12.000000000000
         C           -0.447092530909    -0.834287258663    -0.375516962450    12.000000000000
         C            2.029354469091    -0.531441258663     1.031864037550    12.000000000000
         C           -0.362427530909     0.543339741337    -0.085390962450    12.000000000000
         C            1.079821269091     1.221327241337    -0.158682062450    12.000000000000
         C           -1.688707530909    -1.464845258663    -0.230904962450    12.000000000000
         C           -1.500934530909     1.261899741337     0.297572037550    12.000000000000
         C           -2.818556530909    -0.756061258663     0.180468037550    12.000000000000
         C           -2.725487530909     0.613052741337     0.441649037550    12.000000000000
         H            0.441004469091    -2.563355258663    -1.271005962450     1.007825032230
         H            1.219251469091    -1.042799258663    -1.689646962450     1.007825032230
         H            1.509196469091    -2.612170258663     0.910333037550     1.007825032230
         H            2.757027469091    -2.129531258663    -0.244451962450     1.007825032230
         H            1.231689469091    -0.430010258663     1.775678037550     1.007825032230
         H            2.975643469091    -0.567638258663     1.579465037550     1.007825032230
         H            2.881974469091     1.235697741337     0.161870037550     1.007825032230
         H           -1.772889530909    -2.525955258663    -0.461178962450     1.007825032230
         H           -1.405423530909     2.330412741337     0.473186037550     1.007825032230
         H           -3.771492530909    -1.269537258663     0.286270037550     1.007825032230
         H           -3.605572530909     1.172835741337     0.748698037550     1.007825032230

  Basis Set: AUG-CC-PVTZ
    Blend: AUG-CC-PVTZ
  Basis Set: (AUG-CC-PVTZ AUX)
    Blend: AUG-CC-PVTZ-JKFIT
	 Reference Energy          =    -514.5300011773952065 [Eh]
	 Singles Energy            =      -0.0000000000000000 [Eh]
	 Same-Spin Energy          =      -0.5601772599281369 [Eh]
	 Opposite-Spin Energy      =      -1.7470811375983601 [Eh]
	 Correlation Energy        =      -2.3072583975264971 [Eh]
	 Total Energy              =    -516.8372595749217453 [Eh]

	 ================> DF-SCS-MP2 Energies <==================
	-----------------------------------------------------------
	 SCS Same-Spin Scale       =       0.3333333333333333 [-]
	 SCS Opposite-Spin Scale   =       1.2000000000000000 [-]
	 SCS Same-Spin Energy      =      -0.1867257533093790 [Eh]
	 SCS Opposite-Spin Energy  =      -2.0964973651180321 [Eh]
	 SCS Correlation Energy    =      -2.2832231184274110 [Eh]
	 SCS Total Energy          =    -516.8132242958225788 [Eh]
	-----------------------------------------------------------

  Dipole Moment: [D]
     X:     1.7891      Y:    -4.7027      Z:     2.3700     Total:     5.5618

*** Psi4 exiting successfully. Buy a developer a beer!
