                               Psi4 1.4a3.dev225

  ==> Input File <==

--------------------------------------------------------------------------
#psi4
#
memory 32 gb

molecule  {
0 1
  O        0.9417500     2.5148810    -0.6596880
  N        2.0463840     0.6978680     0.1749460
  C        0.7564320    -1.5550710    -0.8733250
  C        1.8157710    -1.7711630     0.2163790
  C       -0.4497480    -0.7926040    -0.3845090
  C        2.0198001    -0.5316696     0.9964936
  C       -0.3650830     0.5850230    -0.0943830
  C        0.9119250     1.3593610    -0.2260870
  C       -1.6913630    -1.4231620    -0.2398970
  C       -1.5035900     1.3035830     0.2885800
  C       -2.8212120    -0.7143780     0.1714760
  C       -2.7281430     0.6547360     0.4326570
  H        0.4383490    -2.5216720    -1.2799980
  H        1.2165960    -1.0011160    -1.6986390
  H        1.5065410    -2.5704870     0.9013410
  H        2.7543720    -2.0878480    -0.2534440
  H        1.2290340    -0.3883270     1.7666860
  H        2.9729880    -0.5259550     1.5704730
  H        2.8793190     1.2773810     0.1528780
  H       -1.7755450    -2.4842720    -0.4701710
  H       -1.4080790     2.3720960     0.4641940
  H       -3.7741480    -1.2278540     0.2772780
  H       -3.6082280     1.2145190     0.7397060
units angstrom
no_reorient  #important for SAPT in psi4, default
symmetry c1  #important for SAPT in psi4, default
}

set PROPERTIES_ORIGIN ["COM"]
properties('MP2/aug-cc-pvtz', properties = ['dipole'])
--------------------------------------------------------------------------

    Molecular point group: c1
  Charge       = 0
  Multiplicity = 1
  Basis Set: AUG-CC-PVTZ
    Blend: AUG-CC-PVTZ
  Basis Set: (AUG-CC-PVTZ AUX)
    Blend: AUG-CC-PVTZ-JKFIT

    Orbital Energies [Eh]
    ---------------------

    Doubly Occupied:

       1A    -20.513849     2A    -15.582183     3A    -11.350327
       4A    -11.278489     5A    -11.258300     6A    -11.248672
       7A    -11.247038     8A    -11.245292     9A    -11.241883
      10A    -11.240282    11A    -11.239814    12A    -11.237251
      13A     -1.367720    14A     -1.231412    15A     -1.163907
      16A     -1.086888    17A     -1.037601    18A     -1.023752
      19A     -0.938379    20A     -0.880652    21A     -0.840790
      22A     -0.798612    23A     -0.775248    24A     -0.695908
      25A     -0.683926    26A     -0.672692    27A     -0.650665
      28A     -0.624963    29A     -0.617458    30A     -0.602035
      31A     -0.586484    32A     -0.575735    33A     -0.556836
      34A     -0.533191    35A     -0.518709    36A     -0.511196
      37A     -0.494184    38A     -0.490732    39A     -0.476740
      40A     -0.421945    41A     -0.390661    42A     -0.343595
      43A     -0.336211

  @DF-RHF Final Energy:  -514.59350499554864

   => Energetics <=

    Nuclear Repulsion Energy =            685.4377782668390182
    One-Electron Energy =               -2058.8381523296866362
    Two-Electron Energy =                 858.8068690672990897
    Total Energy =                       -514.5935049955486420
  Basis Set: (AUG-CC-PVTZ AUX)
    Blend: AUG-CC-PVTZ-RI
    Molecular point group: c1

    Geometry (in Angstrom), charge = 0, multiplicity = 1:

       Center              X                  Y                   Z               Mass
    ------------   -----------------  -----------------  -----------------  -----------------
         O            0.957229061624     2.469142301066    -0.644379412104    15.994914619570
         N            2.061863061624     0.652129301066     0.190254587896    14.003074004430
         C            0.771911061624    -1.600809698934    -0.858016412104    12.000000000000
         C            1.831250061624    -1.816901698934     0.231687587896    12.000000000000
         C           -0.434268938376    -0.838342698934    -0.369200412104    12.000000000000
         C            2.035279161624    -0.577408298934     1.011802187896    12.000000000000
         C           -0.349603938376     0.539284301066    -0.079074412104    12.000000000000
         C            0.927404061624     1.313622301066    -0.210778412104    12.000000000000
         C           -1.675883938376    -1.468900698934    -0.224588412104    12.000000000000
         C           -1.488110938376     1.257844301066     0.303888587896    12.000000000000
         C           -2.805732938376    -0.760116698934     0.186784587896    12.000000000000
         C           -2.712663938376     0.608997301066     0.447965587896    12.000000000000
         H            0.453828061624    -2.567410698934    -1.264689412104     1.007825032230
         H            1.232075061624    -1.046854698934    -1.683330412104     1.007825032230
         H            1.522020061624    -2.616225698934     0.916649587896     1.007825032230
         H            2.769851061624    -2.133586698934    -0.238135412104     1.007825032230
         H            1.244513061624    -0.434065698934     1.781994587896     1.007825032230
         H            2.988467061624    -0.571693698934     1.585781587896     1.007825032230
         H            2.894798061624     1.231642301066     0.168186587896     1.007825032230
         H           -1.760065938376    -2.530010698934    -0.454862412104     1.007825032230
         H           -1.392599938376     2.326357301066     0.479502587896     1.007825032230
         H           -3.758668938376    -1.273592698934     0.292586587896     1.007825032230
         H           -3.592748938376     1.168780301066     0.755014587896     1.007825032230

  Basis Set: AUG-CC-PVTZ
    Blend: AUG-CC-PVTZ
  Basis Set: (AUG-CC-PVTZ AUX)
    Blend: AUG-CC-PVTZ-JKFIT
	 Reference Energy          =    -514.5935049955486420 [Eh]
	 Singles Energy            =      -0.0000000000000000 [Eh]
	 Same-Spin Energy          =      -0.5590362005858001 [Eh]
	 Opposite-Spin Energy      =      -1.7449058561972774 [Eh]
	 Correlation Energy        =      -2.3039420567830775 [Eh]
	 Total Energy              =    -516.8974470523316995 [Eh]

	 ================> DF-SCS-MP2 Energies <==================
	-----------------------------------------------------------
	 SCS Same-Spin Scale       =       0.3333333333333333 [-]
	 SCS Opposite-Spin Scale   =       1.2000000000000000 [-]
	 SCS Same-Spin Energy      =      -0.1863454001952667 [Eh]
	 SCS Opposite-Spin Energy  =      -2.0938870274367329 [Eh]
	 SCS Correlation Energy    =      -2.2802324276319994 [Eh]
	 SCS Total Energy          =    -516.8737374231806143 [Eh]
	-----------------------------------------------------------

  Dipole Moment: [D]
     X:     0.6355      Y:    -3.7102      Z:     1.7600     Total:     4.1554

*** Psi4 exiting successfully. Buy a developer a beer!
