                               Psi4 1.4a3.dev225

  ==> Input File <==

--------------------------------------------------------------------------
#psi4
#
memory 32 gb

molecule  {
0 1
  O        0.9417500     2.5148810    -0.6596880
  N        2.0463840     0.6978680     0.1749460
  C        0.7564320    -1.5550710    -0.8733250
  C        1.8157710    -1.7711630     0.2163790
  C       -0.4497480    -0.7926040    -0.3845090
  C        2.0266990    -0.4897580     1.0228720
  C       -0.3650830     0.5850230    -0.0943830
  C        0.9119250     1.3593610    -0.2260870
  C       -1.6470210    -1.4006428    -0.2450616
  C       -1.5035900     1.3035830     0.2885800
  C       -2.8212120    -0.7143780     0.1714760
  C       -2.7281430     0.6547360     0.4326570
  H        0.4383490    -2.5216720    -1.2799980
  H        1.2165960    -1.0011160    -1.6986390
  H        1.5065410    -2.5704870     0.9013410
  H        2.7543720    -2.0878480    -0.2534440
  H        1.2290340    -0.3883270     1.7666860
  H        2.9729880    -0.5259550     1.5704730
  H        2.8793190     1.2773810     0.1528780
  H       -1.7755450    -2.4842720    -0.4701710
  H       -1.4080790     2.3720960     0.4641940
  H       -3.7741480    -1.2278540     0.2772780
  H       -3.6082280     1.2145190     0.7397060
units angstrom
no_reorient  #important for SAPT in psi4, default
symmetry c1  #important for SAPT in psi4, default
}

set PROPERTIES_ORIGIN ["COM"]
properties('MP2/aug-cc-pvtz', properties = ['dipole'])
--------------------------------------------------------------------------

    Molecular point group: c1
  Charge       = 0
  Multiplicity = 1
  Basis Set: AUG-CC-PVTZ
    Blend: AUG-CC-PVTZ
  Basis Set: (AUG-CC-PVTZ AUX)
    Blend: AUG-CC-PVTZ-JKFIT

    Orbital Energies [Eh]
    ---------------------

    Doubly Occupied:

       1A    -20.514874     2A    -15.582486     3A    -11.351248
       4A    -11.275684     5A    -11.251774     6A    -11.251707
       7A    -11.247390     8A    -11.245819     9A    -11.240845
      10A    -11.240358    11A    -11.238502    12A    -11.237395
      13A     -1.368816    14A     -1.234767    15A     -1.167586
      16A     -1.082691    17A     -1.034069    18A     -1.023388
      19A     -0.938763    20A     -0.883331    21A     -0.839593
      22A     -0.797980    23A     -0.777046    24A     -0.696614
      25A     -0.684882    26A     -0.672378    27A     -0.652749
      28A     -0.624546    29A     -0.616948    30A     -0.594472
      31A     -0.587583    32A     -0.576530    33A     -0.557332
      34A     -0.535442    35A     -0.519975    36A     -0.510386
      37A     -0.492784    38A     -0.490277    39A     -0.474486
      40A     -0.423584    41A     -0.389215    42A     -0.343804
      43A     -0.338834

  @DF-RHF Final Energy:  -514.59364547116490

   => Energetics <=

    Nuclear Repulsion Energy =            685.9499916970721642
    One-Electron Energy =               -2059.8694062690187820
    Two-Electron Energy =                 859.3257691007817130
    Total Energy =                       -514.5936454711649048
  Basis Set: (AUG-CC-PVTZ AUX)
    Blend: AUG-CC-PVTZ-RI
    Molecular point group: c1

    Geometry (in Angstrom), charge = 0, multiplicity = 1:

       Center              X                  Y                   Z               Mass
    ------------   -----------------  -----------------  -----------------  -----------------
         O            0.953411857211     2.464342511560    -0.645959739752    15.994914619570
         N            2.058045857211     0.647329511560     0.188674260248    14.003074004430
         C            0.768093857211    -1.605609488440    -0.859596739752    12.000000000000
         C            1.827432857211    -1.821701488440     0.230107260248    12.000000000000
         C           -0.438086142789    -0.843142488440    -0.370780739752    12.000000000000
         C            2.038360857211    -0.540296488440     1.036600260248    12.000000000000
         C           -0.353421142789     0.534484511560    -0.080654739752    12.000000000000
         C            0.923586857211     1.308822511560    -0.212358739752    12.000000000000
         C           -1.635359142789    -1.451181288440    -0.231333339752    12.000000000000
         C           -1.491928142789     1.253044511560     0.302308260248    12.000000000000
         C           -2.809550142789    -0.764916488440     0.185204260248    12.000000000000
         C           -2.716481142789     0.604197511560     0.446385260248    12.000000000000
         H            0.450010857211    -2.572210488440    -1.266269739752     1.007825032230
         H            1.228257857211    -1.051654488440    -1.684910739752     1.007825032230
         H            1.518202857211    -2.621025488440     0.915069260248     1.007825032230
         H            2.766033857211    -2.138386488440    -0.239715739752     1.007825032230
         H            1.240695857211    -0.438865488440     1.780414260248     1.007825032230
         H            2.984649857211    -0.576493488440     1.584201260248     1.007825032230
         H            2.890980857211     1.226842511560     0.166606260248     1.007825032230
         H           -1.763883142789    -2.534810488440    -0.456442739752     1.007825032230
         H           -1.396417142789     2.321557511560     0.477922260248     1.007825032230
         H           -3.762486142789    -1.278392488440     0.291006260248     1.007825032230
         H           -3.596566142789     1.163980511560     0.753434260248     1.007825032230

  Basis Set: AUG-CC-PVTZ
    Blend: AUG-CC-PVTZ
  Basis Set: (AUG-CC-PVTZ AUX)
    Blend: AUG-CC-PVTZ-JKFIT
	 Reference Energy          =    -514.5936454711649048 [Eh]
	 Singles Energy            =      -0.0000000000000000 [Eh]
	 Same-Spin Energy          =      -0.5586116175954128 [Eh]
	 Opposite-Spin Energy      =      -1.7444818070301285 [Eh]
	 Correlation Energy        =      -2.3030934246255415 [Eh]
	 Total Energy              =    -516.8967388957904632 [Eh]

	 ================> DF-SCS-MP2 Energies <==================
	-----------------------------------------------------------
	 SCS Same-Spin Scale       =       0.3333333333333333 [-]
	 SCS Opposite-Spin Scale   =       1.2000000000000000 [-]
	 SCS Same-Spin Energy      =      -0.1862038725318043 [Eh]
	 SCS Opposite-Spin Energy  =      -2.0933781684361539 [Eh]
	 SCS Correlation Energy    =      -2.2795820409679579 [Eh]
	 SCS Total Energy          =    -516.8732275121328712 [Eh]
	-----------------------------------------------------------

  Dipole Moment: [D]
     X:     0.6076      Y:    -3.5936      Z:     1.7795     Total:     4.0558

*** Psi4 exiting successfully. Buy a developer a beer!
