                               Psi4 1.3.2 release

  ==> Input File <==

--------------------------------------------------------------------------
#psi4
#
memory 32 gb

molecule  {
0 1
  O        0.9417500     2.5148810    -0.6596880
  N        2.0463840     0.6978680     0.1749460
  C        0.7564320    -1.5550710    -0.8733250
  C        1.8157710    -1.7711630     0.2163790
  C       -0.4497480    -0.7926040    -0.3845090
  C        2.0266990    -0.4897580     1.0228720
  C       -0.3650830     0.5850230    -0.0943830
  C        0.9945454     1.3111858    -0.1968806
  C       -1.6913630    -1.4231620    -0.2398970
  C       -1.5035900     1.3035830     0.2885800
  C       -2.8212120    -0.7143780     0.1714760
  C       -2.7281430     0.6547360     0.4326570
  H        0.4383490    -2.5216720    -1.2799980
  H        1.2165960    -1.0011160    -1.6986390
  H        1.5065410    -2.5704870     0.9013410
  H        2.7543720    -2.0878480    -0.2534440
  H        1.2290340    -0.3883270     1.7666860
  H        2.9729880    -0.5259550     1.5704730
  H        2.8793190     1.2773810     0.1528780
  H       -1.7755450    -2.4842720    -0.4701710
  H       -1.4080790     2.3720960     0.4641940
  H       -3.7741480    -1.2278540     0.2772780
  H       -3.6082280     1.2145190     0.7397060
units angstrom
no_reorient  #important for SAPT in psi4, default
symmetry c1  #important for SAPT in psi4, default
}

set PROPERTIES_ORIGIN ["COM"]
properties('MP2/aug-cc-pvtz', properties = ['dipole'])
--------------------------------------------------------------------------

    Molecular point group: c1
  Charge       = 0
  Multiplicity = 1
  Basis Set: AUG-CC-PVTZ
    Blend: AUG-CC-PVTZ
  Basis Set: (AUG-CC-PVTZ AUX)
    Blend: AUG-CC-PVTZ-JKFIT

    Orbital Energies [Eh]
    ---------------------

    Doubly Occupied:

       1A    -20.497846     2A    -15.600772     3A    -11.347925
       4A    -11.287003     5A    -11.254110     6A    -11.248435
       7A    -11.245238     8A    -11.244728     9A    -11.242149
      10A    -11.241908    11A    -11.239579    12A    -11.237723
      13A     -1.351034    14A     -1.252104    15A     -1.162421
      16A     -1.088843    17A     -1.032715    18A     -1.022166
      19A     -0.948822    20A     -0.881998    21A     -0.845863
      22A     -0.797992    23A     -0.789008    24A     -0.698896
      25A     -0.696592    26A     -0.669316    27A     -0.657421
      28A     -0.623876    29A     -0.617815    30A     -0.601096
      31A     -0.583826    32A     -0.568082    33A     -0.556561
      34A     -0.538222    35A     -0.518163    36A     -0.503508
      37A     -0.493588    38A     -0.490624    39A     -0.477856
      40A     -0.409912    41A     -0.392448    42A     -0.338534
      43A     -0.333877

  @DF-RHF Final Energy:  -514.58087401997250

   => Energetics <=

    Nuclear Repulsion Energy =            685.3132243970101172
    One-Electron Energy =               -2058.5270036539700413
    Two-Electron Energy =                 858.6329052369874262
    Total Energy =                       -514.5808740199724980
  Basis Set: (AUG-CC-PVTZ AUX)
    Blend: AUG-CC-PVTZ-RI
    Molecular point group: c1

    Geometry (in Angstrom), charge = 0, multiplicity = 1:

       Center              X                  Y                   Z               Mass
    ------------   -----------------  -----------------  -----------------  -----------------
         O            0.950560297667     2.469608909607    -0.648520216499    15.994914619570
         N            2.055194297667     0.652595909607     0.186113783501    14.003074004430
         C            0.765242297667    -1.600343090393    -0.862157216499    12.000000000000
         C            1.824581297667    -1.816435090393     0.227546783501    12.000000000000
         C           -0.440937702333    -0.837876090393    -0.373341216499    12.000000000000
         C            2.035509297667    -0.535030090393     1.034039783501    12.000000000000
         C           -0.356272702333     0.539750909607    -0.083215216499    12.000000000000
         C            1.003355697667     1.265913709607    -0.185712816499    12.000000000000
         C           -1.682552702333    -1.468434090393    -0.228729216499    12.000000000000
         C           -1.494779702333     1.258310909607     0.299747783501    12.000000000000
         C           -2.812401702333    -0.759650090393     0.182643783501    12.000000000000
         C           -2.719332702333     0.609463909607     0.443824783501    12.000000000000
         H            0.447159297667    -2.566944090393    -1.268830216499     1.007825032230
         H            1.225406297667    -1.046388090393    -1.687471216499     1.007825032230
         H            1.515351297667    -2.615759090393     0.912508783501     1.007825032230
         H            2.763182297667    -2.133120090393    -0.242276216499     1.007825032230
         H            1.237844297667    -0.433599090393     1.777853783501     1.007825032230
         H            2.981798297667    -0.571227090393     1.581640783501     1.007825032230
         H            2.888129297667     1.232108909607     0.164045783501     1.007825032230
         H           -1.766734702333    -2.529544090393    -0.459003216499     1.007825032230
         H           -1.399268702333     2.326823909607     0.475361783501     1.007825032230
         H           -3.765337702333    -1.273126090393     0.288445783501     1.007825032230
         H           -3.599417702333     1.169246909607     0.750873783501     1.007825032230

  Basis Set: AUG-CC-PVTZ
    Blend: AUG-CC-PVTZ
  Basis Set: (AUG-CC-PVTZ AUX)
    Blend: AUG-CC-PVTZ-JKFIT
	 Reference Energy          =    -514.5808740199724980 [Eh]
	 Singles Energy            =      -0.0000000000000000 [Eh]
	 Same-Spin Energy          =      -0.5593845796615141 [Eh]
	 Opposite-Spin Energy      =      -1.7456276255259577 [Eh]
	 Correlation Energy        =      -2.3050122051874720 [Eh]
	 Total Energy              =    -516.8858862251599930 [Eh]

	 ================> DF-SCS-MP2 Energies <==================
	-----------------------------------------------------------
	 SCS Same-Spin Scale       =       0.3333333333333333 [-]
	 SCS Opposite-Spin Scale   =       1.2000000000000000 [-]
	 SCS Same-Spin Energy      =      -0.1864615265538380 [Eh]
	 SCS Opposite-Spin Energy  =      -2.0947531506311492 [Eh]
	 SCS Correlation Energy    =      -2.2812146771849870 [Eh]
	 SCS Total Energy          =    -516.8620886971574464 [Eh]
	-----------------------------------------------------------

  Dipole Moment: [D]
     X:     1.2507      Y:    -4.1285      Z:     2.0656     Total:     4.7828

*** Psi4 exiting successfully. Buy a developer a beer!
