                               Psi4 1.3.2 release

  ==> Input File <==

--------------------------------------------------------------------------
#psi4
#
memory 32 gb

molecule  {
0 1
  O        0.9417500     2.5148810    -0.6596880
  N        2.0463840     0.6978680     0.1749460
  C        0.7564320    -1.5550710    -0.8733250
  C        1.8157710    -1.7711630     0.2163790
  C       -0.4497480    -0.7926040    -0.3845090
  C        2.0029412    -0.4946430     1.0150959
  C       -0.3650830     0.5850230    -0.0943830
  C        0.9119250     1.3593610    -0.2260870
  C       -1.6913630    -1.4231620    -0.2398970
  C       -1.5035900     1.3035830     0.2885800
  C       -2.8212120    -0.7143780     0.1714760
  C       -2.7281430     0.6547360     0.4326570
  H        0.4383490    -2.5216720    -1.2799980
  H        1.2165960    -1.0011160    -1.6986390
  H        1.5065410    -2.5704870     0.9013410
  H        2.7543720    -2.0878480    -0.2534440
  H        1.2290340    -0.3883270     1.7666860
  H        2.9729880    -0.5259550     1.5704730
  H        2.8793190     1.2773810     0.1528780
  H       -1.7755450    -2.4842720    -0.4701710
  H       -1.4080790     2.3720960     0.4641940
  H       -3.7741480    -1.2278540     0.2772780
  H       -3.6082280     1.2145190     0.7397060
units angstrom
no_reorient  #important for SAPT in psi4, default
symmetry c1  #important for SAPT in psi4, default
}

set PROPERTIES_ORIGIN ["COM"]
properties('MP2/aug-cc-pvtz', properties = ['dipole'])
--------------------------------------------------------------------------

    Molecular point group: c1
  Charge       = 0
  Multiplicity = 1
  Basis Set: AUG-CC-PVTZ
    Blend: AUG-CC-PVTZ
  Basis Set: (AUG-CC-PVTZ AUX)
    Blend: AUG-CC-PVTZ-JKFIT

    Orbital Energies [Eh]
    ---------------------

    Doubly Occupied:

       1A    -20.514950     2A    -15.582856     3A    -11.350990
       4A    -11.276302     5A    -11.258344     6A    -11.248868
       7A    -11.247264     8A    -11.245596     9A    -11.241868
      10A    -11.239923    11A    -11.239200    12A    -11.237749
      13A     -1.368977    14A     -1.235311    15A     -1.164282
      16A     -1.083407    17A     -1.036824    18A     -1.021270
      19A     -0.937872    20A     -0.881198    21A     -0.841691
      22A     -0.798478    23A     -0.776691    24A     -0.696875
      25A     -0.686272    26A     -0.672409    27A     -0.651074
      28A     -0.624226    29A     -0.615729    30A     -0.600589
      31A     -0.586828    32A     -0.577244    33A     -0.556868
      34A     -0.534783    35A     -0.519588    36A     -0.509987
      37A     -0.491471    38A     -0.490106    39A     -0.478221
      40A     -0.422943    41A     -0.390602    42A     -0.343901
      43A     -0.336242

  @DF-RHF Final Energy:  -514.59563238589556

   => Energetics <=

    Nuclear Repulsion Energy =            685.5088975427061087
    One-Electron Energy =               -2058.9773120599761569
    Two-Electron Energy =                 858.8727821313744926
    Total Energy =                       -514.5956323858955557
  Basis Set: (AUG-CC-PVTZ AUX)
    Blend: AUG-CC-PVTZ-RI
    Molecular point group: c1

    Geometry (in Angstrom), charge = 0, multiplicity = 1:

       Center              X                  Y                   Z               Mass
    ------------   -----------------  -----------------  -----------------  -----------------
         O            0.958484969844     2.466383994695    -0.645765195368    15.994914619570
         N            2.063118969844     0.649370994695     0.188868804632    14.003074004430
         C            0.773166969844    -1.603568005305    -0.859402195368    12.000000000000
         C            1.832505969844    -1.819660005305     0.230301804632    12.000000000000
         C           -0.433013030156    -0.841101005305    -0.370586195368    12.000000000000
         C            2.019676169844    -0.543140005305     1.029018704632    12.000000000000
         C           -0.348348030156     0.536525994695    -0.080460195368    12.000000000000
         C            0.928659969844     1.310863994695    -0.212164195368    12.000000000000
         C           -1.674628030156    -1.471659005305    -0.225974195368    12.000000000000
         C           -1.486855030156     1.255085994695     0.302502804632    12.000000000000
         C           -2.804477030156    -0.762875005305     0.185398804632    12.000000000000
         C           -2.711408030156     0.606238994695     0.446579804632    12.000000000000
         H            0.455083969844    -2.570169005305    -1.266075195368     1.007825032230
         H            1.233330969844    -1.049613005305    -1.684716195368     1.007825032230
         H            1.523275969844    -2.618984005305     0.915263804632     1.007825032230
         H            2.771106969844    -2.136345005305    -0.239521195368     1.007825032230
         H            1.245768969844    -0.436824005305     1.780608804632     1.007825032230
         H            2.989722969844    -0.574452005305     1.584395804632     1.007825032230
         H            2.896053969844     1.228883994695     0.166800804632     1.007825032230
         H           -1.758810030156    -2.532769005305    -0.456248195368     1.007825032230
         H           -1.391344030156     2.323598994695     0.478116804632     1.007825032230
         H           -3.757413030156    -1.276351005305     0.291200804632     1.007825032230
         H           -3.591493030156     1.166021994695     0.753628804632     1.007825032230

  Basis Set: AUG-CC-PVTZ
    Blend: AUG-CC-PVTZ
  Basis Set: (AUG-CC-PVTZ AUX)
    Blend: AUG-CC-PVTZ-JKFIT
	 Reference Energy          =    -514.5956323858955557 [Eh]
	 Singles Energy            =      -0.0000000000000000 [Eh]
	 Same-Spin Energy          =      -0.5588023141651883 [Eh]
	 Opposite-Spin Energy      =      -1.7445824050011107 [Eh]
	 Correlation Energy        =      -2.3033847191662993 [Eh]
	 Total Energy              =    -516.8990171050618301 [Eh]

	 ================> DF-SCS-MP2 Energies <==================
	-----------------------------------------------------------
	 SCS Same-Spin Scale       =       0.3333333333333333 [-]
	 SCS Opposite-Spin Scale   =       1.2000000000000000 [-]
	 SCS Same-Spin Energy      =      -0.1862674380550628 [Eh]
	 SCS Opposite-Spin Energy  =      -2.0934988860013326 [Eh]
	 SCS Correlation Energy    =      -2.2797663240563955 [Eh]
	 SCS Total Energy          =    -516.8753987099519236 [Eh]
	-----------------------------------------------------------

  Dipole Moment: [D]
     X:     0.6127      Y:    -3.6272      Z:     1.7639     Total:     4.0797

*** Psi4 exiting successfully. Buy a developer a beer!
