                               Psi4 1.3.2 release

  ==> Input File <==

--------------------------------------------------------------------------
#psi4
#
memory 32 gb

molecule  {
0 1
  O        0.9417500     2.5148810    -0.6596880
  N        2.0928734     0.7087015     0.1927290
  C        0.7564320    -1.5550710    -0.8733250
  C        1.8157710    -1.7711630     0.2163790
  C       -0.4497480    -0.7926040    -0.3845090
  C        2.0266990    -0.4897580     1.0228720
  C       -0.3650830     0.5850230    -0.0943830
  C        0.9119250     1.3593610    -0.2260870
  C       -1.6913630    -1.4231620    -0.2398970
  C       -1.5035900     1.3035830     0.2885800
  C       -2.8212120    -0.7143780     0.1714760
  C       -2.7281430     0.6547360     0.4326570
  H        0.4383490    -2.5216720    -1.2799980
  H        1.2165960    -1.0011160    -1.6986390
  H        1.5065410    -2.5704870     0.9013410
  H        2.7543720    -2.0878480    -0.2534440
  H        1.2290340    -0.3883270     1.7666860
  H        2.9729880    -0.5259550     1.5704730
  H        2.8793190     1.2773810     0.1528780
  H       -1.7755450    -2.4842720    -0.4701710
  H       -1.4080790     2.3720960     0.4641940
  H       -3.7741480    -1.2278540     0.2772780
  H       -3.6082280     1.2145190     0.7397060
units angstrom
no_reorient  #important for SAPT in psi4, default
symmetry c1  #important for SAPT in psi4, default
}

set PROPERTIES_ORIGIN ["COM"]
properties('MP2/aug-cc-pvtz', properties = ['dipole'])
--------------------------------------------------------------------------

    Molecular point group: c1
  Charge       = 0
  Multiplicity = 1
  Basis Set: AUG-CC-PVTZ
    Blend: AUG-CC-PVTZ
  Basis Set: (AUG-CC-PVTZ AUX)
    Blend: AUG-CC-PVTZ-JKFIT

    Orbital Energies [Eh]
    ---------------------

    Doubly Occupied:

       1A    -20.519955     2A    -15.576927     3A    -11.355975
       4A    -11.273487     5A    -11.259416     6A    -11.249990
       7A    -11.249404     8A    -11.247283     9A    -11.242526
      10A    -11.240827    11A    -11.239387    12A    -11.237255
      13A     -1.369506    14A     -1.229442    15A     -1.165503
      16A     -1.082098    17A     -1.037320    18A     -1.020125
      19A     -0.936841    20A     -0.881582    21A     -0.842191
      22A     -0.798893    23A     -0.777770    24A     -0.699633
      25A     -0.682598    26A     -0.673181    27A     -0.651011
      28A     -0.624882    29A     -0.616020    30A     -0.600390
      31A     -0.586421    32A     -0.579796    33A     -0.555340
      34A     -0.534836    35A     -0.519776    36A     -0.511787
      37A     -0.492724    38A     -0.490634    39A     -0.478385
      40A     -0.424355    41A     -0.387911    42A     -0.345181
      43A     -0.336924

  @DF-RHF Final Energy:  -514.59359769274488

   => Energetics <=

    Nuclear Repulsion Energy =            684.0081719781643415
    One-Electron Energy =               -2055.9525634499264015
    Two-Electron Energy =                 857.3507937790172946
    Total Energy =                       -514.5935976927448792
  Basis Set: (AUG-CC-PVTZ AUX)
    Blend: AUG-CC-PVTZ-RI
    Molecular point group: c1

    Geometry (in Angstrom), charge = 0, multiplicity = 1:

       Center              X                  Y                   Z               Mass
    ------------   -----------------  -----------------  -----------------  -----------------
         O            0.952673792217     2.465078326729    -0.647890358197    15.994914619570
         N            2.103797192217     0.658898826729     0.204526641803    14.003074004430
         C            0.767355792217    -1.604873673271    -0.861527358197    12.000000000000
         C            1.826694792217    -1.820965673271     0.228176641803    12.000000000000
         C           -0.438824207783    -0.842406673271    -0.372711358197    12.000000000000
         C            2.037622792217    -0.539560673271     1.034669641803    12.000000000000
         C           -0.354159207783     0.535220326729    -0.082585358197    12.000000000000
         C            0.922848792217     1.309558326729    -0.214289358197    12.000000000000
         C           -1.680439207783    -1.472964673271    -0.228099358197    12.000000000000
         C           -1.492666207783     1.253780326729     0.300377641803    12.000000000000
         C           -2.810288207783    -0.764180673271     0.183273641803    12.000000000000
         C           -2.717219207783     0.604933326729     0.444454641803    12.000000000000
         H            0.449272792217    -2.571474673271    -1.268200358197     1.007825032230
         H            1.227519792217    -1.050918673271    -1.686841358197     1.007825032230
         H            1.517464792217    -2.620289673271     0.913138641803     1.007825032230
         H            2.765295792217    -2.137650673271    -0.241646358197     1.007825032230
         H            1.239957792217    -0.438129673271     1.778483641803     1.007825032230
         H            2.983911792217    -0.575757673271     1.582270641803     1.007825032230
         H            2.890242792217     1.227578326729     0.164675641803     1.007825032230
         H           -1.764621207783    -2.534074673271    -0.458373358197     1.007825032230
         H           -1.397155207783     2.322293326729     0.475991641803     1.007825032230
         H           -3.763224207783    -1.277656673271     0.289075641803     1.007825032230
         H           -3.597304207783     1.164716326729     0.751503641803     1.007825032230

  Basis Set: AUG-CC-PVTZ
    Blend: AUG-CC-PVTZ
  Basis Set: (AUG-CC-PVTZ AUX)
    Blend: AUG-CC-PVTZ-JKFIT
	 Reference Energy          =    -514.5935976927448792 [Eh]
	 Singles Energy            =      -0.0000000000000000 [Eh]
	 Same-Spin Energy          =      -0.5583304578132289 [Eh]
	 Opposite-Spin Energy      =      -1.7442861869185844 [Eh]
	 Correlation Energy        =      -2.3026166447318133 [Eh]
	 Total Energy              =    -516.8962143374767493 [Eh]

	 ================> DF-SCS-MP2 Energies <==================
	-----------------------------------------------------------
	 SCS Same-Spin Scale       =       0.3333333333333333 [-]
	 SCS Opposite-Spin Scale   =       1.2000000000000000 [-]
	 SCS Same-Spin Energy      =      -0.1861101526044096 [Eh]
	 SCS Opposite-Spin Energy  =      -2.0931434243023013 [Eh]
	 SCS Correlation Energy    =      -2.2792535769067110 [Eh]
	 SCS Total Energy          =    -516.8728512696516191 [Eh]
	-----------------------------------------------------------

  Dipole Moment: [D]
     X:     0.4294      Y:    -3.5287      Z:     1.6779     Total:     3.9308

*** Psi4 exiting successfully. Buy a developer a beer!
