                               Psi4 1.3.2 release

  ==> Input File <==

--------------------------------------------------------------------------
#psi4
#
memory 32 gb

molecule  {
0 1
  O        0.9417500     2.5148810    -0.6596880
  N        2.0463840     0.6978680     0.1749460
  C        0.7564320    -1.5550710    -0.8733250
  C        1.8157710    -1.7711630     0.2163790
  C       -0.4738667    -0.7919283    -0.3796347
  C        2.0266990    -0.4897580     1.0228720
  C       -0.3650830     0.5850230    -0.0943830
  C        0.9119250     1.3593610    -0.2260870
  C       -1.6913630    -1.4231620    -0.2398970
  C       -1.5035900     1.3035830     0.2885800
  C       -2.8212120    -0.7143780     0.1714760
  C       -2.7281430     0.6547360     0.4326570
  H        0.4383490    -2.5216720    -1.2799980
  H        1.2165960    -1.0011160    -1.6986390
  H        1.5065410    -2.5704870     0.9013410
  H        2.7543720    -2.0878480    -0.2534440
  H        1.2290340    -0.3883270     1.7666860
  H        2.9729880    -0.5259550     1.5704730
  H        2.8793190     1.2773810     0.1528780
  H       -1.7755450    -2.4842720    -0.4701710
  H       -1.4080790     2.3720960     0.4641940
  H       -3.7741480    -1.2278540     0.2772780
  H       -3.6082280     1.2145190     0.7397060
units angstrom
no_reorient  #important for SAPT in psi4, default
symmetry c1  #important for SAPT in psi4, default
}

set PROPERTIES_ORIGIN ["COM"]
properties('MP2/aug-cc-pvtz', properties = ['dipole'])
--------------------------------------------------------------------------

    Molecular point group: c1
  Charge       = 0
  Multiplicity = 1
  Basis Set: AUG-CC-PVTZ
    Blend: AUG-CC-PVTZ
  Basis Set: (AUG-CC-PVTZ AUX)
    Blend: AUG-CC-PVTZ-JKFIT

    Orbital Energies [Eh]
    ---------------------

    Doubly Occupied:

       1A    -20.515505     2A    -15.582711     3A    -11.352167
       4A    -11.275606     5A    -11.256587     6A    -11.249009
       7A    -11.247048     8A    -11.245588     9A    -11.239734
      10A    -11.239719    11A    -11.239435    12A    -11.237521
      13A     -1.369325    14A     -1.234673    15A     -1.165851
      16A     -1.079905    17A     -1.036726    18A     -1.022265
      19A     -0.937574    20A     -0.882013    21A     -0.840231
      22A     -0.798296    23A     -0.777688    24A     -0.697221
      25A     -0.685172    26A     -0.671781    27A     -0.652156
      28A     -0.624024    29A     -0.615579    30A     -0.600176
      31A     -0.586682    32A     -0.576636    33A     -0.556057
      34A     -0.535465    35A     -0.518554    36A     -0.510890
      37A     -0.492768    38A     -0.490611    39A     -0.474591
      40A     -0.424315    41A     -0.389404    42A     -0.344374
      43A     -0.337917

  @DF-RHF Final Energy:  -514.59653049313761

   => Energetics <=

    Nuclear Repulsion Energy =            685.1006821170949479
    One-Electron Energy =               -2058.1753237361058382
    Two-Electron Energy =                 858.4781111258732835
    Total Energy =                       -514.5965304931376068
  Basis Set: (AUG-CC-PVTZ AUX)
    Blend: AUG-CC-PVTZ-RI
    Molecular point group: c1

    Geometry (in Angstrom), charge = 0, multiplicity = 1:

       Center              X                  Y                   Z               Mass
    ------------   -----------------  -----------------  -----------------  -----------------
         O            0.958511855185     2.465969748876    -0.646707590266    15.994914619570
         N            2.063145855185     0.648956748876     0.187926409734    14.003074004430
         C            0.773193855185    -1.603982251124    -0.860344590266    12.000000000000
         C            1.832532855185    -1.820074251124     0.229359409734    12.000000000000
         C           -0.457104844815    -0.840839551124    -0.366654290266    12.000000000000
         C            2.043460855185    -0.538669251124     1.035852409734    12.000000000000
         C           -0.348321144815     0.536111748876    -0.081402590266    12.000000000000
         C            0.928686855185     1.310449748876    -0.213106590266    12.000000000000
         C           -1.674601144815    -1.472073251124    -0.226916590266    12.000000000000
         C           -1.486828144815     1.254671748876     0.301560409734    12.000000000000
         C           -2.804450144815    -0.763289251124     0.184456409734    12.000000000000
         C           -2.711381144815     0.605824748876     0.445637409734    12.000000000000
         H            0.455110855185    -2.570583251124    -1.267017590266     1.007825032230
         H            1.233357855185    -1.050027251124    -1.685658590266     1.007825032230
         H            1.523302855185    -2.619398251124     0.914321409734     1.007825032230
         H            2.771133855185    -2.136759251124    -0.240463590266     1.007825032230
         H            1.245795855185    -0.437238251124     1.779666409734     1.007825032230
         H            2.989749855185    -0.574866251124     1.583453409734     1.007825032230
         H            2.896080855185     1.228469748876     0.165858409734     1.007825032230
         H           -1.758783144815    -2.533183251124    -0.457190590266     1.007825032230
         H           -1.391317144815     2.323184748876     0.477174409734     1.007825032230
         H           -3.757386144815    -1.276765251124     0.290258409734     1.007825032230
         H           -3.591466144815     1.165607748876     0.752686409734     1.007825032230

  Basis Set: AUG-CC-PVTZ
    Blend: AUG-CC-PVTZ
  Basis Set: (AUG-CC-PVTZ AUX)
    Blend: AUG-CC-PVTZ-JKFIT
	 Reference Energy          =    -514.5965304931376068 [Eh]
	 Singles Energy            =      -0.0000000000000000 [Eh]
	 Same-Spin Energy          =      -0.5584038144926939 [Eh]
	 Opposite-Spin Energy      =      -1.7440723280265680 [Eh]
	 Correlation Energy        =      -2.3024761425192617 [Eh]
	 Total Energy              =    -516.8990066356568605 [Eh]

	 ================> DF-SCS-MP2 Energies <==================
	-----------------------------------------------------------
	 SCS Same-Spin Scale       =       0.3333333333333333 [-]
	 SCS Opposite-Spin Scale   =       1.2000000000000000 [-]
	 SCS Same-Spin Energy      =      -0.1861346048308980 [Eh]
	 SCS Opposite-Spin Energy  =      -2.0928867936318816 [Eh]
	 SCS Correlation Energy    =      -2.2790213984627794 [Eh]
	 SCS Total Energy          =    -516.8755518916003666 [Eh]
	-----------------------------------------------------------

  Dipole Moment: [D]
     X:     0.6145      Y:    -3.6003      Z:     1.7752     Total:     4.0609

*** Psi4 exiting successfully. Buy a developer a beer!
