                               Psi4 1.4a3.dev225

  ==> Input File <==

--------------------------------------------------------------------------
#psi4
#
memory 32 gb

molecule  {
0 1
  O        0.9417500     2.5148810    -0.6596880
  N        2.0463840     0.6978680     0.1749460
  C        0.7564320    -1.5550710    -0.8733250
  C        1.8157710    -1.7711630     0.2163790
  C       -0.4497480    -0.7926040    -0.3845090
  C        2.0266990    -0.4897580     1.0228720
  C       -0.3650830     0.5850230    -0.0943830
  C        0.9119250     1.3593610    -0.2260870
  C       -1.6913630    -1.4231620    -0.2398970
  C       -1.5035900     1.3035830     0.2885800
  C       -2.8212120    -0.7143780     0.1714760
  C       -2.7281430     0.6547360     0.4326570
  H        0.4383490    -2.5216720    -1.2799980
  H        1.2376016    -0.9758290    -1.7363130
  H        1.5065410    -2.5704870     0.9013410
  H        2.7543720    -2.0878480    -0.2534440
  H        1.2290340    -0.3883270     1.7666860
  H        2.9729880    -0.5259550     1.5704730
  H        2.8793190     1.2773810     0.1528780
  H       -1.7755450    -2.4842720    -0.4701710
  H       -1.4080790     2.3720960     0.4641940
  H       -3.7741480    -1.2278540     0.2772780
  H       -3.6082280     1.2145190     0.7397060
units angstrom
no_reorient  #important for SAPT in psi4, default
symmetry c1  #important for SAPT in psi4, default
}

set PROPERTIES_ORIGIN ["COM"]
properties('MP2/aug-cc-pvtz', properties = ['dipole'])
--------------------------------------------------------------------------

    Molecular point group: c1
  Charge       = 0
  Multiplicity = 1
  Basis Set: AUG-CC-PVTZ
    Blend: AUG-CC-PVTZ
  Basis Set: (AUG-CC-PVTZ AUX)
    Blend: AUG-CC-PVTZ-JKFIT

    Orbital Energies [Eh]
    ---------------------

    Doubly Occupied:

       1A    -20.515127     2A    -15.582597     3A    -11.351422
       4A    -11.275874     5A    -11.258643     6A    -11.248949
       7A    -11.247286     8A    -11.245621     9A    -11.245095
      10A    -11.242025    11A    -11.239965    12A    -11.238419
      13A     -1.369016    14A     -1.234730    15A     -1.164232
      16A     -1.081204    17A     -1.036856    18A     -1.020829
      19A     -0.936429    20A     -0.881662    21A     -0.841205
      22A     -0.796617    23A     -0.776029    24A     -0.696408
      25A     -0.685739    26A     -0.671517    27A     -0.650854
      28A     -0.623428    29A     -0.615834    30A     -0.600040
      31A     -0.587141    32A     -0.574500    33A     -0.557193
      34A     -0.534369    35A     -0.518399    36A     -0.509841
      37A     -0.493143    38A     -0.487633    39A     -0.477787
      40A     -0.423338    41A     -0.389301    42A     -0.343967
      43A     -0.335983

  @DF-RHF Final Energy:  -514.59442725277427

   => Energetics <=

    Nuclear Repulsion Energy =            684.8879909687220788
    One-Electron Energy =               -2057.7523395332668770
    Two-Electron Energy =                 858.2699213117705312
    Total Energy =                       -514.5944272527742669
  Basis Set: (AUG-CC-PVTZ AUX)
    Blend: AUG-CC-PVTZ-RI
    Molecular point group: c1

    Geometry (in Angstrom), charge = 0, multiplicity = 1:

       Center              X                  Y                   Z               Mass
    ------------   -----------------  -----------------  -----------------  -----------------
         O            0.956583704368     2.465861876805    -0.646108770011    15.994914619570
         N            2.061217704368     0.648848876805     0.188525229989    14.003074004430
         C            0.771265704368    -1.604090123195    -0.859745770011    12.000000000000
         C            1.830604704368    -1.820182123195     0.229958229989    12.000000000000
         C           -0.434914295632    -0.841623123195    -0.370929770011    12.000000000000
         C            2.041532704368    -0.538777123195     1.036451229989    12.000000000000
         C           -0.350249295632     0.536003876805    -0.080803770011    12.000000000000
         C            0.926758704368     1.310341876805    -0.212507770011    12.000000000000
         C           -1.676529295632    -1.472181123195    -0.226317770011    12.000000000000
         C           -1.488756295632     1.254563876805     0.302159229989    12.000000000000
         C           -2.806378295632    -0.763397123195     0.185055229989    12.000000000000
         C           -2.713309295632     0.605716876805     0.446236229989    12.000000000000
         H            0.453182704368    -2.570691123195    -1.266418770011     1.007825032230
         H            1.252435304368    -1.024848123195    -1.722733770011     1.007825032230
         H            1.521374704368    -2.619506123195     0.914920229989     1.007825032230
         H            2.769205704368    -2.136867123195    -0.239864770011     1.007825032230
         H            1.243867704368    -0.437346123195     1.780265229989     1.007825032230
         H            2.987821704368    -0.574974123195     1.584052229989     1.007825032230
         H            2.894152704368     1.228361876805     0.166457229989     1.007825032230
         H           -1.760711295632    -2.533291123195    -0.456591770011     1.007825032230
         H           -1.393245295632     2.323076876805     0.477773229989     1.007825032230
         H           -3.759314295632    -1.276873123195     0.290857229989     1.007825032230
         H           -3.593394295632     1.165499876805     0.753285229989     1.007825032230

  Basis Set: AUG-CC-PVTZ
    Blend: AUG-CC-PVTZ
  Basis Set: (AUG-CC-PVTZ AUX)
    Blend: AUG-CC-PVTZ-JKFIT
	 Reference Energy          =    -514.5944272527742669 [Eh]
	 Singles Energy            =      -0.0000000000000000 [Eh]
	 Same-Spin Energy          =      -0.5587327233773076 [Eh]
	 Opposite-Spin Energy      =      -1.7448060899967348 [Eh]
	 Correlation Energy        =      -2.3035388133740424 [Eh]
	 Total Energy              =    -516.8979660661483422 [Eh]

	 ================> DF-SCS-MP2 Energies <==================
	-----------------------------------------------------------
	 SCS Same-Spin Scale       =       0.3333333333333333 [-]
	 SCS Opposite-Spin Scale   =       1.2000000000000000 [-]
	 SCS Same-Spin Energy      =      -0.1862442411257692 [Eh]
	 SCS Opposite-Spin Energy  =      -2.0937673079960817 [Eh]
	 SCS Correlation Energy    =      -2.2800115491218507 [Eh]
	 SCS Total Energy          =    -516.8744388018960763 [Eh]
	-----------------------------------------------------------

  Dipole Moment: [D]
     X:     0.6205      Y:    -3.6183      Z:     1.7895     Total:     4.0840

*** Psi4 exiting successfully. Buy a developer a beer!
