                               Psi4 1.3.2 release

  ==> Input File <==

--------------------------------------------------------------------------
#psi4
#
memory 32 gb

molecule  {
0 1
  O        0.9417500     2.5148810    -0.6596880
  N        2.0463840     0.6978680     0.1749460
  C        0.7870737    -1.5163456    -0.8941162
  C        1.8157710    -1.7711630     0.2163790
  C       -0.4497480    -0.7926040    -0.3845090
  C        2.0266990    -0.4897580     1.0228720
  C       -0.3650830     0.5850230    -0.0943830
  C        0.9119250     1.3593610    -0.2260870
  C       -1.6913630    -1.4231620    -0.2398970
  C       -1.5035900     1.3035830     0.2885800
  C       -2.8212120    -0.7143780     0.1714760
  C       -2.7281430     0.6547360     0.4326570
  H        0.4383490    -2.5216720    -1.2799980
  H        1.2165960    -1.0011160    -1.6986390
  H        1.5065410    -2.5704870     0.9013410
  H        2.7543720    -2.0878480    -0.2534440
  H        1.2290340    -0.3883270     1.7666860
  H        2.9729880    -0.5259550     1.5704730
  H        2.8793190     1.2773810     0.1528780
  H       -1.7755450    -2.4842720    -0.4701710
  H       -1.4080790     2.3720960     0.4641940
  H       -3.7741480    -1.2278540     0.2772780
  H       -3.6082280     1.2145190     0.7397060
units angstrom
no_reorient  #important for SAPT in psi4, default
symmetry c1  #important for SAPT in psi4, default
}

set PROPERTIES_ORIGIN ["COM"]
properties('MP2/aug-cc-pvtz', properties = ['dipole'])
--------------------------------------------------------------------------

    Molecular point group: c1
  Charge       = 0
  Multiplicity = 1
  Basis Set: AUG-CC-PVTZ
    Blend: AUG-CC-PVTZ
  Basis Set: (AUG-CC-PVTZ AUX)
    Blend: AUG-CC-PVTZ-JKFIT

    Orbital Energies [Eh]
    ---------------------

    Doubly Occupied:

       1A    -20.515353     2A    -15.582841     3A    -11.351582
       4A    -11.275200     5A    -11.258641     6A    -11.249039
       7A    -11.246611     8A    -11.245136     9A    -11.242494
      10A    -11.239941    11A    -11.239322    12A    -11.238073
      13A     -1.369266    14A     -1.235157    15A     -1.163722
      16A     -1.081669    17A     -1.036858    18A     -1.020253
      19A     -0.938645    20A     -0.880766    21A     -0.841708
      22A     -0.799082    23A     -0.776517    24A     -0.697530
      25A     -0.684574    26A     -0.672821    27A     -0.653890
      28A     -0.621953    29A     -0.616198    30A     -0.599845
      31A     -0.587132    32A     -0.578428    33A     -0.553826
      34A     -0.538573    35A     -0.520259    36A     -0.509986
      37A     -0.495604    38A     -0.484698    39A     -0.476305
      40A     -0.423660    41A     -0.389652    42A     -0.343793
      43A     -0.336925

  @DF-RHF Final Energy:  -514.59323164498630

   => Energetics <=

    Nuclear Repulsion Energy =            685.2283878731439017
    One-Electron Energy =               -2058.4161810148225413
    Two-Electron Energy =                 858.5945614966923358
    Total Energy =                       -514.5932316449863038
  Basis Set: (AUG-CC-PVTZ AUX)
    Blend: AUG-CC-PVTZ-RI
    Molecular point group: c1

    Geometry (in Angstrom), charge = 0, multiplicity = 1:

       Center              X                  Y                   Z               Mass
    ------------   -----------------  -----------------  -----------------  -----------------
         O            0.954432464687     2.463135226399    -0.644795632048    15.994914619570
         N            2.059066464687     0.646122226399     0.189838367952    14.003074004430
         C            0.799756164687    -1.568091373601    -0.879223832048    12.000000000000
         C            1.828453464687    -1.822908773601     0.231271367952    12.000000000000
         C           -0.437065535313    -0.844349773601    -0.369616632048    12.000000000000
         C            2.039381464687    -0.541503773601     1.037764367952    12.000000000000
         C           -0.352400535313     0.533277226399    -0.079490632048    12.000000000000
         C            0.924607464687     1.307615226399    -0.211194632048    12.000000000000
         C           -1.678680535313    -1.474907773601    -0.225004632048    12.000000000000
         C           -1.490907535313     1.251837226399     0.303472367952    12.000000000000
         C           -2.808529535313    -0.766123773601     0.186368367952    12.000000000000
         C           -2.715460535313     0.602990226399     0.447549367952    12.000000000000
         H            0.451031464687    -2.573417773601    -1.265105632048     1.007825032230
         H            1.229278464687    -1.052861773601    -1.683746632048     1.007825032230
         H            1.519223464687    -2.622232773601     0.916233367952     1.007825032230
         H            2.767054464687    -2.139593773601    -0.238551632048     1.007825032230
         H            1.241716464687    -0.440072773601     1.781578367952     1.007825032230
         H            2.985670464687    -0.577700773601     1.585365367952     1.007825032230
         H            2.892001464687     1.225635226399     0.167770367952     1.007825032230
         H           -1.762862535313    -2.536017773601    -0.455278632048     1.007825032230
         H           -1.395396535313     2.320350226399     0.479086367952     1.007825032230
         H           -3.761465535313    -1.279599773601     0.292170367952     1.007825032230
         H           -3.595545535313     1.162773226399     0.754598367952     1.007825032230

  Basis Set: AUG-CC-PVTZ
    Blend: AUG-CC-PVTZ
  Basis Set: (AUG-CC-PVTZ AUX)
    Blend: AUG-CC-PVTZ-JKFIT
	 Reference Energy          =    -514.5932316449863038 [Eh]
	 Singles Energy            =      -0.0000000000000000 [Eh]
	 Same-Spin Energy          =      -0.5586736578571279 [Eh]
	 Opposite-Spin Energy      =      -1.7445722782784681 [Eh]
	 Correlation Energy        =      -2.3032459361355961 [Eh]
	 Total Energy              =    -516.8964775811218715 [Eh]

	 ================> DF-SCS-MP2 Energies <==================
	-----------------------------------------------------------
	 SCS Same-Spin Scale       =       0.3333333333333333 [-]
	 SCS Opposite-Spin Scale   =       1.2000000000000000 [-]
	 SCS Same-Spin Energy      =      -0.1862245526190426 [Eh]
	 SCS Opposite-Spin Energy  =      -2.0934867339341614 [Eh]
	 SCS Correlation Energy    =      -2.2797112865532041 [Eh]
	 SCS Total Energy          =    -516.8729429315394555 [Eh]
	-----------------------------------------------------------

  Dipole Moment: [D]
     X:     0.6302      Y:    -3.5902      Z:     1.7652     Total:     4.0500

*** Psi4 exiting successfully. Buy a developer a beer!
