                               Psi4 1.3.2 release

  ==> Input File <==

--------------------------------------------------------------------------
#psi4
#
memory 32 gb

molecule  {
0 1
  O        0.9417500     2.5148810    -0.6596880
  N        2.0463840     0.6978680     0.1749460
  C        0.7564320    -1.5550710    -0.8733250
  C        1.8157710    -1.7711630     0.2163790
  C       -0.4497480    -0.7926040    -0.3845090
  C        2.0266990    -0.4897580     1.0228720
  C       -0.3650830     0.5850230    -0.0943830
  C        0.9119250     1.3593610    -0.2260870
  C       -1.6913630    -1.4231620    -0.2398970
  C       -1.3409124     1.2009103     0.2338597
  C       -2.8212120    -0.7143780     0.1714760
  C       -2.7281430     0.6547360     0.4326570
  H        0.4383490    -2.5216720    -1.2799980
  H        1.2165960    -1.0011160    -1.6986390
  H        1.5065410    -2.5704870     0.9013410
  H        2.7543720    -2.0878480    -0.2534440
  H        1.2290340    -0.3883270     1.7666860
  H        2.9729880    -0.5259550     1.5704730
  H        2.8793190     1.2773810     0.1528780
  H       -1.7755450    -2.4842720    -0.4701710
  H       -1.4080790     2.3720960     0.4641940
  H       -3.7741480    -1.2278540     0.2772780
  H       -3.6082280     1.2145190     0.7397060
units angstrom
no_reorient  #important for SAPT in psi4, default
symmetry c1  #important for SAPT in psi4, default
}

set PROPERTIES_ORIGIN ["COM"]
properties('MP2/aug-cc-pvtz', properties = ['dipole'])
--------------------------------------------------------------------------

    Molecular point group: c1
  Charge       = 0
  Multiplicity = 1
  Basis Set: AUG-CC-PVTZ
    Blend: AUG-CC-PVTZ
  Basis Set: (AUG-CC-PVTZ AUX)
    Blend: AUG-CC-PVTZ-JKFIT

    Orbital Energies [Eh]
    ---------------------

    Doubly Occupied:

       1A    -20.516401     2A    -15.583819     3A    -11.352351
       4A    -11.277289     5A    -11.257248     6A    -11.248664
       7A    -11.245093     8A    -11.239258     9A    -11.239081
      10A    -11.238823    11A    -11.238060    12A    -11.223470
      13A     -1.370787    14A     -1.236561    15A     -1.180971
      16A     -1.082226    17A     -1.058861    18A     -1.012670
      19A     -0.937032    20A     -0.874027    21A     -0.846306
      22A     -0.802984    23A     -0.775944    24A     -0.700236
      25A     -0.687752    26A     -0.664101    27A     -0.652938
      28A     -0.626273    29A     -0.618239    30A     -0.602144
      31A     -0.586909    32A     -0.571444    33A     -0.557482
      34A     -0.539971    35A     -0.523730    36A     -0.501632
      37A     -0.493941    38A     -0.482639    39A     -0.466956
      40A     -0.422292    41A     -0.389931    42A     -0.372954
      43A     -0.320950

  @DF-RHF Final Energy:  -514.53550493320029

   => Energetics <=

    Nuclear Repulsion Energy =            688.8996550048254903
    One-Electron Energy =               -2065.6294330666351016
    Two-Electron Energy =                 862.1942731286093249
    Total Energy =                       -514.5355049332002864
  Basis Set: (AUG-CC-PVTZ AUX)
    Blend: AUG-CC-PVTZ-RI
    Molecular point group: c1

    Geometry (in Angstrom), charge = 0, multiplicity = 1:

       Center              X                  Y                   Z               Mass
    ------------   -----------------  -----------------  -----------------  -----------------
         O            0.944596415354     2.473668715300    -0.642268074759    15.994914619570
         N            2.049230415354     0.656655715300     0.192365925241    14.003074004430
         C            0.759278415354    -1.596283284700    -0.855905074759    12.000000000000
         C            1.818617415354    -1.812375284700     0.233798925241    12.000000000000
         C           -0.446901584646    -0.833816284700    -0.367089074759    12.000000000000
         C            2.029545415354    -0.530970284700     1.040291925241    12.000000000000
         C           -0.362236584646     0.543810715300    -0.076963074759    12.000000000000
         C            0.914771415354     1.318148715300    -0.208667074759    12.000000000000
         C           -1.688516584646    -1.464374284700    -0.222477074759    12.000000000000
         C           -1.338065984646     1.159698015300     0.251279625241    12.000000000000
         C           -2.818365584646    -0.755590284700     0.188895925241    12.000000000000
         C           -2.725296584646     0.613523715300     0.450076925241    12.000000000000
         H            0.441195415354    -2.562884284700    -1.262578074759     1.007825032230
         H            1.219442415354    -1.042328284700    -1.681219074759     1.007825032230
         H            1.509387415354    -2.611699284700     0.918760925241     1.007825032230
         H            2.757218415354    -2.129060284700    -0.236024074759     1.007825032230
         H            1.231880415354    -0.429539284700     1.784105925241     1.007825032230
         H            2.975834415354    -0.567167284700     1.587892925241     1.007825032230
         H            2.882165415354     1.236168715300     0.170297925241     1.007825032230
         H           -1.772698584646    -2.525484284700    -0.452751074759     1.007825032230
         H           -1.405232584646     2.330883715300     0.481613925241     1.007825032230
         H           -3.771301584646    -1.269066284700     0.294697925241     1.007825032230
         H           -3.605381584646     1.173306715300     0.757125925241     1.007825032230

  Basis Set: AUG-CC-PVTZ
    Blend: AUG-CC-PVTZ
  Basis Set: (AUG-CC-PVTZ AUX)
    Blend: AUG-CC-PVTZ-JKFIT
	 Reference Energy          =    -514.5355049332002864 [Eh]
	 Singles Energy            =      -0.0000000000000000 [Eh]
	 Same-Spin Energy          =      -0.5580539104966846 [Eh]
	 Opposite-Spin Energy      =      -1.7461114807031963 [Eh]
	 Correlation Energy        =      -2.3041653911998807 [Eh]
	 Total Energy              =    -516.8396703244001174 [Eh]

	 ================> DF-SCS-MP2 Energies <==================
	-----------------------------------------------------------
	 SCS Same-Spin Scale       =       0.3333333333333333 [-]
	 SCS Opposite-Spin Scale   =       1.2000000000000000 [-]
	 SCS Same-Spin Energy      =      -0.1860179701655615 [Eh]
	 SCS Opposite-Spin Energy  =      -2.0953337768438356 [Eh]
	 SCS Correlation Energy    =      -2.2813517470093974 [Eh]
	 SCS Total Energy          =    -516.8168566802096393 [Eh]
	-----------------------------------------------------------

  Dipole Moment: [D]
     X:     0.6528      Y:    -3.5970      Z:     1.7687     Total:     4.0611

*** Psi4 exiting successfully. Buy a developer a beer!
