                               Psi4 1.4a3.dev225

  ==> Input File <==

--------------------------------------------------------------------------
#psi4
#
memory 32 gb

molecule  {
0 1
  O        0.9417500     2.5148810    -0.6596880
  N        2.0463840     0.6978680     0.1749460
  C        0.7564320    -1.5550710    -0.8733250
  C        1.8157710    -1.7711630     0.2163790
  C       -0.4497480    -0.7926040    -0.3845090
  C        2.0294586    -0.4729934     1.0334234
  C       -0.3650830     0.5850230    -0.0943830
  C        0.9119250     1.3593610    -0.2260870
  C       -1.6913630    -1.4231620    -0.2398970
  C       -1.5035900     1.3035830     0.2885800
  C       -2.8212120    -0.7143780     0.1714760
  C       -2.7281430     0.6547360     0.4326570
  H        0.4383490    -2.5216720    -1.2799980
  H        1.2165960    -1.0011160    -1.6986390
  H        1.5065410    -2.5704870     0.9013410
  H        2.7543720    -2.0878480    -0.2534440
  H        1.2290340    -0.3883270     1.7666860
  H        2.9729880    -0.5259550     1.5704730
  H        2.8793190     1.2773810     0.1528780
  H       -1.7755450    -2.4842720    -0.4701710
  H       -1.4080790     2.3720960     0.4641940
  H       -3.7741480    -1.2278540     0.2772780
  H       -3.6082280     1.2145190     0.7397060
units angstrom
no_reorient  #important for SAPT in psi4, default
symmetry c1  #important for SAPT in psi4, default
}

set PROPERTIES_ORIGIN ["COM"]
properties('MP2/aug-cc-pvtz', properties = ['dipole'])
--------------------------------------------------------------------------

    Molecular point group: c1
  Charge       = 0
  Multiplicity = 1
  Basis Set: AUG-CC-PVTZ
    Blend: AUG-CC-PVTZ
  Basis Set: (AUG-CC-PVTZ AUX)
    Blend: AUG-CC-PVTZ-JKFIT

    Orbital Energies [Eh]
    ---------------------

    Doubly Occupied:

       1A    -20.515692     2A    -15.582974     3A    -11.351929
       4A    -11.274895     5A    -11.258288     6A    -11.248863
       7A    -11.247247     8A    -11.245629     9A    -11.241697
      10A    -11.239823    11A    -11.239061    12A    -11.238093
      13A     -1.369620    14A     -1.236289    15A     -1.164318
      16A     -1.080749    17A     -1.036548    18A     -1.019316
      19A     -0.938431    20A     -0.881892    21A     -0.841452
      22A     -0.798121    23A     -0.776851    24A     -0.697264
      25A     -0.686561    26A     -0.671915    27A     -0.653273
      28A     -0.622930    29A     -0.615636    30A     -0.599075
      31A     -0.587606    32A     -0.576579    33A     -0.557120
      34A     -0.537089    35A     -0.518955    36A     -0.508968
      37A     -0.492357    38A     -0.489194    39A     -0.478657
      40A     -0.423956    41A     -0.388633    42A     -0.343975
      43A     -0.336084

  @DF-RHF Final Energy:  -514.59653245900779

   => Energetics <=

    Nuclear Repulsion Energy =            684.9975431095709837
    One-Electron Energy =               -2057.9609364751790963
    Two-Electron Energy =                 858.3668609066004365
    Total Energy =                       -514.5965324590077898
  Basis Set: (AUG-CC-PVTZ AUX)
    Blend: AUG-CC-PVTZ-RI
    Molecular point group: c1

    Geometry (in Angstrom), charge = 0, multiplicity = 1:

       Center              X                  Y                   Z               Mass
    ------------   -----------------  -----------------  -----------------  -----------------
         O            0.956509549109     2.464771202010    -0.647130507334    15.994914619570
         N            2.061143549109     0.647758202010     0.187503492666    14.003074004430
         C            0.771191549109    -1.605180797990    -0.860767507334    12.000000000000
         C            1.830530549109    -1.821272797990     0.228936492666    12.000000000000
         C           -0.434988450891    -0.842713797990    -0.371951507334    12.000000000000
         C            2.044218149109    -0.523103197990     1.045980892666    12.000000000000
         C           -0.350323450891     0.534913202010    -0.081825507334    12.000000000000
         C            0.926684549109     1.309251202010    -0.213529507334    12.000000000000
         C           -1.676603450891    -1.473271797990    -0.227339507334    12.000000000000
         C           -1.488830450891     1.253473202010     0.301137492666    12.000000000000
         C           -2.806452450891    -0.764487797990     0.184033492666    12.000000000000
         C           -2.713383450891     0.604626202010     0.445214492666    12.000000000000
         H            0.453108549109    -2.571781797990    -1.267440507334     1.007825032230
         H            1.231355549109    -1.051225797990    -1.686081507334     1.007825032230
         H            1.521300549109    -2.620596797990     0.913898492666     1.007825032230
         H            2.769131549109    -2.137957797990    -0.240886507334     1.007825032230
         H            1.243793549109    -0.438436797990     1.779243492666     1.007825032230
         H            2.987747549109    -0.576064797990     1.583030492666     1.007825032230
         H            2.894078549109     1.227271202010     0.165435492666     1.007825032230
         H           -1.760785450891    -2.534381797990    -0.457613507334     1.007825032230
         H           -1.393319450891     2.321986202010     0.476751492666     1.007825032230
         H           -3.759388450891    -1.277963797990     0.289835492666     1.007825032230
         H           -3.593468450891     1.164409202010     0.752263492666     1.007825032230

  Basis Set: AUG-CC-PVTZ
    Blend: AUG-CC-PVTZ
  Basis Set: (AUG-CC-PVTZ AUX)
    Blend: AUG-CC-PVTZ-JKFIT
	 Reference Energy          =    -514.5965324590077898 [Eh]
	 Singles Energy            =      -0.0000000000000000 [Eh]
	 Same-Spin Energy          =      -0.5585519147976423 [Eh]
	 Opposite-Spin Energy      =      -1.7442695128320709 [Eh]
	 Correlation Energy        =      -2.3028214276297132 [Eh]
	 Total Energy              =    -516.8993538866375275 [Eh]

	 ================> DF-SCS-MP2 Energies <==================
	-----------------------------------------------------------
	 SCS Same-Spin Scale       =       0.3333333333333333 [-]
	 SCS Opposite-Spin Scale   =       1.2000000000000000 [-]
	 SCS Same-Spin Energy      =      -0.1861839715992141 [Eh]
	 SCS Opposite-Spin Energy  =      -2.0931234153984848 [Eh]
	 SCS Correlation Energy    =      -2.2793073869976990 [Eh]
	 SCS Total Energy          =    -516.8758398460055332 [Eh]
	-----------------------------------------------------------

  Dipole Moment: [D]
     X:     0.6266      Y:    -3.5783      Z:     1.7711     Total:     4.0415

*** Psi4 exiting successfully. Buy a developer a beer!
