                               Psi4 1.3.2 release

  ==> Input File <==

--------------------------------------------------------------------------
#psi4
#
memory 32 gb

molecule  {
0 1
  O        0.9417500     2.5148810    -0.6596880
  N        2.0463840     0.6978680     0.1749460
  C        0.7564320    -1.5550710    -0.8733250
  C        1.8157710    -1.7711630     0.2163790
  C       -0.4497480    -0.7926040    -0.3845090
  C        2.0266990    -0.4897580     1.0228720
  C       -0.3650830     0.5850230    -0.0943830
  C        0.8991597     1.3811412    -0.2192066
  C       -1.6913630    -1.4231620    -0.2398970
  C       -1.5035900     1.3035830     0.2885800
  C       -2.8212120    -0.7143780     0.1714760
  C       -2.7281430     0.6547360     0.4326570
  H        0.4383490    -2.5216720    -1.2799980
  H        1.2165960    -1.0011160    -1.6986390
  H        1.5065410    -2.5704870     0.9013410
  H        2.7543720    -2.0878480    -0.2534440
  H        1.2290340    -0.3883270     1.7666860
  H        2.9729880    -0.5259550     1.5704730
  H        2.8793190     1.2773810     0.1528780
  H       -1.7755450    -2.4842720    -0.4701710
  H       -1.4080790     2.3720960     0.4641940
  H       -3.7741480    -1.2278540     0.2772780
  H       -3.6082280     1.2145190     0.7397060
units angstrom
no_reorient  #important for SAPT in psi4, default
symmetry c1  #important for SAPT in psi4, default
}

set PROPERTIES_ORIGIN ["COM"]
properties('MP2/aug-cc-pvtz', properties = ['dipole'])
--------------------------------------------------------------------------

    Molecular point group: c1
  Charge       = 0
  Multiplicity = 1
  Basis Set: AUG-CC-PVTZ
    Blend: AUG-CC-PVTZ
  Basis Set: (AUG-CC-PVTZ AUX)
    Blend: AUG-CC-PVTZ-JKFIT

    Orbital Energies [Eh]
    ---------------------

    Doubly Occupied:

       1A    -20.519710     2A    -15.578891     3A    -11.351766
       4A    -11.273663     5A    -11.258617     6A    -11.248855
       7A    -11.246974     8A    -11.245438     9A    -11.241873
      10A    -11.239807    11A    -11.238409    12A    -11.236473
      13A     -1.380415    14A     -1.230445    15A     -1.163847
      16A     -1.080896    17A     -1.036884    18A     -1.019633
      19A     -0.936191    20A     -0.880439    21A     -0.840127
      22A     -0.797967    23A     -0.773892    24A     -0.695501
      25A     -0.684514    26A     -0.672076    27A     -0.652233
      28A     -0.625008    29A     -0.614816    30A     -0.599906
      31A     -0.589890    32A     -0.576181    33A     -0.558234
      34A     -0.535155    35A     -0.519461    36A     -0.511315
      37A     -0.492373    38A     -0.489496    39A     -0.478336
      40A     -0.425148    41A     -0.388883    42A     -0.344339
      43A     -0.336056

  @DF-RHF Final Energy:  -514.59694353489658

   => Energetics <=

    Nuclear Repulsion Energy =            685.0310967653139187
    One-Electron Energy =               -2058.0358140547336916
    Two-Electron Energy =                 858.4077737545230775
    Total Energy =                       -514.5969435348965817
  Basis Set: (AUG-CC-PVTZ AUX)
    Blend: AUG-CC-PVTZ-RI
    Molecular point group: c1

    Geometry (in Angstrom), charge = 0, multiplicity = 1:

       Center              X                  Y                   Z               Mass
    ------------   -----------------  -----------------  -----------------  -----------------
         O            0.957666080646     2.464397563560    -0.646857035217    15.994914619570
         N            2.062300080646     0.647384563560     0.187776964783    14.003074004430
         C            0.772348080646    -1.605554436440    -0.860494035217    12.000000000000
         C            1.831687080646    -1.821646436440     0.229209964783    12.000000000000
         C           -0.433831919354    -0.843087436440    -0.371678035217    12.000000000000
         C            2.042615080646    -0.540241436440     1.035702964783    12.000000000000
         C           -0.349166919354     0.534539563560    -0.081552035217    12.000000000000
         C            0.915075780646     1.330657763560    -0.206375635217    12.000000000000
         C           -1.675446919354    -1.473645436440    -0.227066035217    12.000000000000
         C           -1.487673919354     1.253099563560     0.301410964783    12.000000000000
         C           -2.805295919354    -0.764861436440     0.184306964783    12.000000000000
         C           -2.712226919354     0.604252563560     0.445487964783    12.000000000000
         H            0.454265080646    -2.572155436440    -1.267167035217     1.007825032230
         H            1.232512080646    -1.051599436440    -1.685808035217     1.007825032230
         H            1.522457080646    -2.620970436440     0.914171964783     1.007825032230
         H            2.770288080646    -2.138331436440    -0.240613035217     1.007825032230
         H            1.244950080646    -0.438810436440     1.779516964783     1.007825032230
         H            2.988904080646    -0.576438436440     1.583303964783     1.007825032230
         H            2.895235080646     1.226897563560     0.165708964783     1.007825032230
         H           -1.759628919354    -2.534755436440    -0.457340035217     1.007825032230
         H           -1.392162919354     2.321612563560     0.477024964783     1.007825032230
         H           -3.758231919354    -1.278337436440     0.290108964783     1.007825032230
         H           -3.592311919354     1.164035563560     0.752536964783     1.007825032230

  Basis Set: AUG-CC-PVTZ
    Blend: AUG-CC-PVTZ
  Basis Set: (AUG-CC-PVTZ AUX)
    Blend: AUG-CC-PVTZ-JKFIT
	 Reference Energy          =    -514.5969435348965817 [Eh]
	 Singles Energy            =      -0.0000000000000000 [Eh]
	 Same-Spin Energy          =      -0.5583400392457230 [Eh]
	 Opposite-Spin Energy      =      -1.7438374570318698 [Eh]
	 Correlation Energy        =      -2.3021774962775927 [Eh]
	 Total Energy              =    -516.8991210311742179 [Eh]

	 ================> DF-SCS-MP2 Energies <==================
	-----------------------------------------------------------
	 SCS Same-Spin Scale       =       0.3333333333333333 [-]
	 SCS Opposite-Spin Scale   =       1.2000000000000000 [-]
	 SCS Same-Spin Energy      =      -0.1861133464152410 [Eh]
	 SCS Opposite-Spin Energy  =      -2.0926049484382436 [Eh]
	 SCS Correlation Energy    =      -2.2787182948534848 [Eh]
	 SCS Total Energy          =    -516.8756618297500154 [Eh]
	-----------------------------------------------------------

  Dipole Moment: [D]
     X:     0.5360      Y:    -3.4648      Z:     1.7095     Total:     3.9006

*** Psi4 exiting successfully. Buy a developer a beer!
