                               Psi4 1.3.2 release

  ==> Input File <==

--------------------------------------------------------------------------
#psi4
#
memory 32 gb

molecule  {
0 1
  O        0.9417500     2.5148810    -0.6596880
  N        2.0463840     0.6978680     0.1749460
  C        0.7564320    -1.5550710    -0.8733250
  C        1.8157710    -1.7711630     0.2163790
  C       -0.4258129    -0.7926445    -0.3902571
  C        2.0266990    -0.4897580     1.0228720
  C       -0.3650830     0.5850230    -0.0943830
  C        0.9119250     1.3593610    -0.2260870
  C       -1.6913630    -1.4231620    -0.2398970
  C       -1.5035900     1.3035830     0.2885800
  C       -2.8212120    -0.7143780     0.1714760
  C       -2.7281430     0.6547360     0.4326570
  H        0.4383490    -2.5216720    -1.2799980
  H        1.2165960    -1.0011160    -1.6986390
  H        1.5065410    -2.5704870     0.9013410
  H        2.7543720    -2.0878480    -0.2534440
  H        1.2290340    -0.3883270     1.7666860
  H        2.9729880    -0.5259550     1.5704730
  H        2.8793190     1.2773810     0.1528780
  H       -1.7755450    -2.4842720    -0.4701710
  H       -1.4080790     2.3720960     0.4641940
  H       -3.7741480    -1.2278540     0.2772780
  H       -3.6082280     1.2145190     0.7397060
units angstrom
no_reorient  #important for SAPT in psi4, default
symmetry c1  #important for SAPT in psi4, default
}

set PROPERTIES_ORIGIN ["COM"]
properties('MP2/aug-cc-pvtz', properties = ['dipole'])
--------------------------------------------------------------------------

    Molecular point group: c1
  Charge       = 0
  Multiplicity = 1
  Basis Set: AUG-CC-PVTZ
    Blend: AUG-CC-PVTZ
  Basis Set: (AUG-CC-PVTZ AUX)
    Blend: AUG-CC-PVTZ-JKFIT

    Orbital Energies [Eh]
    ---------------------

    Doubly Occupied:

       1A    -20.514800     2A    -15.582765     3A    -11.350772
       4A    -11.275990     5A    -11.259994     6A    -11.248618
       7A    -11.247364     8A    -11.245471     9A    -11.243943
      10A    -11.239903    11A    -11.239031    12A    -11.238331
      13A     -1.368810    14A     -1.235044    15A     -1.162756
      16A     -1.084767    17A     -1.036914    18A     -1.019036
      19A     -0.939156    20A     -0.881170    21A     -0.842313
      22A     -0.798219    23A     -0.775100    24A     -0.696469
      25A     -0.686191    26A     -0.672511    27A     -0.652995
      28A     -0.623357    29A     -0.616176    30A     -0.599622
      31A     -0.587704    32A     -0.575929    33A     -0.558011
      34A     -0.536358    35A     -0.519006    36A     -0.508797
      37A     -0.493330    38A     -0.489143    39A     -0.481097
      40A     -0.422380    41A     -0.389505    42A     -0.343892
      43A     -0.333819

  @DF-RHF Final Energy:  -514.59527518333039

   => Energetics <=

    Nuclear Repulsion Energy =            685.1524769831597723
    One-Electron Energy =               -2058.2623867391844215
    Two-Electron Energy =                 858.5146345726941490
    Total Energy =                       -514.5952751833303864
  Basis Set: (AUG-CC-PVTZ AUX)
    Blend: AUG-CC-PVTZ-RI
    Molecular point group: c1

    Geometry (in Angstrom), charge = 0, multiplicity = 1:

       Center              X                  Y                   Z               Mass
    ------------   -----------------  -----------------  -----------------  -----------------
         O            0.954932074630     2.466023102385    -0.645916271765    15.994914619570
         N            2.059566074630     0.649010102385     0.188717728235    14.003074004430
         C            0.769614074630    -1.603928897615    -0.859553271765    12.000000000000
         C            1.828953074630    -1.820020897615     0.230150728235    12.000000000000
         C           -0.412630825370    -0.841502397615    -0.376485371765    12.000000000000
         C            2.039881074630    -0.538615897615     1.036643728235    12.000000000000
         C           -0.351900925370     0.536165102385    -0.080611271765    12.000000000000
         C            0.925107074630     1.310503102385    -0.212315271765    12.000000000000
         C           -1.678180925370    -1.472019897615    -0.226125271765    12.000000000000
         C           -1.490407925370     1.254725102385     0.302351728235    12.000000000000
         C           -2.808029925370    -0.763235897615     0.185247728235    12.000000000000
         C           -2.714960925370     0.605878102385     0.446428728235    12.000000000000
         H            0.451531074630    -2.570529897615    -1.266226271765     1.007825032230
         H            1.229778074630    -1.049973897615    -1.684867271765     1.007825032230
         H            1.519723074630    -2.619344897615     0.915112728235     1.007825032230
         H            2.767554074630    -2.136705897615    -0.239672271765     1.007825032230
         H            1.242216074630    -0.437184897615     1.780457728235     1.007825032230
         H            2.986170074630    -0.574812897615     1.584244728235     1.007825032230
         H            2.892501074630     1.228523102385     0.166649728235     1.007825032230
         H           -1.762362925370    -2.533129897615    -0.456399271765     1.007825032230
         H           -1.394896925370     2.323238102385     0.477965728235     1.007825032230
         H           -3.760965925370    -1.276711897615     0.291049728235     1.007825032230
         H           -3.595045925370     1.165661102385     0.753477728235     1.007825032230

  Basis Set: AUG-CC-PVTZ
    Blend: AUG-CC-PVTZ
  Basis Set: (AUG-CC-PVTZ AUX)
    Blend: AUG-CC-PVTZ-JKFIT
	 Reference Energy          =    -514.5952751833303864 [Eh]
	 Singles Energy            =      -0.0000000000000000 [Eh]
	 Same-Spin Energy          =      -0.5589268871744385 [Eh]
	 Opposite-Spin Energy      =      -1.7447760036851450 [Eh]
	 Correlation Energy        =      -2.3037028908595834 [Eh]
	 Total Energy              =    -516.8989780741899267 [Eh]

	 ================> DF-SCS-MP2 Energies <==================
	-----------------------------------------------------------
	 SCS Same-Spin Scale       =       0.3333333333333333 [-]
	 SCS Opposite-Spin Scale   =       1.2000000000000000 [-]
	 SCS Same-Spin Energy      =      -0.1863089623914795 [Eh]
	 SCS Opposite-Spin Energy  =      -2.0937312044221739 [Eh]
	 SCS Correlation Energy    =      -2.2800401668136532 [Eh]
	 SCS Total Energy          =    -516.8753153501440920 [Eh]
	-----------------------------------------------------------

  Dipole Moment: [D]
     X:     0.6464      Y:    -3.6311      Z:     1.7630     Total:     4.0879

*** Psi4 exiting successfully. Buy a developer a beer!
