                               Psi4 1.4a3.dev225

  ==> Input File <==

--------------------------------------------------------------------------
#psi4
#
memory 32 gb

molecule  {
0 1
  O        0.9417500     2.5148810    -0.6596880
  N        2.0463840     0.6978680     0.1749460
  C        0.7564320    -1.5550710    -0.8733250
  C        1.8157710    -1.7711630     0.2163790
  C       -0.4497480    -0.7926040    -0.3845090
  C        2.0266990    -0.4897580     1.0228720
  C       -0.3650830     0.5850230    -0.0943830
  C        0.9545138     1.3851855    -0.2304794
  C       -1.6913630    -1.4231620    -0.2398970
  C       -1.5035900     1.3035830     0.2885800
  C       -2.8212120    -0.7143780     0.1714760
  C       -2.7281430     0.6547360     0.4326570
  H        0.4383490    -2.5216720    -1.2799980
  H        1.2165960    -1.0011160    -1.6986390
  H        1.5065410    -2.5704870     0.9013410
  H        2.7543720    -2.0878480    -0.2534440
  H        1.2290340    -0.3883270     1.7666860
  H        2.9729880    -0.5259550     1.5704730
  H        2.8793190     1.2773810     0.1528780
  H       -1.7755450    -2.4842720    -0.4701710
  H       -1.4080790     2.3720960     0.4641940
  H       -3.7741480    -1.2278540     0.2772780
  H       -3.6082280     1.2145190     0.7397060
units angstrom
no_reorient  #important for SAPT in psi4, default
symmetry c1  #important for SAPT in psi4, default
}

set PROPERTIES_ORIGIN ["COM"]
properties('MP2/aug-cc-pvtz', properties = ['dipole'])
--------------------------------------------------------------------------

    Molecular point group: c1
  Charge       = 0
  Multiplicity = 1
  Basis Set: AUG-CC-PVTZ
    Blend: AUG-CC-PVTZ
  Basis Set: (AUG-CC-PVTZ AUX)
    Blend: AUG-CC-PVTZ-JKFIT

    Orbital Energies [Eh]
    ---------------------

    Doubly Occupied:

       1A    -20.518299     2A    -15.584922     3A    -11.350471
       4A    -11.278490     5A    -11.254231     6A    -11.245747
       7A    -11.245024     8A    -11.241750     9A    -11.239364
      10A    -11.238622    11A    -11.237999    12A    -11.237446
      13A     -1.386183    14A     -1.244041    15A     -1.160680
      16A     -1.082419    17A     -1.029958    18A     -1.019513
      19A     -0.939712    20A     -0.874767    21A     -0.840139
      22A     -0.796306    23A     -0.775940    24A     -0.693477
      25A     -0.688917    26A     -0.670802    27A     -0.653678
      28A     -0.624427    29A     -0.616869    30A     -0.598910
      31A     -0.590364    32A     -0.575963    33A     -0.560476
      34A     -0.535564    35A     -0.520308    36A     -0.509314
      37A     -0.492447    38A     -0.489063    39A     -0.478288
      40A     -0.420563    41A     -0.395164    42A     -0.340516
      43A     -0.333445

  @DF-RHF Final Energy:  -514.59663152850112

   => Energetics <=

    Nuclear Repulsion Energy =            684.8572933327509418
    One-Electron Energy =               -2057.6866953155158626
    Two-Electron Energy =                 858.2327704542638003
    Total Energy =                       -514.5966315285011206
  Basis Set: (AUG-CC-PVTZ AUX)
    Blend: AUG-CC-PVTZ-RI
    Molecular point group: c1

    Geometry (in Angstrom), charge = 0, multiplicity = 1:

       Center              X                  Y                   Z               Mass
    ------------   -----------------  -----------------  -----------------  -----------------
         O            0.953542462309     2.464096282361    -0.646017264996    15.994914619570
         N            2.058176462309     0.647083282361     0.188616735004    14.003074004430
         C            0.768224462309    -1.605855717639    -0.859654264996    12.000000000000
         C            1.827563462309    -1.821947717639     0.230049735004    12.000000000000
         C           -0.437955537691    -0.843388717639    -0.370838264996    12.000000000000
         C            2.038491462309    -0.540542717639     1.036542735004    12.000000000000
         C           -0.353290537691     0.534238282361    -0.080712264996    12.000000000000
         C            0.966306262309     1.334400782361    -0.216808664996    12.000000000000
         C           -1.679570537691    -1.473946717639    -0.226226264996    12.000000000000
         C           -1.491797537691     1.252798282361     0.302250735004    12.000000000000
         C           -2.809419537691    -0.765162717639     0.185146735004    12.000000000000
         C           -2.716350537691     0.603951282361     0.446327735004    12.000000000000
         H            0.450141462309    -2.572456717639    -1.266327264996     1.007825032230
         H            1.228388462309    -1.051900717639    -1.684968264996     1.007825032230
         H            1.518333462309    -2.621271717639     0.915011735004     1.007825032230
         H            2.766164462309    -2.138632717639    -0.239773264996     1.007825032230
         H            1.240826462309    -0.439111717639     1.780356735004     1.007825032230
         H            2.984780462309    -0.576739717639     1.584143735004     1.007825032230
         H            2.891111462309     1.226596282361     0.166548735004     1.007825032230
         H           -1.763752537691    -2.535056717639    -0.456500264996     1.007825032230
         H           -1.396286537691     2.321311282361     0.477864735004     1.007825032230
         H           -3.762355537691    -1.278638717639     0.290948735004     1.007825032230
         H           -3.596435537691     1.163734282361     0.753376735004     1.007825032230

  Basis Set: AUG-CC-PVTZ
    Blend: AUG-CC-PVTZ
  Basis Set: (AUG-CC-PVTZ AUX)
    Blend: AUG-CC-PVTZ-JKFIT
	 Reference Energy          =    -514.5966315285011206 [Eh]
	 Singles Energy            =      -0.0000000000000000 [Eh]
	 Same-Spin Energy          =      -0.5578911274513367 [Eh]
	 Opposite-Spin Energy      =      -1.7428346952562412 [Eh]
	 Correlation Energy        =      -2.3007258227075780 [Eh]
	 Total Energy              =    -516.8973573512087114 [Eh]

	 ================> DF-SCS-MP2 Energies <==================
	-----------------------------------------------------------
	 SCS Same-Spin Scale       =       0.3333333333333333 [-]
	 SCS Opposite-Spin Scale   =       1.2000000000000000 [-]
	 SCS Same-Spin Energy      =      -0.1859637091504456 [Eh]
	 SCS Opposite-Spin Energy  =      -2.0914016343074895 [Eh]
	 SCS Correlation Energy    =      -2.2773653434579351 [Eh]
	 SCS Total Energy          =    -516.8739968719590934 [Eh]
	-----------------------------------------------------------

  Dipole Moment: [D]
     X:     0.9280      Y:    -3.4717      Z:     1.7603     Total:     4.0015

*** Psi4 exiting successfully. Buy a developer a beer!
