                               Psi4 1.3.2 release

  ==> Input File <==

--------------------------------------------------------------------------
#psi4
#
memory 32 gb

molecule  {
0 1
  O        0.9417500     2.5148810    -0.6596880
  N        2.0463840     0.6978680     0.1749460
  C        0.7564320    -1.5550710    -0.8733250
  C        1.8157710    -1.7711630     0.2163790
  C       -0.4014405    -0.7926963    -0.3939910
  C        2.0266990    -0.4897580     1.0228720
  C       -0.3650830     0.5850230    -0.0943830
  C        0.9119250     1.3593610    -0.2260870
  C       -1.6913630    -1.4231620    -0.2398970
  C       -1.5035900     1.3035830     0.2885800
  C       -2.8212120    -0.7143780     0.1714760
  C       -2.7281430     0.6547360     0.4326570
  H        0.4383490    -2.5216720    -1.2799980
  H        1.2165960    -1.0011160    -1.6986390
  H        1.5065410    -2.5704870     0.9013410
  H        2.7543720    -2.0878480    -0.2534440
  H        1.2290340    -0.3883270     1.7666860
  H        2.9729880    -0.5259550     1.5704730
  H        2.8793190     1.2773810     0.1528780
  H       -1.7755450    -2.4842720    -0.4701710
  H       -1.4080790     2.3720960     0.4641940
  H       -3.7741480    -1.2278540     0.2772780
  H       -3.6082280     1.2145190     0.7397060
units angstrom
no_reorient  #important for SAPT in psi4, default
symmetry c1  #important for SAPT in psi4, default
}

set PROPERTIES_ORIGIN ["COM"]
properties('MP2/aug-cc-pvtz', properties = ['dipole'])
--------------------------------------------------------------------------

    Molecular point group: c1
  Charge       = 0
  Multiplicity = 1
  Basis Set: AUG-CC-PVTZ
    Blend: AUG-CC-PVTZ
  Basis Set: (AUG-CC-PVTZ AUX)
    Blend: AUG-CC-PVTZ-JKFIT

    Orbital Energies [Eh]
    ---------------------

    Doubly Occupied:

       1A    -20.514420     2A    -15.582789     3A    -11.350060
       4A    -11.276187     5A    -11.261694     6A    -11.248479
       7A    -11.247589     8A    -11.245990     9A    -11.245409
      10A    -11.239970    11A    -11.239108    12A    -11.238285
      13A     -1.368536    14A     -1.235261    15A     -1.161509
      16A     -1.087404    17A     -1.037142    18A     -1.017486
      19A     -0.939955    20A     -0.880772    21A     -0.843240
      22A     -0.798110    23A     -0.773865    24A     -0.696112
      25A     -0.686731    26A     -0.673124    27A     -0.653506
      28A     -0.624021    29A     -0.615820    30A     -0.599345
      31A     -0.588164    32A     -0.575462    33A     -0.559016
      34A     -0.536915    35A     -0.519560    36A     -0.507800
      37A     -0.494464    38A     -0.488202    39A     -0.482400
      40A     -0.421267    41A     -0.389547    42A     -0.344174
      43A     -0.331322

  @DF-RHF Final Energy:  -514.59239137704776

   => Energetics <=

    Nuclear Repulsion Energy =            685.2032170377192415
    One-Electron Energy =               -2058.3507879575035986
    Two-Electron Energy =                 858.5551795427365960
    Total Energy =                       -514.5923913770477611
  Basis Set: (AUG-CC-PVTZ AUX)
    Blend: AUG-CC-PVTZ-RI
    Molecular point group: c1

    Geometry (in Angstrom), charge = 0, multiplicity = 1:

       Center              X                  Y                   Z               Mass
    ------------   -----------------  -----------------  -----------------  -----------------
         O            0.953116446238     2.466026961239    -0.645638113896    15.994914619570
         N            2.057750446238     0.649013961239     0.188995886104    14.003074004430
         C            0.767798446238    -1.603925038761    -0.859275113896    12.000000000000
         C            1.827137446238    -1.820017038761     0.230428886104    12.000000000000
         C           -0.390074053762    -0.841550338761    -0.379941113896    12.000000000000
         C            2.038065446238    -0.538612038761     1.036921886104    12.000000000000
         C           -0.353716553762     0.536168961239    -0.080333113896    12.000000000000
         C            0.923291446238     1.310506961239    -0.212037113896    12.000000000000
         C           -1.679996553762    -1.472016038761    -0.225847113896    12.000000000000
         C           -1.492223553762     1.254728961239     0.302629886104    12.000000000000
         C           -2.809845553762    -0.763232038761     0.185525886104    12.000000000000
         C           -2.716776553762     0.605881961239     0.446706886104    12.000000000000
         H            0.449715446238    -2.570526038761    -1.265948113896     1.007825032230
         H            1.227962446238    -1.049970038761    -1.684589113896     1.007825032230
         H            1.517907446238    -2.619341038761     0.915390886104     1.007825032230
         H            2.765738446238    -2.136702038761    -0.239394113896     1.007825032230
         H            1.240400446238    -0.437181038761     1.780735886104     1.007825032230
         H            2.984354446238    -0.574809038761     1.584522886104     1.007825032230
         H            2.890685446238     1.228526961239     0.166927886104     1.007825032230
         H           -1.764178553762    -2.533126038761    -0.456121113896     1.007825032230
         H           -1.396712553762     2.323241961239     0.478243886104     1.007825032230
         H           -3.762781553762    -1.276708038761     0.291327886104     1.007825032230
         H           -3.596861553762     1.165664961239     0.753755886104     1.007825032230

  Basis Set: AUG-CC-PVTZ
    Blend: AUG-CC-PVTZ
  Basis Set: (AUG-CC-PVTZ AUX)
    Blend: AUG-CC-PVTZ-JKFIT
	 Reference Energy          =    -514.5923913770477611 [Eh]
	 Singles Energy            =      -0.0000000000000000 [Eh]
	 Same-Spin Energy          =      -0.5592506801170879 [Eh]
	 Opposite-Spin Energy      =      -1.7452754638958421 [Eh]
	 Correlation Energy        =      -2.3045261440129301 [Eh]
	 Total Energy              =    -516.8969175210606863 [Eh]

	 ================> DF-SCS-MP2 Energies <==================
	-----------------------------------------------------------
	 SCS Same-Spin Scale       =       0.3333333333333333 [-]
	 SCS Opposite-Spin Scale   =       1.2000000000000000 [-]
	 SCS Same-Spin Energy      =      -0.1864168933723626 [Eh]
	 SCS Opposite-Spin Energy  =      -2.0943305566750103 [Eh]
	 SCS Correlation Energy    =      -2.2807474500473730 [Eh]
	 SCS Total Energy          =    -516.8731388270950902 [Eh]
	-----------------------------------------------------------

  Dipole Moment: [D]
     X:     0.6630      Y:    -3.6468      Z:     1.7562     Total:     4.1016

*** Psi4 exiting successfully. Buy a developer a beer!
