                               Psi4 1.3.2 release

  ==> Input File <==

--------------------------------------------------------------------------
#psi4
#
memory 32 gb

molecule  {
0 1
  O        0.9417500     2.5148810    -0.6596880
  N        2.0463840     0.6978680     0.1749460
  C        0.7564320    -1.5550710    -0.8733250
  C        1.7693202    -1.7514724     0.1990071
  C       -0.4497480    -0.7926040    -0.3845090
  C        2.0266990    -0.4897580     1.0228720
  C       -0.3650830     0.5850230    -0.0943830
  C        0.9119250     1.3593610    -0.2260870
  C       -1.6913630    -1.4231620    -0.2398970
  C       -1.5035900     1.3035830     0.2885800
  C       -2.8212120    -0.7143780     0.1714760
  C       -2.7281430     0.6547360     0.4326570
  H        0.4383490    -2.5216720    -1.2799980
  H        1.2165960    -1.0011160    -1.6986390
  H        1.5065410    -2.5704870     0.9013410
  H        2.7543720    -2.0878480    -0.2534440
  H        1.2290340    -0.3883270     1.7666860
  H        2.9729880    -0.5259550     1.5704730
  H        2.8793190     1.2773810     0.1528780
  H       -1.7755450    -2.4842720    -0.4701710
  H       -1.4080790     2.3720960     0.4641940
  H       -3.7741480    -1.2278540     0.2772780
  H       -3.6082280     1.2145190     0.7397060
units angstrom
no_reorient  #important for SAPT in psi4, default
symmetry c1  #important for SAPT in psi4, default
}

set PROPERTIES_ORIGIN ["COM"]
properties('MP2/aug-cc-pvtz', properties = ['dipole'])
--------------------------------------------------------------------------

    Molecular point group: c1
  Charge       = 0
  Multiplicity = 1
  Basis Set: AUG-CC-PVTZ
    Blend: AUG-CC-PVTZ
  Basis Set: (AUG-CC-PVTZ AUX)
    Blend: AUG-CC-PVTZ-JKFIT

    Orbital Energies [Eh]
    ---------------------

    Doubly Occupied:

       1A    -20.515271     2A    -15.582486     3A    -11.351586
       4A    -11.276050     5A    -11.258279     6A    -11.249001
       7A    -11.247479     8A    -11.245774     9A    -11.241961
      10A    -11.240137    11A    -11.240020    12A    -11.237868
      13A     -1.369195    14A     -1.235524    15A     -1.164919
      16A     -1.087845    17A     -1.036801    18A     -1.020421
      19A     -0.941433    20A     -0.881265    21A     -0.839812
      22A     -0.796550    23A     -0.776805    24A     -0.697200
      25A     -0.686506    26A     -0.672550    27A     -0.653244
      28A     -0.624224    29A     -0.616221    30A     -0.600087
      31A     -0.588245    32A     -0.577333    33A     -0.555851
      34A     -0.537735    35A     -0.519733    36A     -0.510509
      37A     -0.497910    38A     -0.487688    39A     -0.470952
      40A     -0.423407    41A     -0.388733    42A     -0.344068
      43A     -0.336984

  @DF-RHF Final Energy:  -514.59324873729031

   => Energetics <=

    Nuclear Repulsion Energy =            686.0467389753570160
    One-Electron Energy =               -2060.0286500102156424
    Two-Electron Energy =                 859.3886622975682030
    Total Energy =                       -514.5932487372903097
  Basis Set: (AUG-CC-PVTZ AUX)
    Blend: AUG-CC-PVTZ-RI
    Molecular point group: c1

    Geometry (in Angstrom), charge = 0, multiplicity = 1:

       Center              X                  Y                   Z               Mass
    ------------   -----------------  -----------------  -----------------  -----------------
         O            0.960175490888     2.464553228866    -0.645050353707    15.994914619570
         N            2.064809490888     0.647540228866     0.189583646293    14.003074004430
         C            0.774857490888    -1.605398771134    -0.858687353707    12.000000000000
         C            1.787745690888    -1.801800171134     0.213644746293    12.000000000000
         C           -0.431322509112    -0.842931771134    -0.369871353707    12.000000000000
         C            2.045124490888    -0.540085771134     1.037509646293    12.000000000000
         C           -0.346657509112     0.534695228866    -0.079745353707    12.000000000000
         C            0.930350490888     1.309033228866    -0.211449353707    12.000000000000
         C           -1.672937509112    -1.473489771134    -0.225259353707    12.000000000000
         C           -1.485164509112     1.253255228866     0.303217646293    12.000000000000
         C           -2.802786509112    -0.764705771134     0.186113646293    12.000000000000
         C           -2.709717509112     0.604408228866     0.447294646293    12.000000000000
         H            0.456774490888    -2.571999771134    -1.265360353707     1.007825032230
         H            1.235021490888    -1.051443771134    -1.684001353707     1.007825032230
         H            1.524966490888    -2.620814771134     0.915978646293     1.007825032230
         H            2.772797490888    -2.138175771134    -0.238806353707     1.007825032230
         H            1.247459490888    -0.438654771134     1.781323646293     1.007825032230
         H            2.991413490888    -0.576282771134     1.585110646293     1.007825032230
         H            2.897744490888     1.227053228866     0.167515646293     1.007825032230
         H           -1.757119509112    -2.534599771134    -0.455533353707     1.007825032230
         H           -1.389653509112     2.321768228866     0.478831646293     1.007825032230
         H           -3.755722509112    -1.278181771134     0.291915646293     1.007825032230
         H           -3.589802509112     1.164191228866     0.754343646293     1.007825032230

  Basis Set: AUG-CC-PVTZ
    Blend: AUG-CC-PVTZ
  Basis Set: (AUG-CC-PVTZ AUX)
    Blend: AUG-CC-PVTZ-JKFIT
	 Reference Energy          =    -514.5932487372903097 [Eh]
	 Singles Energy            =      -0.0000000000000000 [Eh]
	 Same-Spin Energy          =      -0.5590012997364742 [Eh]
	 Opposite-Spin Energy      =      -1.7448209185147343 [Eh]
	 Correlation Energy        =      -2.3038222182512085 [Eh]
	 Total Energy              =    -516.8970709555414942 [Eh]

	 ================> DF-SCS-MP2 Energies <==================
	-----------------------------------------------------------
	 SCS Same-Spin Scale       =       0.3333333333333333 [-]
	 SCS Opposite-Spin Scale   =       1.2000000000000000 [-]
	 SCS Same-Spin Energy      =      -0.1863337665788247 [Eh]
	 SCS Opposite-Spin Energy  =      -2.0937851022176810 [Eh]
	 SCS Correlation Energy    =      -2.2801188687965057 [Eh]
	 SCS Total Energy          =    -516.8733676060868447 [Eh]
	-----------------------------------------------------------

  Dipole Moment: [D]
     X:     0.5979      Y:    -3.5953      Z:     1.7675     Total:     4.0507

*** Psi4 exiting successfully. Buy a developer a beer!
