                               Psi4 1.3.2 release

  ==> Input File <==

--------------------------------------------------------------------------
#psi4
#
memory 32 gb

molecule  {
0 1
  O        0.9417500     2.5148810    -0.6596880
  N        2.0463840     0.6978680     0.1749460
  C        0.7564320    -1.5550710    -0.8733250
  C        1.8157710    -1.7711630     0.2163790
  C       -0.4497480    -0.7926040    -0.3845090
  C        1.9250846    -0.4827563     1.0242012
  C       -0.3650830     0.5850230    -0.0943830
  C        0.9119250     1.3593610    -0.2260870
  C       -1.6913630    -1.4231620    -0.2398970
  C       -1.5035900     1.3035830     0.2885800
  C       -2.8212120    -0.7143780     0.1714760
  C       -2.7281430     0.6547360     0.4326570
  H        0.4383490    -2.5216720    -1.2799980
  H        1.2165960    -1.0011160    -1.6986390
  H        1.5065410    -2.5704870     0.9013410
  H        2.7543720    -2.0878480    -0.2534440
  H        1.2290340    -0.3883270     1.7666860
  H        2.9729880    -0.5259550     1.5704730
  H        2.8793190     1.2773810     0.1528780
  H       -1.7755450    -2.4842720    -0.4701710
  H       -1.4080790     2.3720960     0.4641940
  H       -3.7741480    -1.2278540     0.2772780
  H       -3.6082280     1.2145190     0.7397060
units angstrom
no_reorient  #important for SAPT in psi4, default
symmetry c1  #important for SAPT in psi4, default
}

set PROPERTIES_ORIGIN ["COM"]
properties('MP2/aug-cc-pvtz', properties = ['dipole'])
--------------------------------------------------------------------------

    Molecular point group: c1
  Charge       = 0
  Multiplicity = 1
  Basis Set: AUG-CC-PVTZ
    Blend: AUG-CC-PVTZ
  Basis Set: (AUG-CC-PVTZ AUX)
    Blend: AUG-CC-PVTZ-JKFIT

    Orbital Energies [Eh]
    ---------------------

    Doubly Occupied:

       1A    -20.514895     2A    -15.583602     3A    -11.349890
       4A    -11.277131     5A    -11.258585     6A    -11.249226
       7A    -11.247683     8A    -11.246018     9A    -11.242278
      10A    -11.240363    11A    -11.238903    12A    -11.238007
      13A     -1.369178    14A     -1.236631    15A     -1.164664
      16A     -1.083842    17A     -1.036517    18A     -1.020913
      19A     -0.937913    20A     -0.880051    21A     -0.844254
      22A     -0.799278    23A     -0.777980    24A     -0.698804
      25A     -0.691515    26A     -0.672423    27A     -0.647647
      28A     -0.626609    29A     -0.613621    30A     -0.601036
      31A     -0.585252    32A     -0.579790    33A     -0.556433
      34A     -0.536521    35A     -0.521453    36A     -0.508791
      37A     -0.491083    38A     -0.485903    39A     -0.474979
      40A     -0.421970    41A     -0.392467    42A     -0.344236
      43A     -0.336751

  @DF-RHF Final Energy:  -514.58383182359239

   => Energetics <=

    Nuclear Repulsion Energy =            686.3200893304455121
    One-Electron Energy =               -2060.5576732958293178
    Two-Electron Energy =                 859.6537521417913013
    Total Energy =                       -514.5838318235923907
  Basis Set: (AUG-CC-PVTZ AUX)
    Blend: AUG-CC-PVTZ-RI
    Molecular point group: c1

    Geometry (in Angstrom), charge = 0, multiplicity = 1:

       Center              X                  Y                   Z               Mass
    ------------   -----------------  -----------------  -----------------  -----------------
         O            0.964284917877     2.465498491831    -0.646443497103    15.994914619570
         N            2.068918917877     0.648485491831     0.188190502897    14.003074004430
         C            0.778966917877    -1.604453508169    -0.860080497103    12.000000000000
         C            1.838305917877    -1.820545508169     0.229623502897    12.000000000000
         C           -0.427213082123    -0.841986508169    -0.371264497103    12.000000000000
         C            1.947619517877    -0.532138808169     1.037445702897    12.000000000000
         C           -0.342548082123     0.535640491831    -0.081138497103    12.000000000000
         C            0.934459917877     1.309978491831    -0.212842497103    12.000000000000
         C           -1.668828082123    -1.472544508169    -0.226652497103    12.000000000000
         C           -1.481055082123     1.254200491831     0.301824502897    12.000000000000
         C           -2.798677082123    -0.763760508169     0.184720502897    12.000000000000
         C           -2.705608082123     0.605353491831     0.445901502897    12.000000000000
         H            0.460883917877    -2.571054508169    -1.266753497103     1.007825032230
         H            1.239130917877    -1.050498508169    -1.685394497103     1.007825032230
         H            1.529075917877    -2.619869508169     0.914585502897     1.007825032230
         H            2.776906917877    -2.137230508169    -0.240199497103     1.007825032230
         H            1.251568917877    -0.437709508169     1.779930502897     1.007825032230
         H            2.995522917877    -0.575337508169     1.583717502897     1.007825032230
         H            2.901853917877     1.227998491831     0.166122502897     1.007825032230
         H           -1.753010082123    -2.533654508169    -0.456926497103     1.007825032230
         H           -1.385544082123     2.322713491831     0.477438502897     1.007825032230
         H           -3.751613082123    -1.277236508169     0.290522502897     1.007825032230
         H           -3.585693082123     1.165136491831     0.752950502897     1.007825032230

  Basis Set: AUG-CC-PVTZ
    Blend: AUG-CC-PVTZ
  Basis Set: (AUG-CC-PVTZ AUX)
    Blend: AUG-CC-PVTZ-JKFIT
	 Reference Energy          =    -514.5838318235923907 [Eh]
	 Singles Energy            =      -0.0000000000000000 [Eh]
	 Same-Spin Energy          =      -0.5591602872688357 [Eh]
	 Opposite-Spin Energy      =      -1.7454494115222432 [Eh]
	 Correlation Energy        =      -2.3046096987910789 [Eh]
	 Total Energy              =    -516.8884415223834594 [Eh]

	 ================> DF-SCS-MP2 Energies <==================
	-----------------------------------------------------------
	 SCS Same-Spin Scale       =       0.3333333333333333 [-]
	 SCS Opposite-Spin Scale   =       1.2000000000000000 [-]
	 SCS Same-Spin Energy      =      -0.1863867624229452 [Eh]
	 SCS Opposite-Spin Energy  =      -2.0945392938266916 [Eh]
	 SCS Correlation Energy    =      -2.2809260562496370 [Eh]
	 SCS Total Energy          =    -516.8647578798420454 [Eh]
	-----------------------------------------------------------

  Dipole Moment: [D]
     X:     0.5443      Y:    -3.6107      Z:     1.7592     Total:     4.0531

*** Psi4 exiting successfully. Buy a developer a beer!
