                               Psi4 1.3.2 release

  ==> Input File <==

--------------------------------------------------------------------------
#psi4
#
memory 32 gb

molecule  {
0 1
  O        0.9417500     2.5148810    -0.6596880
  N        2.0463840     0.6978680     0.1749460
  C        0.7564320    -1.5550710    -0.8733250
  C        1.8157710    -1.7711630     0.2163790
  C       -0.4497480    -0.7926040    -0.3845090
  C        2.0266990    -0.4897580     1.0228720
  C       -0.3650830     0.5850230    -0.0943830
  C        0.8410610     1.2365887    -0.2023789
  C       -1.6913630    -1.4231620    -0.2398970
  C       -1.5035900     1.3035830     0.2885800
  C       -2.8212120    -0.7143780     0.1714760
  C       -2.7281430     0.6547360     0.4326570
  H        0.4383490    -2.5216720    -1.2799980
  H        1.2165960    -1.0011160    -1.6986390
  H        1.5065410    -2.5704870     0.9013410
  H        2.7543720    -2.0878480    -0.2534440
  H        1.2290340    -0.3883270     1.7666860
  H        2.9729880    -0.5259550     1.5704730
  H        2.8793190     1.2773810     0.1528780
  H       -1.7755450    -2.4842720    -0.4701710
  H       -1.4080790     2.3720960     0.4641940
  H       -3.7741480    -1.2278540     0.2772780
  H       -3.6082280     1.2145190     0.7397060
units angstrom
no_reorient  #important for SAPT in psi4, default
symmetry c1  #important for SAPT in psi4, default
}

set PROPERTIES_ORIGIN ["COM"]
properties('MP2/aug-cc-pvtz', properties = ['dipole'])
--------------------------------------------------------------------------

    Molecular point group: c1
  Charge       = 0
  Multiplicity = 1
  Basis Set: AUG-CC-PVTZ
    Blend: AUG-CC-PVTZ
  Basis Set: (AUG-CC-PVTZ AUX)
    Blend: AUG-CC-PVTZ-JKFIT

    Orbital Energies [Eh]
    ---------------------

    Doubly Occupied:

       1A    -20.493041     2A    -15.590001     3A    -11.352135
       4A    -11.275154     5A    -11.268081     6A    -11.258956
       7A    -11.256353     8A    -11.247313     9A    -11.245835
      10A    -11.245649    11A    -11.244555    12A    -11.241360
      13A     -1.312138    14A     -1.212626    15A     -1.174821
      16A     -1.086253    17A     -1.057108    18A     -1.025593
      19A     -0.941685    20A     -0.903522    21A     -0.846838
      22A     -0.803879    23A     -0.784539    24A     -0.713308
      25A     -0.684790    26A     -0.678080    27A     -0.651852
      28A     -0.629663    29A     -0.617243    30A     -0.604076
      31A     -0.584369    32A     -0.553816    33A     -0.553007
      34A     -0.536902    35A     -0.518540    36A     -0.509680
      37A     -0.491560    38A     -0.490506    39A     -0.473271
      40A     -0.406889    41A     -0.375509    42A     -0.347855
      43A     -0.342106

  @DF-RHF Final Energy:  -514.55609226906063

   => Energetics <=

    Nuclear Repulsion Energy =            686.2736069727333188
    One-Electron Energy =               -2060.3984867554972880
    Two-Electron Energy =                 859.5687875137032279
    Total Energy =                       -514.5560922690606276
  Basis Set: (AUG-CC-PVTZ AUX)
    Blend: AUG-CC-PVTZ-RI
    Molecular point group: c1

    Geometry (in Angstrom), charge = 0, multiplicity = 1:

       Center              X                  Y                   Z               Mass
    ------------   -----------------  -----------------  -----------------  -----------------
         O            0.961994158686     2.475166040324    -0.648110619184    15.994914619570
         N            2.066628158686     0.658153040324     0.186523380816    14.003074004430
         C            0.776676158686    -1.594785959676    -0.861747619184    12.000000000000
         C            1.836015158686    -1.810877959676     0.227956380816    12.000000000000
         C           -0.429503841314    -0.832318959676    -0.372931619184    12.000000000000
         C            2.046943158686    -0.529472959676     1.034449380816    12.000000000000
         C           -0.344838841314     0.545308040324    -0.082805619184    12.000000000000
         C            0.861305158686     1.196873740324    -0.190801519184    12.000000000000
         C           -1.671118841314    -1.462876959676    -0.228319619184    12.000000000000
         C           -1.483345841314     1.263868040324     0.300157380816    12.000000000000
         C           -2.800967841314    -0.754092959676     0.183053380816    12.000000000000
         C           -2.707898841314     0.615021040324     0.444234380816    12.000000000000
         H            0.458593158686    -2.561386959676    -1.268420619184     1.007825032230
         H            1.236840158686    -1.040830959676    -1.687061619184     1.007825032230
         H            1.526785158686    -2.610201959676     0.912918380816     1.007825032230
         H            2.774616158686    -2.127562959676    -0.241866619184     1.007825032230
         H            1.249278158686    -0.428041959676     1.778263380816     1.007825032230
         H            2.993232158686    -0.565669959676     1.582050380816     1.007825032230
         H            2.899563158686     1.237666040324     0.164455380816     1.007825032230
         H           -1.755300841314    -2.523986959676    -0.458593619184     1.007825032230
         H           -1.387834841314     2.332381040324     0.475771380816     1.007825032230
         H           -3.753903841314    -1.267568959676     0.288855380816     1.007825032230
         H           -3.587983841314     1.174804040324     0.751283380816     1.007825032230

  Basis Set: AUG-CC-PVTZ
    Blend: AUG-CC-PVTZ
  Basis Set: (AUG-CC-PVTZ AUX)
    Blend: AUG-CC-PVTZ-JKFIT
	 Reference Energy          =    -514.5560922690606276 [Eh]
	 Singles Energy            =      -0.0000000000000000 [Eh]
	 Same-Spin Energy          =      -0.5627627804348698 [Eh]
	 Opposite-Spin Energy      =      -1.7521508314543306 [Eh]
	 Correlation Energy        =      -2.3149136118892004 [Eh]
	 Total Energy              =    -516.8710058809498378 [Eh]

	 ================> DF-SCS-MP2 Energies <==================
	-----------------------------------------------------------
	 SCS Same-Spin Scale       =       0.3333333333333333 [-]
	 SCS Opposite-Spin Scale   =       1.2000000000000000 [-]
	 SCS Same-Spin Energy      =      -0.1875875934782899 [Eh]
	 SCS Opposite-Spin Energy  =      -2.1025809977451968 [Eh]
	 SCS Correlation Energy    =      -2.2901685912234866 [Eh]
	 SCS Total Energy          =    -516.8462608602841328 [Eh]
	-----------------------------------------------------------

  Dipole Moment: [D]
     X:     0.2017      Y:    -4.3337      Z:     1.9739     Total:     4.7663

*** Psi4 exiting successfully. Buy a developer a beer!
