                               Psi4 1.3.2 release

  ==> Input File <==

--------------------------------------------------------------------------
#psi4
#
memory 32 gb

molecule  {
0 1
  O        0.9417500     2.5148810    -0.6596880
  N        2.0463840     0.6978680     0.1749460
  C        0.7564320    -1.5550710    -0.8733250
  C        1.8157710    -1.7711630     0.2163790
  C       -0.4497480    -0.7926040    -0.3845090
  C        2.0266990    -0.4897580     1.0228720
  C       -0.3650830     0.5850230    -0.0943830
  C        0.9119250     1.3593610    -0.2260870
  C       -1.6913630    -1.4231620    -0.2398970
  C       -1.5035900     1.3035830     0.2885800
  C       -2.8212120    -0.7143780     0.1714760
  C       -2.7281430     0.6547360     0.4326570
  H        0.4383490    -2.5216720    -1.2799980
  H        1.2165960    -1.0011160    -1.6986390
  H        1.5065410    -2.5704870     0.9013410
  H        2.7543720    -2.0878480    -0.2534440
  H        1.0833899    -0.3698069     1.9024976
  H        2.9729880    -0.5259550     1.5704730
  H        2.8793190     1.2773810     0.1528780
  H       -1.7755450    -2.4842720    -0.4701710
  H       -1.4080790     2.3720960     0.4641940
  H       -3.7741480    -1.2278540     0.2772780
  H       -3.6082280     1.2145190     0.7397060
units angstrom
no_reorient  #important for SAPT in psi4, default
symmetry c1  #important for SAPT in psi4, default
}

set PROPERTIES_ORIGIN ["COM"]
properties('MP2/aug-cc-pvtz', properties = ['dipole'])
--------------------------------------------------------------------------

    Molecular point group: c1
  Charge       = 0
  Multiplicity = 1
  Basis Set: AUG-CC-PVTZ
    Blend: AUG-CC-PVTZ
  Basis Set: (AUG-CC-PVTZ AUX)
    Blend: AUG-CC-PVTZ-JKFIT

    Orbital Energies [Eh]
    ---------------------

    Doubly Occupied:

       1A    -20.516633     2A    -15.585815     3A    -11.352560
       4A    -11.297668     5A    -11.258128     6A    -11.248519
       7A    -11.247023     8A    -11.245276     9A    -11.241449
      10A    -11.240646    11A    -11.239831    12A    -11.239536
      13A     -1.370337    14A     -1.235430    15A     -1.164081
      16A     -1.082380    17A     -1.036282    18A     -1.019351
      19A     -0.932832    20A     -0.882160    21A     -0.838149
      22A     -0.797478    23A     -0.773539    24A     -0.696723
      25A     -0.679612    26A     -0.668824    27A     -0.653405
      28A     -0.622048    29A     -0.615840    30A     -0.600291
      31A     -0.587125    32A     -0.573312    33A     -0.556337
      34A     -0.530451    35A     -0.510934    36A     -0.509260
      37A     -0.493608    38A     -0.489262    39A     -0.473713
      40A     -0.424547    41A     -0.388036    42A     -0.343307
      43A     -0.335251

  @DF-RHF Final Energy:  -514.57611936408750

   => Energetics <=

    Nuclear Repulsion Energy =            684.3445281658899830
    One-Electron Energy =               -2056.6473145442669193
    Two-Electron Energy =                 857.7266670142893190
    Total Energy =                       -514.5761193640875035
  Basis Set: (AUG-CC-PVTZ AUX)
    Blend: AUG-CC-PVTZ-RI
    Molecular point group: c1

    Geometry (in Angstrom), charge = 0, multiplicity = 1:

       Center              X                  Y                   Z               Mass
    ------------   -----------------  -----------------  -----------------  -----------------
         O            0.957626350892     2.465904214024    -0.647194185453    15.994914619570
         N            2.062260350892     0.648891214024     0.187439814547    14.003074004430
         C            0.772308350892    -1.604047785976    -0.860831185453    12.000000000000
         C            1.831647350892    -1.820139785976     0.228872814547    12.000000000000
         C           -0.433871649108    -0.841580785976    -0.372015185453    12.000000000000
         C            2.042575350892    -0.538734785976     1.035365814547    12.000000000000
         C           -0.349206649108     0.536046214024    -0.081889185453    12.000000000000
         C            0.927801350892     1.310384214024    -0.213593185453    12.000000000000
         C           -1.675486649108    -1.472138785976    -0.227403185453    12.000000000000
         C           -1.487713649108     1.254606214024     0.301073814547    12.000000000000
         C           -2.805335649108    -0.763354785976     0.183969814547    12.000000000000
         C           -2.712266649108     0.605759214024     0.445150814547    12.000000000000
         H            0.454225350892    -2.570648785976    -1.267504185453     1.007825032230
         H            1.232472350892    -1.050092785976    -1.686145185453     1.007825032230
         H            1.522417350892    -2.619463785976     0.913834814547     1.007825032230
         H            2.770248350892    -2.136824785976    -0.240950185453     1.007825032230
         H            1.099266250892    -0.418783685976     1.914991414547     1.007825032230
         H            2.988864350892    -0.574931785976     1.582966814547     1.007825032230
         H            2.895195350892     1.228404214024     0.165371814547     1.007825032230
         H           -1.759668649108    -2.533248785976    -0.457677185453     1.007825032230
         H           -1.392202649108     2.323119214024     0.476687814547     1.007825032230
         H           -3.758271649108    -1.276830785976     0.289771814547     1.007825032230
         H           -3.592351649108     1.165542214024     0.752199814547     1.007825032230

  Basis Set: AUG-CC-PVTZ
    Blend: AUG-CC-PVTZ
  Basis Set: (AUG-CC-PVTZ AUX)
    Blend: AUG-CC-PVTZ-JKFIT
	 Reference Energy          =    -514.5761193640875035 [Eh]
	 Singles Energy            =      -0.0000000000000000 [Eh]
	 Same-Spin Energy          =      -0.5591440852103331 [Eh]
	 Opposite-Spin Energy      =      -1.7464659538817062 [Eh]
	 Correlation Energy        =      -2.3056100390920395 [Eh]
	 Total Energy              =    -516.8817294031795200 [Eh]

	 ================> DF-SCS-MP2 Energies <==================
	-----------------------------------------------------------
	 SCS Same-Spin Scale       =       0.3333333333333333 [-]
	 SCS Opposite-Spin Scale   =       1.2000000000000000 [-]
	 SCS Same-Spin Energy      =      -0.1863813617367777 [Eh]
	 SCS Opposite-Spin Energy  =      -2.0957591446580475 [Eh]
	 SCS Correlation Energy    =      -2.2821405063948252 [Eh]
	 SCS Total Energy          =    -516.8582598704823567 [Eh]
	-----------------------------------------------------------

  Dipole Moment: [D]
     X:     0.6760      Y:    -3.5913      Z:     1.6311     Total:     4.0018

*** Psi4 exiting successfully. Buy a developer a beer!
