                               Psi4 1.3.2 release

  ==> Input File <==

--------------------------------------------------------------------------
#psi4
#
memory 32 gb

molecule  {
0 1
  C        0.5032495     0.6082127     0.1403809
  C        1.6327480    -0.3514470    -0.0541290
  S       -1.1608460    -0.0992530    -0.0781930
  H        0.5555230     1.1777410     1.0434580
  H        0.5411580     1.3988160    -0.7010360
  H        2.5971190     0.1621190     0.0128370
  H       -1.0454790    -0.9471330     0.9554190
  H        1.5772580    -0.8665870    -1.0155500
  H        1.5969480    -1.1055210     0.7372560
units angstrom
no_reorient  #important for SAPT in psi4, default
symmetry c1  #important for SAPT in psi4, default
}

set PROPERTIES_ORIGIN ["COM"]
properties('MP2/aug-cc-pvtz', properties = ['dipole'])
--------------------------------------------------------------------------

    Molecular point group: c1
  Charge       = 0
  Multiplicity = 1
  Basis Set: AUG-CC-PVTZ
    Blend: AUG-CC-PVTZ
  Basis Set: (AUG-CC-PVTZ AUX)
    Blend: AUG-CC-PVTZ-JKFIT

    Orbital Energies [Eh]
    ---------------------

    Doubly Occupied:

       1A    -91.950926     2A    -11.264924     3A    -11.225994
       4A     -8.952103     5A     -6.633443     6A     -6.632369
       7A     -6.631366     8A     -1.074070     9A     -0.945482
      10A     -0.817485    11A     -0.635407    12A     -0.594153
      13A     -0.557539    14A     -0.528263    15A     -0.478510
      16A     -0.451441    17A     -0.357754

  @DF-RHF Final Energy:  -476.80164937321945

   => Energetics <=

    Nuclear Repulsion Energy =            107.5081688532060156
    One-Electron Energy =                -869.1571782606650913
    Two-Electron Energy =                 284.8473600342396139
    Total Energy =                       -476.8016493732194476
  Basis Set: (AUG-CC-PVTZ AUX)
    Blend: AUG-CC-PVTZ-RI
    Molecular point group: c1

    Geometry (in Angstrom), charge = 0, multiplicity = 1:

       Center              X                  Y                   Z               Mass
    ------------   -----------------  -----------------  -----------------  -----------------
         C            0.593779668798     0.612632529613     0.147225685904    12.000000000000
         C            1.723278168798    -0.347027170387    -0.047284214096    12.000000000000
         S           -1.070315831202    -0.094833170387    -0.071348214096    31.972071174400
         H            0.646053168798     1.182160829613     1.050302785904     1.007825032230
         H            0.631688168798     1.403235829613    -0.694191214096     1.007825032230
         H            2.687649168798     0.166538829613     0.019681785904     1.007825032230
         H           -0.954948831202    -0.942713170387     0.962263785904     1.007825032230
         H            1.667788168798    -0.862167170387    -1.008705214096     1.007825032230
         H            1.687478168798    -1.101101170387     0.744100785904     1.007825032230

  Basis Set: AUG-CC-PVTZ
    Blend: AUG-CC-PVTZ
  Basis Set: (AUG-CC-PVTZ AUX)
    Blend: AUG-CC-PVTZ-JKFIT
	 Reference Energy          =    -476.8016493732194476 [Eh]
	 Singles Energy            =      -0.0000000000000000 [Eh]
	 Same-Spin Energy          =      -0.1371938702958507 [Eh]
	 Opposite-Spin Energy      =      -0.4898518807423257 [Eh]
	 Correlation Energy        =      -0.6270457510381764 [Eh]
	 Total Energy              =    -477.4286951242576151 [Eh]

	 ================> DF-SCS-MP2 Energies <==================
	-----------------------------------------------------------
	 SCS Same-Spin Scale       =       0.3333333333333333 [-]
	 SCS Opposite-Spin Scale   =       1.2000000000000000 [-]
	 SCS Same-Spin Energy      =      -0.0457312900986169 [Eh]
	 SCS Opposite-Spin Energy  =      -0.5878222568907908 [Eh]
	 SCS Correlation Energy    =      -0.6335535469894077 [Eh]
	 SCS Total Energy          =    -477.4352029202088374 [Eh]
	-----------------------------------------------------------

  Dipole Moment: [D]
     X:     1.5120      Y:     0.1214      Z:     0.6395     Total:     1.6461

*** Psi4 exiting successfully. Buy a developer a beer!
