                               Psi4 1.3.2 release

  ==> Input File <==

--------------------------------------------------------------------------
#psi4
#
memory 32 gb

molecule  {
0 1
  C        0.4924200     0.6462160     0.0905780
  C        1.7318083    -0.2289181    -0.0305688
  S       -1.1608460    -0.0992530    -0.0781930
  H        0.5555230     1.1777410     1.0434580
  H        0.5411580     1.3988160    -0.7010360
  H        2.5971190     0.1621190     0.0128370
  H       -1.0454790    -0.9471330     0.9554190
  H        1.5772580    -0.8665870    -1.0155500
  H        1.5969480    -1.1055210     0.7372560
units angstrom
no_reorient  #important for SAPT in psi4, default
symmetry c1  #important for SAPT in psi4, default
}

set PROPERTIES_ORIGIN ["COM"]
properties('MP2/aug-cc-pvtz', properties = ['dipole'])
--------------------------------------------------------------------------

    Molecular point group: c1
  Charge       = 0
  Multiplicity = 1
  Basis Set: AUG-CC-PVTZ
    Blend: AUG-CC-PVTZ
  Basis Set: (AUG-CC-PVTZ AUX)
    Blend: AUG-CC-PVTZ-JKFIT

    Orbital Energies [Eh]
    ---------------------

    Doubly Occupied:

       1A    -91.955196     2A    -11.263722     3A    -11.229926
       4A     -8.956056     5A     -6.637422     6A     -6.636348
       7A     -6.635348     8A     -1.070115     9A     -0.950516
      10A     -0.822522    11A     -0.630431    12A     -0.626691
      13A     -0.550864    14A     -0.499957    15A     -0.475919
      16A     -0.457757    17A     -0.359183

  @DF-RHF Final Energy:  -476.77449026538443

   => Energetics <=

    Nuclear Repulsion Energy =            106.7664561927306721
    One-Electron Energy =                -867.5659476286797371
    Two-Electron Energy =                 284.0250011705646784
    Total Energy =                       -476.7744902653844292
  Basis Set: (AUG-CC-PVTZ AUX)
    Blend: AUG-CC-PVTZ-RI
    Molecular point group: c1

    Geometry (in Angstrom), charge = 0, multiplicity = 1:

       Center              X                  Y                   Z               Mass
    ------------   -----------------  -----------------  -----------------  -----------------
         C            0.565878477296     0.619574610692     0.102500460351    12.000000000000
         C            1.805266777296    -0.255559489308    -0.018646339649    12.000000000000
         S           -1.087387522704    -0.125894389308    -0.066270539649    31.972071174400
         H            0.628981477296     1.151099610692     1.055380460351     1.007825032230
         H            0.614616477296     1.372174610692    -0.689113539649     1.007825032230
         H            2.670577477296     0.135477610692     0.024759460351     1.007825032230
         H           -0.972020522704    -0.973774389308     0.967341460351     1.007825032230
         H            1.650716477296    -0.893228389308    -1.003627539649     1.007825032230
         H            1.670406477296    -1.132162389308     0.749178460351     1.007825032230

  Basis Set: AUG-CC-PVTZ
    Blend: AUG-CC-PVTZ
  Basis Set: (AUG-CC-PVTZ AUX)
    Blend: AUG-CC-PVTZ-JKFIT
	 Reference Energy          =    -476.7744902653844292 [Eh]
	 Singles Energy            =      -0.0000000000000000 [Eh]
	 Same-Spin Energy          =      -0.1371680808906232 [Eh]
	 Opposite-Spin Energy      =      -0.4906385393926184 [Eh]
	 Correlation Energy        =      -0.6278066202832415 [Eh]
	 Total Energy              =    -477.4022968856676812 [Eh]

	 ================> DF-SCS-MP2 Energies <==================
	-----------------------------------------------------------
	 SCS Same-Spin Scale       =       0.3333333333333333 [-]
	 SCS Opposite-Spin Scale   =       1.2000000000000000 [-]
	 SCS Same-Spin Energy      =      -0.0457226936302077 [Eh]
	 SCS Opposite-Spin Energy  =      -0.5887662472711420 [Eh]
	 SCS Correlation Energy    =      -0.6344889409013498 [Eh]
	 SCS Total Energy          =    -477.4089792062857782 [Eh]
	-----------------------------------------------------------

  Dipole Moment: [D]
     X:     1.3972      Y:     0.1903      Z:     0.6513     Total:     1.5533

*** Psi4 exiting successfully. Buy a developer a beer!
