                               Psi4 1.3.2 release

  ==> Input File <==

--------------------------------------------------------------------------
#psi4
#
memory 32 gb

molecule  {
0 1
  C        0.4924200     0.6462160     0.0905780
  C        1.5968939    -0.3899239    -0.0616424
  S       -1.1608460    -0.0992530    -0.0781930
  H        0.5555230     1.1777410     1.0434580
  H        0.5411580     1.3988160    -0.7010360
  H        2.5971190     0.1621190     0.0128370
  H       -1.0454790    -0.9471330     0.9554190
  H        1.5772580    -0.8665870    -1.0155500
  H        1.5969480    -1.1055210     0.7372560
units angstrom
no_reorient  #important for SAPT in psi4, default
symmetry c1  #important for SAPT in psi4, default
}

set PROPERTIES_ORIGIN ["COM"]
properties('MP2/aug-cc-pvtz', properties = ['dipole'])
--------------------------------------------------------------------------

    Molecular point group: c1
  Charge       = 0
  Multiplicity = 1
  Basis Set: AUG-CC-PVTZ
    Blend: AUG-CC-PVTZ
  Basis Set: (AUG-CC-PVTZ AUX)
    Blend: AUG-CC-PVTZ-JKFIT

    Orbital Energies [Eh]
    ---------------------

    Doubly Occupied:

       1A    -91.948550     2A    -11.264303     3A    -11.227964
       4A     -8.949970     5A     -6.631323     6A     -6.630313
       7A     -6.629298     8A     -1.071701     9A     -0.941418
      10A     -0.823349    11A     -0.641156    12A     -0.579476
      13A     -0.557546    14A     -0.531522    15A     -0.499188
      16A     -0.441432    17A     -0.354337

  @DF-RHF Final Energy:  -476.80349405296096

   => Energetics <=

    Nuclear Repulsion Energy =            107.5061312234872020
    One-Electron Energy =                -869.1735594944246941
    Two-Electron Energy =                 284.8639342179765777
    Total Energy =                       -476.8034940529609571
  Basis Set: (AUG-CC-PVTZ AUX)
    Blend: AUG-CC-PVTZ-RI
    Molecular point group: c1

    Geometry (in Angstrom), charge = 0, multiplicity = 1:

       Center              X                  Y                   Z               Mass
    ------------   -----------------  -----------------  -----------------  -----------------
         C            0.591982933063     0.650727466016     0.108512860930    12.000000000000
         C            1.696456833063    -0.385412433984    -0.043707539070    12.000000000000
         S           -1.061283066937    -0.094741533984    -0.060258139070    31.972071174400
         H            0.655085933063     1.182252466016     1.061392860930     1.007825032230
         H            0.640720933063     1.403327466016    -0.683101139070     1.007825032230
         H            2.696681933063     0.166630466016     0.030771860930     1.007825032230
         H           -0.945916066937    -0.942621533984     0.973353860930     1.007825032230
         H            1.676820933063    -0.862075533984    -0.997615139070     1.007825032230
         H            1.696510933063    -1.101009533984     0.755190860930     1.007825032230

  Basis Set: AUG-CC-PVTZ
    Blend: AUG-CC-PVTZ
  Basis Set: (AUG-CC-PVTZ AUX)
    Blend: AUG-CC-PVTZ-JKFIT
	 Reference Energy          =    -476.8034940529609571 [Eh]
	 Singles Energy            =      -0.0000000000000000 [Eh]
	 Same-Spin Energy          =      -0.1368218134062211 [Eh]
	 Opposite-Spin Energy      =      -0.4893069358884994 [Eh]
	 Correlation Energy        =      -0.6261287492947205 [Eh]
	 Total Energy              =    -477.4296228022556647 [Eh]

	 ================> DF-SCS-MP2 Energies <==================
	-----------------------------------------------------------
	 SCS Same-Spin Scale       =       0.3333333333333333 [-]
	 SCS Opposite-Spin Scale   =       1.2000000000000000 [-]
	 SCS Same-Spin Energy      =      -0.0456072711354070 [Eh]
	 SCS Opposite-Spin Energy  =      -0.5871683230661993 [Eh]
	 SCS Correlation Energy    =      -0.6327755942016063 [Eh]
	 SCS Total Energy          =    -477.4362696471625895 [Eh]
	-----------------------------------------------------------

  Dipole Moment: [D]
     X:     1.5420      Y:     0.1307      Z:     0.6296     Total:     1.6707

*** Psi4 exiting successfully. Buy a developer a beer!
