                               Psi4 1.3.2 release

  ==> Input File <==

--------------------------------------------------------------------------
#psi4
#
memory 32 gb

molecule  {
0 1
  C        0.4924200     0.6462160     0.0905780
  C        1.6501567    -0.3317497    -0.0503056
  S       -1.1608460    -0.0992530    -0.0781930
  H        0.5555230     1.1777410     1.0434580
  H        0.5411580     1.3988160    -0.7010360
  H        2.5971190     0.1621190     0.0128370
  H       -1.0454790    -0.9471330     0.9554190
  H        1.5772580    -0.8665870    -1.0155500
  H        1.5969480    -1.1055210     0.7372560
units angstrom
no_reorient  #important for SAPT in psi4, default
symmetry c1  #important for SAPT in psi4, default
}

set PROPERTIES_ORIGIN ["COM"]
properties('MP2/aug-cc-pvtz', properties = ['dipole'])
--------------------------------------------------------------------------

    Molecular point group: c1
  Charge       = 0
  Multiplicity = 1
  Basis Set: AUG-CC-PVTZ
    Blend: AUG-CC-PVTZ
  Basis Set: (AUG-CC-PVTZ AUX)
    Blend: AUG-CC-PVTZ-JKFIT

    Orbital Energies [Eh]
    ---------------------

    Doubly Occupied:

       1A    -91.950625     2A    -11.263190     3A    -11.226928
       4A     -8.951833     5A     -6.633197     6A     -6.632159
       7A     -6.631153     8A     -1.070315     9A     -0.943550
      10A     -0.821132    11A     -0.634015    12A     -0.597213
      13A     -0.553356    14A     -0.518641    15A     -0.495367
      16A     -0.449302    17A     -0.356060

  @DF-RHF Final Energy:  -476.80555013451777

   => Energetics <=

    Nuclear Repulsion Energy =            107.2015798305039596
    One-Electron Energy =                -868.5581868039446363
    Two-Electron Energy =                 284.5510568389228752
    Total Energy =                       -476.8055501345177731
  Basis Set: (AUG-CC-PVTZ AUX)
    Blend: AUG-CC-PVTZ-RI
    Molecular point group: c1

    Geometry (in Angstrom), charge = 0, multiplicity = 1:

       Center              X                  Y                   Z               Mass
    ------------   -----------------  -----------------  -----------------  -----------------
         C            0.581677165802     0.639471396755     0.106319314547    12.000000000000
         C            1.739413865802    -0.338494303245    -0.034564285453    12.000000000000
         S           -1.071588834198    -0.105997603245    -0.062451685453    31.972071174400
         H            0.644780165802     1.170996396755     1.059199314547     1.007825032230
         H            0.630415165802     1.392071396755    -0.685294685453     1.007825032230
         H            2.686376165802     0.155374396755     0.028578314547     1.007825032230
         H           -0.956221834198    -0.953877603245     0.971160314547     1.007825032230
         H            1.666515165802    -0.873331603245    -0.999808685453     1.007825032230
         H            1.686205165802    -1.112265603245     0.752997314547     1.007825032230

  Basis Set: AUG-CC-PVTZ
    Blend: AUG-CC-PVTZ
  Basis Set: (AUG-CC-PVTZ AUX)
    Blend: AUG-CC-PVTZ-JKFIT
	 Reference Energy          =    -476.8055501345177731 [Eh]
	 Singles Energy            =      -0.0000000000000000 [Eh]
	 Same-Spin Energy          =      -0.1367724121697855 [Eh]
	 Opposite-Spin Energy      =      -0.4892422627861630 [Eh]
	 Correlation Energy        =      -0.6260146749559485 [Eh]
	 Total Energy              =    -477.4315648094737412 [Eh]

	 ================> DF-SCS-MP2 Energies <==================
	-----------------------------------------------------------
	 SCS Same-Spin Scale       =       0.3333333333333333 [-]
	 SCS Opposite-Spin Scale   =       1.2000000000000000 [-]
	 SCS Same-Spin Energy      =      -0.0455908040565952 [Eh]
	 SCS Opposite-Spin Energy  =      -0.5870907153433956 [Eh]
	 SCS Correlation Energy    =      -0.6326815193999908 [Eh]
	 SCS Total Energy          =    -477.4382316539177395 [Eh]
	-----------------------------------------------------------

  Dipole Moment: [D]
     X:     1.5163      Y:     0.1505      Z:     0.6369     Total:     1.6515

*** Psi4 exiting successfully. Buy a developer a beer!
