                               Psi4 1.3.2 release

  ==> Input File <==

--------------------------------------------------------------------------
#psi4
#
memory 32 gb

molecule  {
0 1
  C        0.4924200     0.6462160     0.0905780
  C        1.6327480    -0.3514470    -0.0541290
  S       -1.3423840    -0.1811097    -0.0967250
  H        0.5555230     1.1777410     1.0434580
  H        0.5411580     1.3988160    -0.7010360
  H        2.5971190     0.1621190     0.0128370
  H       -1.0454790    -0.9471330     0.9554190
  H        1.5772580    -0.8665870    -1.0155500
  H        1.5969480    -1.1055210     0.7372560
units angstrom
no_reorient  #important for SAPT in psi4, default
symmetry c1  #important for SAPT in psi4, default
}

set PROPERTIES_ORIGIN ["COM"]
properties('MP2/aug-cc-pvtz', properties = ['dipole'])
--------------------------------------------------------------------------

    Molecular point group: c1
  Charge       = 0
  Multiplicity = 1
  Basis Set: AUG-CC-PVTZ
    Blend: AUG-CC-PVTZ
  Basis Set: (AUG-CC-PVTZ AUX)
    Blend: AUG-CC-PVTZ-JKFIT

    Orbital Energies [Eh]
    ---------------------

    Doubly Occupied:

       1A    -91.954405     2A    -11.279800     3A    -11.231623
       4A     -8.953277     5A     -6.634401     6A     -6.633373
       7A     -6.632408     8A     -1.050402     9A     -0.934974
      10A     -0.828047    11A     -0.631146    12A     -0.587072
      13A     -0.545085    14A     -0.522272    15A     -0.496713
      16A     -0.431838    17A     -0.358983

  @DF-RHF Final Energy:  -476.79257758659730

   => Energetics <=

    Nuclear Repulsion Energy =            102.6443861895956786
    One-Electron Energy =                -859.4622898940809819
    Two-Electron Energy =                 280.0253261178879711
    Total Energy =                       -476.7925775865973037
  Basis Set: (AUG-CC-PVTZ AUX)
    Blend: AUG-CC-PVTZ-RI
    Molecular point group: c1

    Geometry (in Angstrom), charge = 0, multiplicity = 1:

       Center              X                  Y                   Z               Mass
    ------------   -----------------  -----------------  -----------------  -----------------
         C            0.678632101953     0.685481407483     0.116612724681    12.000000000000
         C            1.818960101953    -0.312181592517    -0.028094275319    12.000000000000
         S           -1.156171898047    -0.141844292517    -0.070690275319    31.972071174400
         H            0.741735101953     1.217006407483     1.069492724681     1.007825032230
         H            0.727370101953     1.438081407483    -0.675001275319     1.007825032230
         H            2.783331101953     0.201384407483     0.038871724681     1.007825032230
         H           -0.859266898047    -0.907867592517     0.981453724681     1.007825032230
         H            1.763470101953    -0.827321592517    -0.989515275319     1.007825032230
         H            1.783160101953    -1.066255592517     0.763290724681     1.007825032230

  Basis Set: AUG-CC-PVTZ
    Blend: AUG-CC-PVTZ
  Basis Set: (AUG-CC-PVTZ AUX)
    Blend: AUG-CC-PVTZ-JKFIT
	 Reference Energy          =    -476.7925775865973037 [Eh]
	 Singles Energy            =      -0.0000000000000000 [Eh]
	 Same-Spin Energy          =      -0.1359803996656895 [Eh]
	 Opposite-Spin Energy      =      -0.4905925260071010 [Eh]
	 Correlation Energy        =      -0.6265729256727905 [Eh]
	 Total Energy              =    -477.4191505122701074 [Eh]

	 ================> DF-SCS-MP2 Energies <==================
	-----------------------------------------------------------
	 SCS Same-Spin Scale       =       0.3333333333333333 [-]
	 SCS Opposite-Spin Scale   =       1.2000000000000000 [-]
	 SCS Same-Spin Energy      =      -0.0453267998885632 [Eh]
	 SCS Opposite-Spin Energy  =      -0.5887110312085212 [Eh]
	 SCS Correlation Energy    =      -0.6340378310970843 [Eh]
	 SCS Total Energy          =    -477.4266154176943928 [Eh]
	-----------------------------------------------------------

  Dipole Moment: [D]
     X:     1.7553      Y:     0.2179      Z:     0.5908     Total:     1.8648

*** Psi4 exiting successfully. Buy a developer a beer!
