                               Psi4 1.3.2 release

  ==> Input File <==

--------------------------------------------------------------------------
#psi4
#
memory 32 gb

molecule  {
0 1
  C        0.4647339     0.7194526    -0.0095838
  C        1.6327480    -0.3514470    -0.0541290
  S       -1.1608460    -0.0992530    -0.0781930
  H        0.5555230     1.1777410     1.0434580
  H        0.5411580     1.3988160    -0.7010360
  H        2.5971190     0.1621190     0.0128370
  H       -1.0454790    -0.9471330     0.9554190
  H        1.5772580    -0.8665870    -1.0155500
  H        1.5969480    -1.1055210     0.7372560
units angstrom
no_reorient  #important for SAPT in psi4, default
symmetry c1  #important for SAPT in psi4, default
}

set PROPERTIES_ORIGIN ["COM"]
properties('MP2/aug-cc-pvtz', properties = ['dipole'])
--------------------------------------------------------------------------

    Molecular point group: c1
  Charge       = 0
  Multiplicity = 1
  Basis Set: AUG-CC-PVTZ
    Blend: AUG-CC-PVTZ
  Basis Set: (AUG-CC-PVTZ AUX)
    Blend: AUG-CC-PVTZ-JKFIT

    Orbital Energies [Eh]
    ---------------------

    Doubly Occupied:

       1A    -91.949422     2A    -11.263003     3A    -11.230591
       4A     -8.950727     5A     -6.632120     6A     -6.631202
       7A     -6.630165     8A     -1.065853     9A     -0.937726
      10A     -0.837666    11A     -0.636284    12A     -0.588789
      13A     -0.552799    14A     -0.528897    15A     -0.505257
      16A     -0.437902    17A     -0.350573

  @DF-RHF Final Energy:  -476.78784964458470

   => Energetics <=

    Nuclear Repulsion Energy =            106.8674169366782394
    One-Electron Energy =                -867.8525767767710022
    Two-Electron Energy =                 284.1973101955081233
    Total Energy =                       -476.7878496445846963
  Basis Set: (AUG-CC-PVTZ AUX)
    Blend: AUG-CC-PVTZ-RI
    Molecular point group: c1

    Geometry (in Angstrom), charge = 0, multiplicity = 1:

       Center              X                  Y                   Z               Mass
    ------------   -----------------  -----------------  -----------------  -----------------
         C            0.562716414704     0.702348729778     0.026277509550    12.000000000000
         C            1.730730514704    -0.368550870222    -0.018267690450    12.000000000000
         S           -1.062863485296    -0.116356870222    -0.042331690450    31.972071174400
         H            0.653505514704     1.160637129778     1.079319309550     1.007825032230
         H            0.639140514704     1.381712129778    -0.665174690450     1.007825032230
         H            2.695101514704     0.145015129778     0.048698309550     1.007825032230
         H           -0.947496485296    -0.964236870222     0.991280309550     1.007825032230
         H            1.675240514704    -0.883690870222    -0.979688690450     1.007825032230
         H            1.694930514704    -1.122624870222     0.773117309550     1.007825032230

  Basis Set: AUG-CC-PVTZ
    Blend: AUG-CC-PVTZ
  Basis Set: (AUG-CC-PVTZ AUX)
    Blend: AUG-CC-PVTZ-JKFIT
	 Reference Energy          =    -476.7878496445846963 [Eh]
	 Singles Energy            =      -0.0000000000000000 [Eh]
	 Same-Spin Energy          =      -0.1363532336011162 [Eh]
	 Opposite-Spin Energy      =      -0.4893033736332288 [Eh]
	 Correlation Energy        =      -0.6256566072343450 [Eh]
	 Total Energy              =    -477.4135062518190580 [Eh]

	 ================> DF-SCS-MP2 Energies <==================
	-----------------------------------------------------------
	 SCS Same-Spin Scale       =       0.3333333333333333 [-]
	 SCS Opposite-Spin Scale   =       1.2000000000000000 [-]
	 SCS Same-Spin Energy      =      -0.0454510778670387 [Eh]
	 SCS Opposite-Spin Energy  =      -0.5871640483598746 [Eh]
	 SCS Correlation Energy    =      -0.6326151262269133 [Eh]
	 SCS Total Energy          =    -477.4204647708116340 [Eh]
	-----------------------------------------------------------

  Dipole Moment: [D]
     X:     1.5503      Y:     0.1463      Z:     0.6365     Total:     1.6822

*** Psi4 exiting successfully. Buy a developer a beer!
