                               Psi4 1.3.2 release

  ==> Input File <==

--------------------------------------------------------------------------
#psi4
#
memory 32 gb

molecule  {
0 1
  C        0.4924200     0.6462160     0.0905780
  C        1.5211940    -0.4630453    -0.0761038
  S       -1.1608460    -0.0992530    -0.0781930
  H        0.5555230     1.1777410     1.0434580
  H        0.5411580     1.3988160    -0.7010360
  H        2.5971190     0.1621190     0.0128370
  H       -1.0454790    -0.9471330     0.9554190
  H        1.5772580    -0.8665870    -1.0155500
  H        1.5969480    -1.1055210     0.7372560
units angstrom
no_reorient  #important for SAPT in psi4, default
symmetry c1  #important for SAPT in psi4, default
}

set PROPERTIES_ORIGIN ["COM"]
properties('MP2/aug-cc-pvtz', properties = ['dipole'])
--------------------------------------------------------------------------

    Molecular point group: c1
  Charge       = 0
  Multiplicity = 1
  Basis Set: AUG-CC-PVTZ
    Blend: AUG-CC-PVTZ
  Basis Set: (AUG-CC-PVTZ AUX)
    Blend: AUG-CC-PVTZ-JKFIT

    Orbital Energies [Eh]
    ---------------------

    Doubly Occupied:

       1A    -91.946668     2A    -11.267255     3A    -11.232813
       4A     -8.948374     5A     -6.629698     6A     -6.628732
       7A     -6.627701     8A     -1.074989     9A     -0.940377
      10A     -0.827777    11A     -0.653714    12A     -0.568594
      13A     -0.564875    14A     -0.542238    15A     -0.496293
      16A     -0.428182    17A     -0.351886

  @DF-RHF Final Energy:  -476.78330233689917

   => Energetics <=

    Nuclear Repulsion Energy =            107.9449859429585814
    One-Electron Energy =                -869.9962449853720727
    Two-Electron Energy =                 285.2679567055142797
    Total Energy =                       -476.7833023368991689
  Basis Set: (AUG-CC-PVTZ AUX)
    Blend: AUG-CC-PVTZ-RI
    Molecular point group: c1

    Geometry (in Angstrom), charge = 0, multiplicity = 1:

       Center              X                  Y                   Z               Mass
    ------------   -----------------  -----------------  -----------------  -----------------
         C            0.606630032936     0.664875654437     0.111310983122    12.000000000000
         C            1.635404032936    -0.444385645563    -0.055370816878    12.000000000000
         S           -1.046635967064    -0.080593345563    -0.057460016878    31.972071174400
         H            0.669733032936     1.196400654437     1.064190983122     1.007825032230
         H            0.655368032936     1.417475654437    -0.680303016878     1.007825032230
         H            2.711329032936     0.180778654437     0.033569983122     1.007825032230
         H           -0.931268967064    -0.928473345563     0.976151983122     1.007825032230
         H            1.691468032936    -0.847927345563    -0.994817016878     1.007825032230
         H            1.711158032936    -1.086861345563     0.757988983122     1.007825032230

  Basis Set: AUG-CC-PVTZ
    Blend: AUG-CC-PVTZ
  Basis Set: (AUG-CC-PVTZ AUX)
    Blend: AUG-CC-PVTZ-JKFIT
	 Reference Energy          =    -476.7833023368991689 [Eh]
	 Singles Energy            =      -0.0000000000000000 [Eh]
	 Same-Spin Energy          =      -0.1372041761783320 [Eh]
	 Opposite-Spin Energy      =      -0.4903155231450673 [Eh]
	 Correlation Energy        =      -0.6275196993233993 [Eh]
	 Total Energy              =    -477.4108220362225552 [Eh]

	 ================> DF-SCS-MP2 Energies <==================
	-----------------------------------------------------------
	 SCS Same-Spin Scale       =       0.3333333333333333 [-]
	 SCS Opposite-Spin Scale   =       1.2000000000000000 [-]
	 SCS Same-Spin Energy      =      -0.0457347253927773 [Eh]
	 SCS Opposite-Spin Energy  =      -0.5883786277740808 [Eh]
	 SCS Correlation Energy    =      -0.6341133531668581 [Eh]
	 SCS Total Energy          =    -477.4174156900660364 [Eh]
	-----------------------------------------------------------

  Dipole Moment: [D]
     X:     1.5232      Y:     0.1074      Z:     0.6213     Total:     1.6486

*** Psi4 exiting successfully. Buy a developer a beer!
