                               Psi4 1.3.2 release

  ==> Input File <==

--------------------------------------------------------------------------
#psi4
#
memory 32 gb

molecule  {
0 1
  C        0.4980874     0.6273250     0.1155090
  C        1.6327480    -0.3514470    -0.0541290
  S       -1.1608460    -0.0992530    -0.0781930
  H        0.5555230     1.1777410     1.0434580
  H        0.5411580     1.3988160    -0.7010360
  H        2.5971190     0.1621190     0.0128370
  H       -1.0454790    -0.9471330     0.9554190
  H        1.5772580    -0.8665870    -1.0155500
  H        1.5969480    -1.1055210     0.7372560
units angstrom
no_reorient  #important for SAPT in psi4, default
symmetry c1  #important for SAPT in psi4, default
}

set PROPERTIES_ORIGIN ["COM"]
properties('MP2/aug-cc-pvtz', properties = ['dipole'])
--------------------------------------------------------------------------

    Molecular point group: c1
  Charge       = 0
  Multiplicity = 1
  Basis Set: AUG-CC-PVTZ
    Blend: AUG-CC-PVTZ
  Basis Set: (AUG-CC-PVTZ AUX)
    Blend: AUG-CC-PVTZ-JKFIT

    Orbital Energies [Eh]
    ---------------------

    Doubly Occupied:

       1A    -91.950332     2A    -11.264074     3A    -11.226444
       4A     -8.951567     5A     -6.632918     6A     -6.631866
       7A     -6.630860     8A     -1.072304     9A     -0.944061
      10A     -0.819321    11A     -0.635826    12A     -0.592288
      13A     -0.555849    14A     -0.525974    15A     -0.488126
      16A     -0.449150    17A     -0.356626

  @DF-RHF Final Energy:  -476.80497938641463

   => Energetics <=

    Nuclear Repulsion Energy =            107.4056338287658861
    One-Electron Energy =                -868.9660509375213451
    Two-Electron Energy =                 284.7554377223408437
    Total Energy =                       -476.8049793864146295
  Basis Set: (AUG-CC-PVTZ AUX)
    Blend: AUG-CC-PVTZ-RI
    Molecular point group: c1

    Geometry (in Angstrom), charge = 0, multiplicity = 1:

       Center              X                  Y                   Z               Mass
    ------------   -----------------  -----------------  -----------------  -----------------
         C            0.589616378495     0.628046809313     0.127166225595    12.000000000000
         C            1.724276978495    -0.350725190687    -0.042471774405    12.000000000000
         S           -1.069317021505    -0.098531190687    -0.066535774405    31.972071174400
         H            0.647051978495     1.178462809313     1.055115225595     1.007825032230
         H            0.632686978495     1.399537809313    -0.689378774405     1.007825032230
         H            2.688647978495     0.162840809313     0.024494225595     1.007825032230
         H           -0.953950021505    -0.946411190687     0.967076225595     1.007825032230
         H            1.668786978495    -0.865865190687    -1.003892774405     1.007825032230
         H            1.688476978495    -1.104799190687     0.748913225595     1.007825032230

  Basis Set: AUG-CC-PVTZ
    Blend: AUG-CC-PVTZ
  Basis Set: (AUG-CC-PVTZ AUX)
    Blend: AUG-CC-PVTZ-JKFIT
	 Reference Energy          =    -476.8049793864146295 [Eh]
	 Singles Energy            =      -0.0000000000000000 [Eh]
	 Same-Spin Energy          =      -0.1369627704786306 [Eh]
	 Opposite-Spin Energy      =      -0.4894697564969118 [Eh]
	 Correlation Energy        =      -0.6264325269755424 [Eh]
	 Total Energy              =    -477.4314119133901499 [Eh]

	 ================> DF-SCS-MP2 Energies <==================
	-----------------------------------------------------------
	 SCS Same-Spin Scale       =       0.3333333333333333 [-]
	 SCS Opposite-Spin Scale   =       1.2000000000000000 [-]
	 SCS Same-Spin Energy      =      -0.0456542568262102 [Eh]
	 SCS Opposite-Spin Energy  =      -0.5873637077962942 [Eh]
	 SCS Correlation Energy    =      -0.6330179646225044 [Eh]
	 SCS Total Energy          =    -477.4379973510371542 [Eh]
	-----------------------------------------------------------

  Dipole Moment: [D]
     X:     1.5208      Y:     0.1343      Z:     0.6364     Total:     1.6541

*** Psi4 exiting successfully. Buy a developer a beer!
