                               Psi4 1.3.2 release

  ==> Input File <==

--------------------------------------------------------------------------
#psi4
#
memory 32 gb

molecule  {
0 1
  C        0.4924200     0.6462160     0.0905780
  C        1.6327480    -0.3514470    -0.0541290
  S       -1.0700770    -0.0583246    -0.0689270
  H        0.5555230     1.1777410     1.0434580
  H        0.5411580     1.3988160    -0.7010360
  H        2.5971190     0.1621190     0.0128370
  H       -1.0454790    -0.9471330     0.9554190
  H        1.5772580    -0.8665870    -1.0155500
  H        1.5969480    -1.1055210     0.7372560
units angstrom
no_reorient  #important for SAPT in psi4, default
symmetry c1  #important for SAPT in psi4, default
}

set PROPERTIES_ORIGIN ["COM"]
properties('MP2/aug-cc-pvtz', properties = ['dipole'])
--------------------------------------------------------------------------

    Molecular point group: c1
  Charge       = 0
  Multiplicity = 1
  Basis Set: AUG-CC-PVTZ
    Blend: AUG-CC-PVTZ
  Basis Set: (AUG-CC-PVTZ AUX)
    Blend: AUG-CC-PVTZ-JKFIT

    Orbital Energies [Eh]
    ---------------------

    Doubly Occupied:

       1A    -91.945916     2A    -11.255692     3A    -11.225617
       4A     -8.949048     5A     -6.630548     6A     -6.629476
       7A     -6.628377     8A     -1.088611     9A     -0.945317
      10A     -0.818115    11A     -0.642036    12A     -0.595611
      13A     -0.561023    14A     -0.524321    15A     -0.501868
      16A     -0.445763    17A     -0.350997

  @DF-RHF Final Energy:  -476.80163550346958

   => Energetics <=

    Nuclear Repulsion Energy =            109.8941010919204189
    One-Electron Energy =                -873.9147977582321118
    Two-Electron Energy =                 287.2190611628420811
    Total Energy =                       -476.8016355034695835
  Basis Set: (AUG-CC-PVTZ AUX)
    Blend: AUG-CC-PVTZ-RI
    Molecular point group: c1

    Geometry (in Angstrom), charge = 0, multiplicity = 1:

       Center              X                  Y                   Z               Mass
    ------------   -----------------  -----------------  -----------------  -----------------
         C            0.538252286321     0.622183182684     0.102282288390    12.000000000000
         C            1.678580286321    -0.375479817316    -0.042424711610    12.000000000000
         S           -1.024244713679    -0.082357417316    -0.057222711610    31.972071174400
         H            0.601355286321     1.153708182684     1.055162288390     1.007825032230
         H            0.586990286321     1.374783182684    -0.689331711610     1.007825032230
         H            2.642951286321     0.138086182684     0.024541288390     1.007825032230
         H           -0.999646713679    -0.971165817316     0.967123288390     1.007825032230
         H            1.623090286321    -0.890619817316    -1.003845711610     1.007825032230
         H            1.642780286321    -1.129553817316     0.748960288390     1.007825032230

  Basis Set: AUG-CC-PVTZ
    Blend: AUG-CC-PVTZ
  Basis Set: (AUG-CC-PVTZ AUX)
    Blend: AUG-CC-PVTZ-JKFIT
	 Reference Energy          =    -476.8016355034695835 [Eh]
	 Singles Energy            =      -0.0000000000000000 [Eh]
	 Same-Spin Energy          =      -0.1375723471425663 [Eh]
	 Opposite-Spin Energy      =      -0.4892224683734742 [Eh]
	 Correlation Energy        =      -0.6267948155160405 [Eh]
	 Total Energy              =    -477.4284303189856473 [Eh]

	 ================> DF-SCS-MP2 Energies <==================
	-----------------------------------------------------------
	 SCS Same-Spin Scale       =       0.3333333333333333 [-]
	 SCS Opposite-Spin Scale   =       1.2000000000000000 [-]
	 SCS Same-Spin Energy      =      -0.0458574490475221 [Eh]
	 SCS Opposite-Spin Energy  =      -0.5870669620481690 [Eh]
	 SCS Correlation Energy    =      -0.6329244110956911 [Eh]
	 SCS Total Energy          =    -477.4345599145652841 [Eh]
	-----------------------------------------------------------

  Dipole Moment: [D]
     X:     1.4674      Y:     0.1293      Z:     0.6559     Total:     1.6125

*** Psi4 exiting successfully. Buy a developer a beer!
