                               Psi4 1.3.2 release

  ==> Input File <==

--------------------------------------------------------------------------
#psi4
#
memory 32 gb

molecule  {
0 1
  C        0.4924200     0.6462160     0.0905780
  C        1.6327480    -0.3514470    -0.0541290
  S       -1.1608460    -0.0992530    -0.0781930
  H        0.5555230     1.1777410     1.0434580
  H        0.5411580     1.3988160    -0.7010360
  H        2.5971190     0.1621190     0.0128370
  H       -1.0282838    -1.0735077     1.1094767
  H        1.5772580    -0.8665870    -1.0155500
  H        1.5969480    -1.1055210     0.7372560
units angstrom
no_reorient  #important for SAPT in psi4, default
symmetry c1  #important for SAPT in psi4, default
}

set PROPERTIES_ORIGIN ["COM"]
properties('MP2/aug-cc-pvtz', properties = ['dipole'])
--------------------------------------------------------------------------

    Molecular point group: c1
  Charge       = 0
  Multiplicity = 1
  Basis Set: AUG-CC-PVTZ
    Blend: AUG-CC-PVTZ
  Basis Set: (AUG-CC-PVTZ AUX)
    Blend: AUG-CC-PVTZ-JKFIT

    Orbital Energies [Eh]
    ---------------------

    Doubly Occupied:

       1A    -91.963972     2A    -11.264458     3A    -11.226944
       4A     -8.961472     5A     -6.642466     6A     -6.641613
       7A     -6.640674     8A     -1.067693     9A     -0.931680
      10A     -0.811851    11A     -0.634068    12A     -0.589317
      13A     -0.545439    14A     -0.518799    15A     -0.486983
      16A     -0.443094    17A     -0.355874

  @DF-RHF Final Energy:  -476.78932672468704

   => Energetics <=

    Nuclear Repulsion Energy =            106.3650032938901688
    One-Electron Energy =                -866.8558666477725865
    Two-Electron Energy =                 283.7015366291954024
    Total Energy =                       -476.7893267246870437
  Basis Set: (AUG-CC-PVTZ AUX)
    Blend: AUG-CC-PVTZ-RI
    Molecular point group: c1

    Geometry (in Angstrom), charge = 0, multiplicity = 1:

       Center              X                  Y                   Z               Mass
    ------------   -----------------  -----------------  -----------------  -----------------
         C            0.584766131780     0.645336229480     0.104555623279    12.000000000000
         C            1.725094131780    -0.352326770520    -0.040151376721    12.000000000000
         S           -1.068499868220    -0.100132770520    -0.064215376721    31.972071174400
         H            0.647869131780     1.176861229480     1.057435623279     1.007825032230
         H            0.633504131780     1.397936229480    -0.687058376721     1.007825032230
         H            2.689465131780     0.161239229480     0.026814623279     1.007825032230
         H           -0.935937668220    -1.074387470520     1.123454323279     1.007825032230
         H            1.669604131780    -0.867466770520    -1.001572376721     1.007825032230
         H            1.689294131780    -1.106400770520     0.751233623279     1.007825032230

  Basis Set: AUG-CC-PVTZ
    Blend: AUG-CC-PVTZ
  Basis Set: (AUG-CC-PVTZ AUX)
    Blend: AUG-CC-PVTZ-JKFIT
	 Reference Energy          =    -476.7893267246870437 [Eh]
	 Singles Energy            =      -0.0000000000000000 [Eh]
	 Same-Spin Energy          =      -0.1367570856102281 [Eh]
	 Opposite-Spin Energy      =      -0.4907811682521231 [Eh]
	 Correlation Energy        =      -0.6275382538623512 [Eh]
	 Total Energy              =    -477.4168649785493699 [Eh]

	 ================> DF-SCS-MP2 Energies <==================
	-----------------------------------------------------------
	 SCS Same-Spin Scale       =       0.3333333333333333 [-]
	 SCS Opposite-Spin Scale   =       1.2000000000000000 [-]
	 SCS Same-Spin Energy      =      -0.0455856952034094 [Eh]
	 SCS Opposite-Spin Energy  =      -0.5889374019025477 [Eh]
	 SCS Correlation Energy    =      -0.6345230971059571 [Eh]
	 SCS Total Energy          =    -477.4238498217929987 [Eh]
	-----------------------------------------------------------

  Dipole Moment: [D]
     X:     1.5375      Y:     0.1772      Z:     0.6028     Total:     1.6609

*** Psi4 exiting successfully. Buy a developer a beer!
