                               Psi4 1.4a3.dev225

  ==> Input File <==

--------------------------------------------------------------------------
#psi4
#
memory 32 gb

molecule  {
0 1
  C        0.4923810     0.6461780     0.0905820
  C        1.6328850    -0.3514040    -0.0541190
  S       -1.1608670    -0.0992960    -0.0782200
  H        0.5555360     1.1778280     1.0433570
  H        0.5408560     1.3987290    -0.7010870
  H        2.5972720     0.1621150     0.0127190
  H       -1.0439957    -0.9592095     0.9713325
  H        1.5772300    -0.8665790    -1.0154790
  H        1.5971020    -1.1054100     0.7373110
units angstrom
no_reorient  #important for SAPT in psi4, default
symmetry c1  #important for SAPT in psi4, default
}

set PROPERTIES_ORIGIN ["COM"]
properties('MP2/aug-cc-pvtz', properties = ['dipole'])
--------------------------------------------------------------------------

    Molecular point group: c1
  Charge       = 0
  Multiplicity = 1
  Basis Set: AUG-CC-PVTZ
    Blend: AUG-CC-PVTZ
  Basis Set: (AUG-CC-PVTZ AUX)
    Blend: AUG-CC-PVTZ-JKFIT

    Orbital Energies [Eh]
    ---------------------

    Doubly Occupied:

       1A    -91.951449     2A    -11.263518     3A    -11.227008
       4A     -8.952231     5A     -6.633545     6A     -6.632557
       7A     -6.631562     8A     -1.070200     9A     -0.941192
      10A     -0.820546    11A     -0.635879    12A     -0.590592
      13A     -0.553354    14A     -0.522575    15A     -0.496569
      16A     -0.446649    17A     -0.355459

  @DF-RHF Final Energy:  -476.80591965055231

   => Energetics <=

    Nuclear Repulsion Energy =            107.1943095485950153
    One-Electron Energy =                -868.5506891893298871
    Two-Electron Energy =                 284.5504599901825600
    Total Energy =                       -476.8059196505523119
  Basis Set: (AUG-CC-PVTZ AUX)
    Blend: AUG-CC-PVTZ-RI
    Molecular point group: c1

    Geometry (in Angstrom), charge = 0, multiplicity = 1:

       Center              X                  Y                   Z               Mass
    ------------   -----------------  -----------------  -----------------  -----------------
         C            0.584974480698     0.643460185515     0.106818052265    12.000000000000
         C            1.725478480698    -0.354121814485    -0.037882947735    12.000000000000
         S           -1.068273519302    -0.102013814485    -0.061983947735    31.972071174400
         H            0.648129480698     1.175110185515     1.059593052265     1.007825032230
         H            0.633449480698     1.396011185515    -0.684850947735     1.007825032230
         H            2.689865480698     0.159397185515     0.028955052265     1.007825032230
         H           -0.951402219302    -0.961927314485     0.987568552265     1.007825032230
         H            1.669823480698    -0.869296814485    -0.999242947735     1.007825032230
         H            1.689695480698    -1.108127814485     0.753547052265     1.007825032230

  Basis Set: AUG-CC-PVTZ
    Blend: AUG-CC-PVTZ
  Basis Set: (AUG-CC-PVTZ AUX)
    Blend: AUG-CC-PVTZ-JKFIT
	 Reference Energy          =    -476.8059196505523119 [Eh]
	 Singles Energy            =      -0.0000000000000000 [Eh]
	 Same-Spin Energy          =      -0.1367586614751998 [Eh]
	 Opposite-Spin Energy      =      -0.4892997746982992 [Eh]
	 Correlation Energy        =      -0.6260584361734990 [Eh]
	 Total Energy              =    -477.4319780867257919 [Eh]

	 ================> DF-SCS-MP2 Energies <==================
	-----------------------------------------------------------
	 SCS Same-Spin Scale       =       0.3333333333333333 [-]
	 SCS Opposite-Spin Scale   =       1.2000000000000000 [-]
	 SCS Same-Spin Energy      =      -0.0455862204917333 [Eh]
	 SCS Opposite-Spin Energy  =      -0.5871597296379590 [Eh]
	 SCS Correlation Energy    =      -0.6327459501296923 [Eh]
	 SCS Total Energy          =    -477.4386656006819862 [Eh]
	-----------------------------------------------------------

  Dipole Moment: [D]
     X:     1.5287      Y:     0.1465      Z:     0.6322     Total:     1.6607

*** Psi4 exiting successfully. Buy a developer a beer!
