                               Psi4 1.4a3.dev225

  ==> Input File <==

--------------------------------------------------------------------------
#psi4
#
memory 32 gb

molecule  {
0 1
  C        0.4923810     0.6461780     0.0905820
  C        1.6328850    -0.3514040    -0.0541190
  S       -1.1790207    -0.1074818    -0.0800736
  H        0.5555360     1.1778280     1.0433570
  H        0.5408560     1.3987290    -0.7010870
  H        2.5972720     0.1621150     0.0127190
  H       -1.0457120    -0.9465810     0.9559190
  H        1.5772300    -0.8665790    -1.0154790
  H        1.5971020    -1.1054100     0.7373110
units angstrom
no_reorient  #important for SAPT in psi4, default
symmetry c1  #important for SAPT in psi4, default
}

set PROPERTIES_ORIGIN ["COM"]
properties('MP2/aug-cc-pvtz', properties = ['dipole'])
--------------------------------------------------------------------------

    Molecular point group: c1
  Charge       = 0
  Multiplicity = 1
  Basis Set: AUG-CC-PVTZ
    Blend: AUG-CC-PVTZ
  Basis Set: (AUG-CC-PVTZ AUX)
    Blend: AUG-CC-PVTZ-JKFIT

    Orbital Energies [Eh]
    ---------------------

    Doubly Occupied:

       1A    -91.950522     2A    -11.265031     3A    -11.227381
       4A     -8.951495     5A     -6.632835     6A     -6.631800
       7A     -6.630807     8A     -1.067754     9A     -0.942102
      10A     -0.822358    11A     -0.635256    12A     -0.590118
      13A     -0.553334    14A     -0.522825    15A     -0.496807
      16A     -0.446358    17A     -0.356141

  @DF-RHF Final Energy:  -476.80612275168528

   => Energetics <=

    Nuclear Repulsion Energy =            106.8032746035553373
    One-Electron Energy =                -867.7729489116786681
    Two-Electron Energy =                 284.1635515564380512
    Total Energy =                       -476.8061227516852796
  Basis Set: (AUG-CC-PVTZ AUX)
    Blend: AUG-CC-PVTZ-RI
    Molecular point group: c1

    Geometry (in Angstrom), charge = 0, multiplicity = 1:

       Center              X                  Y                   Z               Mass
    ------------   -----------------  -----------------  -----------------  -----------------
         C            0.594360973838     0.647474916098     0.108024094228    12.000000000000
         C            1.734864973838    -0.350107083902    -0.036676905772    12.000000000000
         S           -1.077040726162    -0.106184883902    -0.062631505772    31.972071174400
         H            0.657515973838     1.179124916098     1.060799094228     1.007825032230
         H            0.642835973838     1.400025916098    -0.683644905772     1.007825032230
         H            2.699251973838     0.163411916098     0.030161094228     1.007825032230
         H           -0.943732026162    -0.945284083902     0.973361094228     1.007825032230
         H            1.679209973838    -0.865282083902    -0.998036905772     1.007825032230
         H            1.699081973838    -1.104113083902     0.754753094228     1.007825032230

  Basis Set: AUG-CC-PVTZ
    Blend: AUG-CC-PVTZ
  Basis Set: (AUG-CC-PVTZ AUX)
    Blend: AUG-CC-PVTZ-JKFIT
	 Reference Energy          =    -476.8061227516852796 [Eh]
	 Singles Energy            =      -0.0000000000000000 [Eh]
	 Same-Spin Energy          =      -0.1366426567045635 [Eh]
	 Opposite-Spin Energy      =      -0.4892547131386731 [Eh]
	 Correlation Energy        =      -0.6258973698432366 [Eh]
	 Total Energy              =    -477.4320201215285238 [Eh]

	 ================> DF-SCS-MP2 Energies <==================
	-----------------------------------------------------------
	 SCS Same-Spin Scale       =       0.3333333333333333 [-]
	 SCS Opposite-Spin Scale   =       1.2000000000000000 [-]
	 SCS Same-Spin Energy      =      -0.0455475522348545 [Eh]
	 SCS Opposite-Spin Energy  =      -0.5871056557664077 [Eh]
	 SCS Correlation Energy    =      -0.6326532080012622 [Eh]
	 SCS Total Energy          =    -477.4387759596865521 [Eh]
	-----------------------------------------------------------

  Dipole Moment: [D]
     X:     1.5451      Y:     0.1491      Z:     0.6299     Total:     1.6753

*** Psi4 exiting successfully. Buy a developer a beer!
