                               Psi4 1.4a3.dev225

  ==> Input File <==

--------------------------------------------------------------------------
#psi4
#
memory 32 gb

molecule  {
0 1
  C        0.4923810     0.6461780     0.0905820
  C        1.6328850    -0.3514040    -0.0541190
  S       -1.1154827    -0.0788316    -0.0735861
  H        0.5555360     1.1778280     1.0433570
  H        0.5408560     1.3987290    -0.7010870
  H        2.5972720     0.1621150     0.0127190
  H       -1.0457120    -0.9465810     0.9559190
  H        1.5772300    -0.8665790    -1.0154790
  H        1.5971020    -1.1054100     0.7373110
units angstrom
no_reorient  #important for SAPT in psi4, default
symmetry c1  #important for SAPT in psi4, default
}

set PROPERTIES_ORIGIN ["COM"]
properties('MP2/aug-cc-pvtz', properties = ['dipole'])
--------------------------------------------------------------------------

    Molecular point group: c1
  Charge       = 0
  Multiplicity = 1
  Basis Set: AUG-CC-PVTZ
    Blend: AUG-CC-PVTZ
  Basis Set: (AUG-CC-PVTZ AUX)
    Blend: AUG-CC-PVTZ-JKFIT

    Orbital Energies [Eh]
    ---------------------

    Doubly Occupied:

       1A    -91.948064     2A    -11.259527     3A    -11.226243
       4A     -8.950192     5A     -6.631613     6A     -6.630583
       7A     -6.629531     8A     -1.078894     9A     -0.944058
      10A     -0.819989    11A     -0.638789    12A     -0.592974
      13A     -0.557628    14A     -0.523545    15A     -0.499219
      16A     -0.447115    17A     -0.353502

  @DF-RHF Final Energy:  -476.80535596982469

   => Energetics <=

    Nuclear Repulsion Energy =            108.5700146044730019
    One-Electron Energy =                -871.2878047977726510
    Two-Electron Energy =                 285.9124342234749179
    Total Energy =                       -476.8053559698246886
  Basis Set: (AUG-CC-PVTZ AUX)
    Blend: AUG-CC-PVTZ-RI
    Molecular point group: c1

    Geometry (in Angstrom), charge = 0, multiplicity = 1:

       Center              X                  Y                   Z               Mass
    ------------   -----------------  -----------------  -----------------  -----------------
         C            0.561605838180     0.632705153316     0.104679655583    12.000000000000
         C            1.702109838180    -0.364876846684    -0.040021344417    12.000000000000
         S           -1.046257861820    -0.092304446684    -0.059488444417    31.972071174400
         H            0.624760838180     1.164355153316     1.057454655583     1.007825032230
         H            0.610080838180     1.385256153316    -0.686989344417     1.007825032230
         H            2.666496838180     0.148642153316     0.026816655583     1.007825032230
         H           -0.976487161820    -0.960053846684     0.970016655583     1.007825032230
         H            1.646454838180    -0.880051846684    -1.001381344417     1.007825032230
         H            1.666326838180    -1.118882846684     0.751408655583     1.007825032230

  Basis Set: AUG-CC-PVTZ
    Blend: AUG-CC-PVTZ
  Basis Set: (AUG-CC-PVTZ AUX)
    Blend: AUG-CC-PVTZ-JKFIT
	 Reference Energy          =    -476.8053559698246886 [Eh]
	 Singles Energy            =      -0.0000000000000000 [Eh]
	 Same-Spin Energy          =      -0.1371266862485277 [Eh]
	 Opposite-Spin Energy      =      -0.4891364271481482 [Eh]
	 Correlation Energy        =      -0.6262631133966758 [Eh]
	 Total Energy              =    -477.4316190832213920 [Eh]

	 ================> DF-SCS-MP2 Energies <==================
	-----------------------------------------------------------
	 SCS Same-Spin Scale       =       0.3333333333333333 [-]
	 SCS Opposite-Spin Scale   =       1.2000000000000000 [-]
	 SCS Same-Spin Energy      =      -0.0457088954161759 [Eh]
	 SCS Opposite-Spin Energy  =      -0.5869637125777778 [Eh]
	 SCS Correlation Energy    =      -0.6326726079939536 [Eh]
	 SCS Total Energy          =    -477.4380285778186703 [Eh]
	-----------------------------------------------------------

  Dipole Moment: [D]
     X:     1.4929      Y:     0.1343      Z:     0.6459     Total:     1.6321

*** Psi4 exiting successfully. Buy a developer a beer!
