                               Psi4 1.3.2 release

  ==> Input File <==

--------------------------------------------------------------------------
#psi4
#
memory 32 gb

molecule  {
0 1
  C        0.4924200     0.6462160     0.0905780
  C        1.7002463    -0.2708950    -0.0385828
  S       -1.1608460    -0.0992530    -0.0781930
  H        0.5555230     1.1777410     1.0434580
  H        0.5411580     1.3988160    -0.7010360
  H        2.5971190     0.1621190     0.0128370
  H       -1.0454790    -0.9471330     0.9554190
  H        1.5772580    -0.8665870    -1.0155500
  H        1.5969480    -1.1055210     0.7372560
units angstrom
no_reorient  #important for SAPT in psi4, default
symmetry c1  #important for SAPT in psi4, default
}

set PROPERTIES_ORIGIN ["COM"]
properties('MP2/aug-cc-pvtz', properties = ['dipole'])
--------------------------------------------------------------------------

    Molecular point group: c1
  Charge       = 0
  Multiplicity = 1
  Basis Set: AUG-CC-PVTZ
    Blend: AUG-CC-PVTZ
  Basis Set: (AUG-CC-PVTZ AUX)
    Blend: AUG-CC-PVTZ-JKFIT

    Orbital Energies [Eh]
    ---------------------

    Doubly Occupied:

       1A    -91.953212     2A    -11.263135     3A    -11.228034
       4A     -8.954210     5A     -6.635578     6A     -6.634517
       7A     -6.633516     8A     -1.069879     9A     -0.947165
      10A     -0.820933    11A     -0.629097    12A     -0.617306
      13A     -0.551225    14A     -0.506817    15A     -0.484918
      16A     -0.455411    17A     -0.357882

  @DF-RHF Final Energy:  -476.79275610805848

   => Energetics <=

    Nuclear Repulsion Energy =            106.9280413804759462
    One-Electron Energy =                -867.9559240325684186
    Two-Electron Energy =                 284.2351265440339603
    Total Energy =                       -476.7927561080584837
  Basis Set: (AUG-CC-PVTZ AUX)
    Blend: AUG-CC-PVTZ-RI
    Molecular point group: c1

    Geometry (in Angstrom), charge = 0, multiplicity = 1:

       Center              X                  Y                   Z               Mass
    ------------   -----------------  -----------------  -----------------  -----------------
         C            0.571985377916     0.627696680161     0.104051081400    12.000000000000
         C            1.779811677916    -0.289414319839    -0.025109718600    12.000000000000
         S           -1.081280622084    -0.117772319839    -0.064719918600    31.972071174400
         H            0.635088377916     1.159221680161     1.056931081400     1.007825032230
         H            0.620723377916     1.380296680161    -0.687562918600     1.007825032230
         H            2.676684377916     0.143599680161     0.026310081400     1.007825032230
         H           -0.965913622084    -0.965652319839     0.968892081400     1.007825032230
         H            1.656823377916    -0.885106319839    -1.002076918600     1.007825032230
         H            1.676513377916    -1.124040319839     0.750729081400     1.007825032230

  Basis Set: AUG-CC-PVTZ
    Blend: AUG-CC-PVTZ
  Basis Set: (AUG-CC-PVTZ AUX)
    Blend: AUG-CC-PVTZ-JKFIT
	 Reference Energy          =    -476.7927561080584837 [Eh]
	 Singles Energy            =      -0.0000000000000000 [Eh]
	 Same-Spin Energy          =      -0.1369356082511823 [Eh]
	 Opposite-Spin Energy      =      -0.4898346911775029 [Eh]
	 Correlation Energy        =      -0.6267702994286851 [Eh]
	 Total Energy              =    -477.4195264074871830 [Eh]

	 ================> DF-SCS-MP2 Energies <==================
	-----------------------------------------------------------
	 SCS Same-Spin Scale       =       0.3333333333333333 [-]
	 SCS Opposite-Spin Scale   =       1.2000000000000000 [-]
	 SCS Same-Spin Energy      =      -0.0456452027503941 [Eh]
	 SCS Opposite-Spin Energy  =      -0.5878016294130034 [Eh]
	 SCS Correlation Energy    =      -0.6334468321633975 [Eh]
	 SCS Total Energy          =    -477.4262029402218559 [Eh]
	-----------------------------------------------------------

  Dipole Moment: [D]
     X:     1.4560      Y:     0.1730      Z:     0.6452     Total:     1.6019

*** Psi4 exiting successfully. Buy a developer a beer!
