                               Psi4 1.3.2 release

  ==> Input File <==

--------------------------------------------------------------------------
#psi4
#
memory 32 gb

molecule  {
0 1
  C        0.4924200     0.6462160     0.0905780
  C        1.6327480    -0.3514470    -0.0541290
  S       -1.1608460    -0.0992530    -0.0781930
  H        0.5555230     1.1777410     1.0434580
  H        0.5411580     1.3988160    -0.7010360
  H        2.5971190     0.1621190     0.0128370
  H       -1.0454790    -0.9471330     0.9554190
  H        1.5772580    -0.8665870    -1.0155500
  H        1.5969480    -1.1055210     0.7372560
units angstrom
no_reorient  #important for SAPT in psi4, default
symmetry c1  #important for SAPT in psi4, default
}

set PROPERTIES_ORIGIN ["COM"]
properties('MP2/aug-cc-pvtz', properties = ['dipole'])
--------------------------------------------------------------------------

    Molecular point group: c1
  Charge       = 0
  Multiplicity = 1
  Basis Set: AUG-CC-PVTZ
    Blend: AUG-CC-PVTZ
  Basis Set: (AUG-CC-PVTZ AUX)
    Blend: AUG-CC-PVTZ-JKFIT

    Orbital Energies [Eh]
    ---------------------

    Doubly Occupied:

       1A    -91.949874     2A    -11.263448     3A    -11.227030
       4A     -8.951152     5A     -6.632514     6A     -6.631485
       7A     -6.630476     8A     -1.070672     9A     -0.942688
      10A     -0.821702    11A     -0.636145    12A     -0.590835
      13A     -0.554531    14A     -0.522986    15A     -0.497358
      16A     -0.446867    17A     -0.355480

  @DF-RHF Final Energy:  -476.80635829284108

   => Energetics <=

    Nuclear Repulsion Energy =            107.3000618121481438
    One-Electron Energy =                -868.7623511601061637
    Two-Electron Energy =                 284.6559310551169801
    Total Energy =                       -476.8063582928410824
  Basis Set: (AUG-CC-PVTZ AUX)
    Blend: AUG-CC-PVTZ-RI
    Molecular point group: c1

    Geometry (in Angstrom), charge = 0, multiplicity = 1:

       Center              X                  Y                   Z               Mass
    ------------   -----------------  -----------------  -----------------  -----------------
         C            0.585045558198     0.643282608135     0.107059100487    12.000000000000
         C            1.725373558198    -0.354380391865    -0.037647899513    12.000000000000
         S           -1.068220441802    -0.102186391865    -0.061711899513    31.972071174400
         H            0.648148558198     1.174807608135     1.059939100487     1.007825032230
         H            0.633783558198     1.395882608135    -0.684554899513     1.007825032230
         H            2.689744558198     0.159185608135     0.029318100487     1.007825032230
         H           -0.952853441802    -0.950066391865     0.971900100487     1.007825032230
         H            1.669883558198    -0.869520391865    -0.999068899513     1.007825032230
         H            1.689573558198    -1.108454391865     0.753737100487     1.007825032230

  Basis Set: AUG-CC-PVTZ
    Blend: AUG-CC-PVTZ
  Basis Set: (AUG-CC-PVTZ AUX)
    Blend: AUG-CC-PVTZ-JKFIT
	 Reference Energy          =    -476.8063582928410824 [Eh]
	 Singles Energy            =      -0.0000000000000000 [Eh]
	 Same-Spin Energy          =      -0.1367657956146808 [Eh]
	 Opposite-Spin Energy      =      -0.4891944906267308 [Eh]
	 Correlation Energy        =      -0.6259602862414116 [Eh]
	 Total Energy              =    -477.4323185790825050 [Eh]

	 ================> DF-SCS-MP2 Energies <==================
	-----------------------------------------------------------
	 SCS Same-Spin Scale       =       0.3333333333333333 [-]
	 SCS Opposite-Spin Scale   =       1.2000000000000000 [-]
	 SCS Same-Spin Energy      =      -0.0455885985382269 [Eh]
	 SCS Opposite-Spin Energy  =      -0.5870333887520770 [Eh]
	 SCS Correlation Energy    =      -0.6326219872903039 [Eh]
	 SCS Total Energy          =    -477.4389802801313749 [Eh]
	-----------------------------------------------------------

  Dipole Moment: [D]
     X:     1.5288      Y:     0.1437      Z:     0.6343     Total:     1.6614

*** Psi4 exiting successfully. Buy a developer a beer!
