                               Psi4 1.3.2 release

  ==> Input File <==

--------------------------------------------------------------------------
#psi4
#
memory 32 gb

molecule  {
0 1
  C        0.5120516     0.5693475     0.1899175
  C        1.6327480    -0.3514470    -0.0541290
  S       -1.1608460    -0.0992530    -0.0781930
  H        0.5555230     1.1777410     1.0434580
  H        0.5411580     1.3988160    -0.7010360
  H        2.5971190     0.1621190     0.0128370
  H       -1.0454790    -0.9471330     0.9554190
  H        1.5772580    -0.8665870    -1.0155500
  H        1.5969480    -1.1055210     0.7372560
units angstrom
no_reorient  #important for SAPT in psi4, default
symmetry c1  #important for SAPT in psi4, default
}

set PROPERTIES_ORIGIN ["COM"]
properties('MP2/aug-cc-pvtz', properties = ['dipole'])
--------------------------------------------------------------------------

    Molecular point group: c1
  Charge       = 0
  Multiplicity = 1
  Basis Set: AUG-CC-PVTZ
    Blend: AUG-CC-PVTZ
  Basis Set: (AUG-CC-PVTZ AUX)
    Blend: AUG-CC-PVTZ-JKFIT

    Orbital Energies [Eh]
    ---------------------

    Doubly Occupied:

       1A    -91.952507     2A    -11.267326     3A    -11.225521
       4A     -8.953533     5A     -6.634844     6A     -6.633736
       7A     -6.632730     8A     -1.077934     9A     -0.948465
      10A     -0.815177    11A     -0.634329    12A     -0.599144
      13A     -0.561557    14A     -0.530941    15A     -0.459403
      16A     -0.455177    17A     -0.359977

  @DF-RHF Final Energy:  -476.78996820001265

   => Energetics <=

    Nuclear Repulsion Energy =            107.7001032276469488
    One-Electron Energy =                -869.4955396302468671
    Two-Electron Energy =                 285.0054682025872239
    Total Energy =                       -476.7899682000126518
  Basis Set: (AUG-CC-PVTZ AUX)
    Blend: AUG-CC-PVTZ-RI
    Molecular point group: c1

    Geometry (in Angstrom), charge = 0, multiplicity = 1:

       Center              X                  Y                   Z               Mass
    ------------   -----------------  -----------------  -----------------  -----------------
         C            0.600878659047     0.581287319283     0.187177497449    12.000000000000
         C            1.721575059047    -0.339507180717    -0.056869002551    12.000000000000
         S           -1.072018940953    -0.087313180717    -0.080933002551    31.972071174400
         H            0.644350059047     1.189680819283     1.040717997449     1.007825032230
         H            0.629985059047     1.410755819283    -0.703776002551     1.007825032230
         H            2.685946059047     0.174058819283     0.010096997449     1.007825032230
         H           -0.956651940953    -0.935193180717     0.952678997449     1.007825032230
         H            1.666085059047    -0.854647180717    -1.018290002551     1.007825032230
         H            1.685775059047    -1.093581180717     0.734515997449     1.007825032230

  Basis Set: AUG-CC-PVTZ
    Blend: AUG-CC-PVTZ
  Basis Set: (AUG-CC-PVTZ AUX)
    Blend: AUG-CC-PVTZ-JKFIT
	 Reference Energy          =    -476.7899682000126518 [Eh]
	 Singles Energy            =      -0.0000000000000000 [Eh]
	 Same-Spin Energy          =      -0.1377507945312005 [Eh]
	 Opposite-Spin Energy      =      -0.4909122146429380 [Eh]
	 Correlation Energy        =      -0.6286630091741385 [Eh]
	 Total Energy              =    -477.4186312091867990 [Eh]

	 ================> DF-SCS-MP2 Energies <==================
	-----------------------------------------------------------
	 SCS Same-Spin Scale       =       0.3333333333333333 [-]
	 SCS Opposite-Spin Scale   =       1.2000000000000000 [-]
	 SCS Same-Spin Energy      =      -0.0459169315104002 [Eh]
	 SCS Opposite-Spin Energy  =      -0.5890946575715256 [Eh]
	 SCS Correlation Energy    =      -0.6350115890819258 [Eh]
	 SCS Total Energy          =    -477.4249797890945501 [Eh]
	-----------------------------------------------------------

  Dipole Moment: [D]
     X:     1.4919      Y:     0.0858      Z:     0.6492     Total:     1.6293

*** Psi4 exiting successfully. Buy a developer a beer!
