                               Psi4 1.3.2 release

  ==> Input File <==

--------------------------------------------------------------------------
#psi4
#
memory 32 gb

molecule  {
0 1
  C        0.4479110     0.7545968    -0.0598206
  C        1.6327480    -0.3514470    -0.0541290
  S       -1.1608460    -0.0992530    -0.0781930
  H        0.5555230     1.1777410     1.0434580
  H        0.5411580     1.3988160    -0.7010360
  H        2.5971190     0.1621190     0.0128370
  H       -1.0454790    -0.9471330     0.9554190
  H        1.5772580    -0.8665870    -1.0155500
  H        1.5969480    -1.1055210     0.7372560
units angstrom
no_reorient  #important for SAPT in psi4, default
symmetry c1  #important for SAPT in psi4, default
}

set PROPERTIES_ORIGIN ["COM"]
properties('MP2/aug-cc-pvtz', properties = ['dipole'])
--------------------------------------------------------------------------

    Molecular point group: c1
  Charge       = 0
  Multiplicity = 1
  Basis Set: AUG-CC-PVTZ
    Blend: AUG-CC-PVTZ
  Basis Set: (AUG-CC-PVTZ AUX)
    Blend: AUG-CC-PVTZ-JKFIT

    Orbital Energies [Eh]
    ---------------------

    Doubly Occupied:

       1A    -91.950034     2A    -11.263994     3A    -11.232983
       4A     -8.951262     5A     -6.632664     6A     -6.631813
       7A     -6.630752     8A     -1.064735     9A     -0.935619
      10A     -0.849698    11A     -0.635852    12A     -0.589740
      13A     -0.553345    14A     -0.539710    15A     -0.495133
      16A     -0.433477    17A     -0.347811

  @DF-RHF Final Energy:  -476.76071463162560

   => Energetics <=

    Nuclear Repulsion Energy =            106.6582362262195716
    One-Electron Energy =                -867.3606567028588188
    Two-Electron Energy =                 283.9417058450135869
    Total Energy =                       -476.7607146316256035
  Basis Set: (AUG-CC-PVTZ AUX)
    Blend: AUG-CC-PVTZ-RI
    Molecular point group: c1

    Geometry (in Angstrom), charge = 0, multiplicity = 1:

       Center              X                  Y                   Z               Mass
    ------------   -----------------  -----------------  -----------------  -----------------
         C            0.549148561229     0.730692912772    -0.014239020979    12.000000000000
         C            1.733985561229    -0.375350887228    -0.008547420979    12.000000000000
         S           -1.059608438771    -0.123156887228    -0.032611420979    31.972071174400
         H            0.656760561229     1.153837112772     1.089039579021     1.007825032230
         H            0.642395561229     1.374912112772    -0.655454420979     1.007825032230
         H            2.698356561229     0.138215112772     0.058418579021     1.007825032230
         H           -0.944241438771    -0.971036887228     1.001000579021     1.007825032230
         H            1.678495561229    -0.890490887228    -0.969968420979     1.007825032230
         H            1.698185561229    -1.129424887228     0.782837579021     1.007825032230

  Basis Set: AUG-CC-PVTZ
    Blend: AUG-CC-PVTZ
  Basis Set: (AUG-CC-PVTZ AUX)
    Blend: AUG-CC-PVTZ-JKFIT
	 Reference Energy          =    -476.7607146316256035 [Eh]
	 Singles Energy            =      -0.0000000000000000 [Eh]
	 Same-Spin Energy          =      -0.1363893389255900 [Eh]
	 Opposite-Spin Energy      =      -0.4901613541048705 [Eh]
	 Correlation Energy        =      -0.6265506930304605 [Eh]
	 Total Energy              =    -477.3872653246560844 [Eh]

	 ================> DF-SCS-MP2 Energies <==================
	-----------------------------------------------------------
	 SCS Same-Spin Scale       =       0.3333333333333333 [-]
	 SCS Opposite-Spin Scale   =       1.2000000000000000 [-]
	 SCS Same-Spin Energy      =      -0.0454631129751967 [Eh]
	 SCS Opposite-Spin Energy  =      -0.5881936249258446 [Eh]
	 SCS Correlation Energy    =      -0.6336567379010413 [Eh]
	 SCS Total Energy          =    -477.3943713695266524 [Eh]
	-----------------------------------------------------------

  Dipole Moment: [D]
     X:     1.5544      Y:     0.1266      Z:     0.6429     Total:     1.6868

*** Psi4 exiting successfully. Buy a developer a beer!
