                               Psi4 1.3.2 release

  ==> Input File <==

--------------------------------------------------------------------------
#psi4
#
memory 32 gb

molecule  {
0 1
  C        0.4924200     0.6462160     0.0905780
  C        1.6672128    -0.3117546    -0.0464393
  S       -1.1608460    -0.0992530    -0.0781930
  H        0.5555230     1.1777410     1.0434580
  H        0.5411580     1.3988160    -0.7010360
  H        2.5971190     0.1621190     0.0128370
  H       -1.0454790    -0.9471330     0.9554190
  H        1.5772580    -0.8665870    -1.0155500
  H        1.5969480    -1.1055210     0.7372560
units angstrom
no_reorient  #important for SAPT in psi4, default
symmetry c1  #important for SAPT in psi4, default
}

set PROPERTIES_ORIGIN ["COM"]
properties('MP2/aug-cc-pvtz', properties = ['dipole'])
--------------------------------------------------------------------------

    Molecular point group: c1
  Charge       = 0
  Multiplicity = 1
  Basis Set: AUG-CC-PVTZ
    Blend: AUG-CC-PVTZ
  Basis Set: (AUG-CC-PVTZ AUX)
    Blend: AUG-CC-PVTZ-JKFIT

    Orbital Energies [Eh]
    ---------------------

    Doubly Occupied:

       1A    -91.951433     2A    -11.263051     3A    -11.227063
       4A     -8.952570     5A     -6.633937     6A     -6.632891
       7A     -6.631887     8A     -1.070064     9A     -0.944578
      10A     -0.820783    11A     -0.632134    12A     -0.603846
      13A     -0.552415    14A     -0.514452    15A     -0.492595
      16A     -0.451550    17A     -0.356652

  @DF-RHF Final Energy:  -476.80308978130472

   => Energetics <=

    Nuclear Repulsion Energy =            107.1065587420000895
    One-Electron Energy =                -868.3554961030322374
    Two-Electron Energy =                 284.4458475797274559
    Total Energy =                       -476.8030897813047204
  Basis Set: (AUG-CC-PVTZ AUX)
    Blend: AUG-CC-PVTZ-RI
    Molecular point group: c1

    Geometry (in Angstrom), charge = 0, multiplicity = 1:

       Center              X                  Y                   Z               Mass
    ------------   -----------------  -----------------  -----------------  -----------------
         C            0.578376997636     0.635602564343     0.105571227928    12.000000000000
         C            1.753169797636    -0.322368035657    -0.031446072072    12.000000000000
         S           -1.074889002364    -0.109866435657    -0.063199772072    31.972071174400
         H            0.641479997636     1.167127564343     1.058451227928     1.007825032230
         H            0.627114997636     1.388202564343    -0.686042772072     1.007825032230
         H            2.683075997636     0.151505564343     0.027830227928     1.007825032230
         H           -0.959522002364    -0.957746435657     0.970412227928     1.007825032230
         H            1.663214997636    -0.877200435657    -1.000556772072     1.007825032230
         H            1.682904997636    -1.116134435657     0.752249227928     1.007825032230

  Basis Set: AUG-CC-PVTZ
    Blend: AUG-CC-PVTZ
  Basis Set: (AUG-CC-PVTZ AUX)
    Blend: AUG-CC-PVTZ-JKFIT
	 Reference Energy          =    -476.8030897813047204 [Eh]
	 Singles Energy            =      -0.0000000000000000 [Eh]
	 Same-Spin Energy          =      -0.1368026319284731 [Eh]
	 Opposite-Spin Energy      =      -0.4893627433929607 [Eh]
	 Correlation Energy        =      -0.6261653753214338 [Eh]
	 Total Energy              =    -477.4292551566261409 [Eh]

	 ================> DF-SCS-MP2 Energies <==================
	-----------------------------------------------------------
	 SCS Same-Spin Scale       =       0.3333333333333333 [-]
	 SCS Opposite-Spin Scale   =       1.2000000000000000 [-]
	 SCS Same-Spin Energy      =      -0.0456008773094910 [Eh]
	 SCS Opposite-Spin Energy  =      -0.5872352920715528 [Eh]
	 SCS Correlation Energy    =      -0.6328361693810438 [Eh]
	 SCS Total Energy          =    -477.4359259506857711 [Eh]
	-----------------------------------------------------------

  Dipole Moment: [D]
     X:     1.5000      Y:     0.1577      Z:     0.6395     Total:     1.6383

*** Psi4 exiting successfully. Buy a developer a beer!
