                               Psi4 1.4a3.dev225

  ==> Input File <==

--------------------------------------------------------------------------
#psi4
#
memory 32 gb

molecule  {
0 1
  C        0.4923810     0.6461780     0.0905820
  C        1.6328850    -0.3514040    -0.0541190
  S       -1.1427133    -0.0911102    -0.0763664
  H        0.5555360     1.1778280     1.0433570
  H        0.5408560     1.3987290    -0.7010870
  H        2.5972720     0.1621150     0.0127190
  H       -1.0457120    -0.9465810     0.9559190
  H        1.5772300    -0.8665790    -1.0154790
  H        1.5971020    -1.1054100     0.7373110
units angstrom
no_reorient  #important for SAPT in psi4, default
symmetry c1  #important for SAPT in psi4, default
}

set PROPERTIES_ORIGIN ["COM"]
properties('MP2/aug-cc-pvtz', properties = ['dipole'])
--------------------------------------------------------------------------

    Molecular point group: c1
  Charge       = 0
  Multiplicity = 1
  Basis Set: AUG-CC-PVTZ
    Blend: AUG-CC-PVTZ
  Basis Set: (AUG-CC-PVTZ AUX)
    Blend: AUG-CC-PVTZ-JKFIT

    Orbital Energies [Eh]
    ---------------------

    Doubly Occupied:

       1A    -91.949191     2A    -11.261869     3A    -11.226695
       4A     -8.950792     5A     -6.632177     6A     -6.631150
       7A     -6.630125     8A     -1.073782     9A     -0.943255
      10A     -0.821034    11A     -0.637132    12A     -0.591630
      13A     -0.555727    14A     -0.523186    15A     -0.497991
      16A     -0.447174    17A     -0.354752

  @DF-RHF Final Energy:  -476.80624681711470

   => Energetics <=

    Nuclear Repulsion Energy =            107.8012926066877952
    One-Electron Energy =                -869.7597548879657552
    Two-Electron Energy =                 285.1522154641633051
    Total Energy =                       -476.8062468171146975
  Basis Set: (AUG-CC-PVTZ AUX)
    Blend: AUG-CC-PVTZ-RI
    Molecular point group: c1

    Geometry (in Angstrom), charge = 0, multiplicity = 1:

       Center              X                  Y                   Z               Mass
    ------------   -----------------  -----------------  -----------------  -----------------
         C            0.575643768191     0.639035022193     0.106112956973    12.000000000000
         C            1.716147768191    -0.358546977807    -0.038588043027    12.000000000000
         S           -1.059450531809    -0.098253177807    -0.060835443027    31.972071174400
         H            0.638798768191     1.170685022193     1.058887956973     1.007825032230
         H            0.624118768191     1.391586022193    -0.685556043027     1.007825032230
         H            2.680534768191     0.154972022193     0.028249956973     1.007825032230
         H           -0.962449231809    -0.953723977807     0.971449956973     1.007825032230
         H            1.660492768191    -0.873721977807    -0.999948043027     1.007825032230
         H            1.680364768191    -1.112552977807     0.752841956973     1.007825032230

  Basis Set: AUG-CC-PVTZ
    Blend: AUG-CC-PVTZ
  Basis Set: (AUG-CC-PVTZ AUX)
    Blend: AUG-CC-PVTZ-JKFIT
	 Reference Energy          =    -476.8062468171146975 [Eh]
	 Singles Energy            =      -0.0000000000000000 [Eh]
	 Same-Spin Energy          =      -0.1369005807446871 [Eh]
	 Opposite-Spin Energy      =      -0.4891549377048258 [Eh]
	 Correlation Energy        =      -0.6260555184495129 [Eh]
	 Total Energy              =    -477.4323023355642022 [Eh]

	 ================> DF-SCS-MP2 Energies <==================
	-----------------------------------------------------------
	 SCS Same-Spin Scale       =       0.3333333333333333 [-]
	 SCS Opposite-Spin Scale   =       1.2000000000000000 [-]
	 SCS Same-Spin Energy      =      -0.0456335269148957 [Eh]
	 SCS Opposite-Spin Energy  =      -0.5869859252457909 [Eh]
	 SCS Correlation Energy    =      -0.6326194521606865 [Eh]
	 SCS Total Energy          =    -477.4388662692753655 [Eh]
	-----------------------------------------------------------

  Dipole Moment: [D]
     X:     1.5130      Y:     0.1396      Z:     0.6392     Total:     1.6484

*** Psi4 exiting successfully. Buy a developer a beer!
