                               Psi4 1.3.2 release

  ==> Input File <==

--------------------------------------------------------------------------
#psi4
#
memory 32 gb

molecule  {
0 1
  C        0.4924200     0.6462160     0.0905780
  C        1.6327480    -0.3514470    -0.0541290
  S       -0.9793080    -0.0173963    -0.0596610
  H        0.5555230     1.1777410     1.0434580
  H        0.5411580     1.3988160    -0.7010360
  H        2.5971190     0.1621190     0.0128370
  H       -1.0454790    -0.9471330     0.9554190
  H        1.5772580    -0.8665870    -1.0155500
  H        1.5969480    -1.1055210     0.7372560
units angstrom
no_reorient  #important for SAPT in psi4, default
symmetry c1  #important for SAPT in psi4, default
}

set PROPERTIES_ORIGIN ["COM"]
properties('MP2/aug-cc-pvtz', properties = ['dipole'])
--------------------------------------------------------------------------

    Molecular point group: c1
  Charge       = 0
  Multiplicity = 1
  Basis Set: AUG-CC-PVTZ
    Blend: AUG-CC-PVTZ
  Basis Set: (AUG-CC-PVTZ AUX)
    Blend: AUG-CC-PVTZ-JKFIT

    Orbital Energies [Eh]
    ---------------------

    Doubly Occupied:

       1A    -91.940546     2A    -11.248328     3A    -11.224831
       4A     -8.946300     5A     -6.628087     6A     -6.626644
       7A     -6.625488     8A     -1.112742     9A     -0.947806
      10A     -0.813695    11A     -0.650466    12A     -0.602301
      13A     -0.568640    14A     -0.526575    15A     -0.508643
      16A     -0.439128    17A     -0.344313

  @DF-RHF Final Energy:  -476.78331684213288

   => Energetics <=

    Nuclear Repulsion Energy =            112.7129759223332570
    One-Electron Energy =                -879.4835179956861566
    Two-Electron Energy =                 289.9872252312200089
    Total Energy =                       -476.7833168421328764
  Basis Set: (AUG-CC-PVTZ AUX)
    Blend: AUG-CC-PVTZ-RI
    Molecular point group: c1

    Geometry (in Angstrom), charge = 0, multiplicity = 1:

       Center              X                  Y                   Z               Mass
    ------------   -----------------  -----------------  -----------------  -----------------
         C            0.491459014443     0.601083808786     0.097505476293    12.000000000000
         C            1.631787014443    -0.396579191214    -0.047201523707    12.000000000000
         S           -0.980268985557    -0.062528491214    -0.052733523707    31.972071174400
         H            0.554562014443     1.132608808786     1.050385476293     1.007825032230
         H            0.540197014443     1.353683808786    -0.694108523707     1.007825032230
         H            2.596158014443     0.116986808786     0.019764476293     1.007825032230
         H           -1.046439985557    -0.992265191214     0.962346476293     1.007825032230
         H            1.576297014443    -0.911719191214    -1.008622523707     1.007825032230
         H            1.595987014443    -1.150653191214     0.744183476293     1.007825032230

  Basis Set: AUG-CC-PVTZ
    Blend: AUG-CC-PVTZ
  Basis Set: (AUG-CC-PVTZ AUX)
    Blend: AUG-CC-PVTZ-JKFIT
	 Reference Energy          =    -476.7833168421328764 [Eh]
	 Singles Energy            =      -0.0000000000000000 [Eh]
	 Same-Spin Energy          =      -0.1387570419837051 [Eh]
	 Opposite-Spin Energy      =      -0.4898858317721628 [Eh]
	 Correlation Energy        =      -0.6286428737558679 [Eh]
	 Total Energy              =    -477.4119597158887700 [Eh]

	 ================> DF-SCS-MP2 Energies <==================
	-----------------------------------------------------------
	 SCS Same-Spin Scale       =       0.3333333333333333 [-]
	 SCS Opposite-Spin Scale   =       1.2000000000000000 [-]
	 SCS Same-Spin Energy      =      -0.0462523473279017 [Eh]
	 SCS Opposite-Spin Energy  =      -0.5878629981265954 [Eh]
	 SCS Correlation Energy    =      -0.6341153454544971 [Eh]
	 SCS Total Energy          =    -477.4174321875873943 [Eh]
	-----------------------------------------------------------

  Dipole Moment: [D]
     X:     1.4457      Y:     0.1381      Z:     0.6695     Total:     1.5991

*** Psi4 exiting successfully. Buy a developer a beer!
