                               Psi4 1.4a3.dev225

  ==> Input File <==

--------------------------------------------------------------------------
#psi4
#
memory 32 gb

molecule  {
0 1
  C        0.4923810     0.6461780     0.0905820
  C        1.6328850    -0.3514040    -0.0541190
  S       -1.1608670    -0.0992960    -0.0782200
  H        0.5555360     1.1778280     1.0433570
  H        0.5408560     1.3987290    -0.7010870
  H        2.5972720     0.1621150     0.0127190
  H       -1.0474283    -0.9339525     0.9405055
  H        1.5772300    -0.8665790    -1.0154790
  H        1.5971020    -1.1054100     0.7373110
units angstrom
no_reorient  #important for SAPT in psi4, default
symmetry c1  #important for SAPT in psi4, default
}

set PROPERTIES_ORIGIN ["COM"]
properties('MP2/aug-cc-pvtz', properties = ['dipole'])
--------------------------------------------------------------------------

    Molecular point group: c1
  Charge       = 0
  Multiplicity = 1
  Basis Set: AUG-CC-PVTZ
    Blend: AUG-CC-PVTZ
  Basis Set: (AUG-CC-PVTZ AUX)
    Blend: AUG-CC-PVTZ-JKFIT

    Orbital Energies [Eh]
    ---------------------

    Doubly Occupied:

       1A    -91.948272     2A    -11.263377     3A    -11.227046
       4A     -8.950077     5A     -6.631493     6A     -6.630410
       7A     -6.629387     8A     -1.071164     9A     -0.944297
      10A     -0.822892    11A     -0.636428    12A     -0.591102
      13A     -0.555698    14A     -0.523390    15A     -0.498036
      16A     -0.447122    17A     -0.355524

  @DF-RHF Final Energy:  -476.80639513211696

   => Energetics <=

    Nuclear Repulsion Energy =            107.4055642009454488
    One-Electron Energy =                -868.9724903962287499
    Two-Electron Energy =                 284.7605310631662974
    Total Energy =                       -476.8063951321169611
  Basis Set: (AUG-CC-PVTZ AUX)
    Blend: AUG-CC-PVTZ-RI
    Molecular point group: c1

    Geometry (in Angstrom), charge = 0, multiplicity = 1:

       Center              X                  Y                   Z               Mass
    ------------   -----------------  -----------------  -----------------  -----------------
         C            0.585030261330     0.643049752776     0.107318998935    12.000000000000
         C            1.725534261330    -0.354532247224    -0.037382001065    12.000000000000
         S           -1.068217738670    -0.102424247224    -0.061483001065    31.972071174400
         H            0.648185261330     1.174699752776     1.060093998935     1.007825032230
         H            0.633505261330     1.395600752776    -0.684350001065     1.007825032230
         H            2.689921261330     0.158986752776     0.029455998935     1.007825032230
         H           -0.954779038670    -0.937080747224     0.957242498935     1.007825032230
         H            1.669879261330    -0.869707247224    -0.998742001065     1.007825032230
         H            1.689751261330    -1.108538247224     0.754047998935     1.007825032230

  Basis Set: AUG-CC-PVTZ
    Blend: AUG-CC-PVTZ
  Basis Set: (AUG-CC-PVTZ AUX)
    Blend: AUG-CC-PVTZ-JKFIT
	 Reference Energy          =    -476.8063951321169611 [Eh]
	 Singles Energy            =      -0.0000000000000000 [Eh]
	 Same-Spin Energy          =      -0.1367746793373507 [Eh]
	 Opposite-Spin Energy      =      -0.4891025499369664 [Eh]
	 Correlation Energy        =      -0.6258772292743171 [Eh]
	 Total Energy              =    -477.4322723613912558 [Eh]

	 ================> DF-SCS-MP2 Energies <==================
	-----------------------------------------------------------
	 SCS Same-Spin Scale       =       0.3333333333333333 [-]
	 SCS Opposite-Spin Scale   =       1.2000000000000000 [-]
	 SCS Same-Spin Energy      =      -0.0455915597791169 [Eh]
	 SCS Opposite-Spin Energy  =      -0.5869230599243597 [Eh]
	 SCS Correlation Energy    =      -0.6325146197034766 [Eh]
	 SCS Total Energy          =    -477.4389097518204608 [Eh]
	-----------------------------------------------------------

  Dipole Moment: [D]
     X:     1.5281      Y:     0.1417      Z:     0.6368     Total:     1.6615

*** Psi4 exiting successfully. Buy a developer a beer!
