                               Psi4 1.3.2 release

  ==> Input File <==

--------------------------------------------------------------------------
#psi4
#
memory 32 gb

molecule  {
0 1
  C        0.4924200     0.6462160     0.0905780
  C        1.6327480    -0.3514470    -0.0541290
  S       -1.2516150    -0.1401814    -0.0874590
  H        0.5555230     1.1777410     1.0434580
  H        0.5411580     1.3988160    -0.7010360
  H        2.5971190     0.1621190     0.0128370
  H       -1.0454790    -0.9471330     0.9554190
  H        1.5772580    -0.8665870    -1.0155500
  H        1.5969480    -1.1055210     0.7372560
units angstrom
no_reorient  #important for SAPT in psi4, default
symmetry c1  #important for SAPT in psi4, default
}

set PROPERTIES_ORIGIN ["COM"]
properties('MP2/aug-cc-pvtz', properties = ['dipole'])
--------------------------------------------------------------------------

    Molecular point group: c1
  Charge       = 0
  Multiplicity = 1
  Basis Set: AUG-CC-PVTZ
    Blend: AUG-CC-PVTZ
  Basis Set: (AUG-CC-PVTZ AUX)
    Blend: AUG-CC-PVTZ-JKFIT

    Orbital Energies [Eh]
    ---------------------

    Doubly Occupied:

       1A    -91.952635     2A    -11.271490     3A    -11.229040
       4A     -8.952555     5A     -6.633809     6A     -6.632757
       7A     -6.631800     8A     -1.058218     9A     -0.939386
      10A     -0.824876    11A     -0.632594    12A     -0.588036
      13A     -0.549093    14A     -0.522436    15A     -0.495947
      16A     -0.441790    17A     -0.358040

  @DF-RHF Final Energy:  -476.80226512400327

   => Energetics <=

    Nuclear Repulsion Energy =            104.8933917469396278
    One-Electron Energy =                -863.9623113486971988
    Two-Electron Energy =                 282.2666544777542867
    Total Energy =                       -476.8022651240032701
  Basis Set: (AUG-CC-PVTZ AUX)
    Blend: AUG-CC-PVTZ-RI
    Molecular point group: c1

    Geometry (in Angstrom), charge = 0, multiplicity = 1:

       Center              X                  Y                   Z               Mass
    ------------   -----------------  -----------------  -----------------  -----------------
         C            0.631838830075     0.664382033585     0.111835912584    12.000000000000
         C            1.772166830075    -0.333280966415    -0.032871087416    12.000000000000
         S           -1.112196169925    -0.122015366415    -0.066201087416    31.972071174400
         H            0.694941830075     1.195907033585     1.064715912584     1.007825032230
         H            0.680576830075     1.416982033585    -0.679778087416     1.007825032230
         H            2.736537830075     0.180285033585     0.034094912584     1.007825032230
         H           -0.906060169925    -0.928966966415     0.976676912584     1.007825032230
         H            1.716676830075    -0.848420966415    -0.994292087416     1.007825032230
         H            1.736366830075    -1.087354966415     0.758513912584     1.007825032230

  Basis Set: AUG-CC-PVTZ
    Blend: AUG-CC-PVTZ
  Basis Set: (AUG-CC-PVTZ AUX)
    Blend: AUG-CC-PVTZ-JKFIT
	 Reference Energy          =    -476.8022651240032701 [Eh]
	 Singles Energy            =      -0.0000000000000000 [Eh]
	 Same-Spin Energy          =      -0.1362583442281460 [Eh]
	 Opposite-Spin Energy      =      -0.4896853747749493 [Eh]
	 Correlation Energy        =      -0.6259437190030953 [Eh]
	 Total Energy              =    -477.4282088430063595 [Eh]

	 ================> DF-SCS-MP2 Energies <==================
	-----------------------------------------------------------
	 SCS Same-Spin Scale       =       0.3333333333333333 [-]
	 SCS Opposite-Spin Scale   =       1.2000000000000000 [-]
	 SCS Same-Spin Energy      =      -0.0454194480760487 [Eh]
	 SCS Opposite-Spin Energy  =      -0.5876224497299392 [Eh]
	 SCS Correlation Energy    =      -0.6330418978059879 [Eh]
	 SCS Total Energy          =    -477.4353070218092512 [Eh]
	-----------------------------------------------------------

  Dipole Moment: [D]
     X:     1.6266      Y:     0.1751      Z:     0.6113     Total:     1.7465

*** Psi4 exiting successfully. Buy a developer a beer!
