                               Psi4 1.3.2 release

  ==> Input File <==

--------------------------------------------------------------------------
#psi4
#
memory 32 gb

molecule  {
0 1
  C        0.4862490     0.6648799     0.0655956
  C        1.6327480    -0.3514470    -0.0541290
  S       -1.1608460    -0.0992530    -0.0781930
  H        0.5555230     1.1777410     1.0434580
  H        0.5411580     1.3988160    -0.7010360
  H        2.5971190     0.1621190     0.0128370
  H       -1.0454790    -0.9471330     0.9554190
  H        1.5772580    -0.8665870    -1.0155500
  H        1.5969480    -1.1055210     0.7372560
units angstrom
no_reorient  #important for SAPT in psi4, default
symmetry c1  #important for SAPT in psi4, default
}

set PROPERTIES_ORIGIN ["COM"]
properties('MP2/aug-cc-pvtz', properties = ['dipole'])
--------------------------------------------------------------------------

    Molecular point group: c1
  Charge       = 0
  Multiplicity = 1
  Basis Set: AUG-CC-PVTZ
    Blend: AUG-CC-PVTZ
  Basis Set: (AUG-CC-PVTZ AUX)
    Blend: AUG-CC-PVTZ-JKFIT

    Orbital Energies [Eh]
    ---------------------

    Doubly Occupied:

       1A    -91.949553     2A    -11.263034     3A    -11.227745
       4A     -8.950860     5A     -6.632231     6A     -6.631227
       7A     -6.630214     8A     -1.069192     9A     -0.941366
      10A     -0.824689    11A     -0.636352    12A     -0.589776
      13A     -0.553614    14A     -0.519398    15A     -0.506049
      16A     -0.444601    17A     -0.354310

  @DF-RHF Final Energy:  -476.80556785239332

   => Energetics <=

    Nuclear Repulsion Energy =            107.1924635354205861
    One-Electron Energy =                -868.5476393044347105
    Two-Electron Energy =                 284.5496079166207437
    Total Energy =                       -476.8055678523933238
  Basis Set: (AUG-CC-PVTZ AUX)
    Blend: AUG-CC-PVTZ-RI
    Molecular point group: c1

    Geometry (in Angstrom), charge = 0, multiplicity = 1:

       Center              X                  Y                   Z               Mass
    ------------   -----------------  -----------------  -----------------  -----------------
         C            0.580068578974     0.658335248314     0.086910520715    12.000000000000
         C            1.726567578974    -0.357991651686    -0.032814079285    12.000000000000
         S           -1.067026421026    -0.105797651686    -0.056878079285    31.972071174400
         H            0.649342578974     1.171196348314     1.064772920715     1.007825032230
         H            0.634977578974     1.392271348314    -0.679721079285     1.007825032230
         H            2.690938578974     0.155574348314     0.034151920715     1.007825032230
         H           -0.951659421026    -0.953677651686     0.976733920715     1.007825032230
         H            1.671077578974    -0.873131651686    -0.994235079285     1.007825032230
         H            1.690767578974    -1.112065651686     0.758570920715     1.007825032230

  Basis Set: AUG-CC-PVTZ
    Blend: AUG-CC-PVTZ
  Basis Set: (AUG-CC-PVTZ AUX)
    Blend: AUG-CC-PVTZ-JKFIT
	 Reference Energy          =    -476.8055678523933238 [Eh]
	 Singles Energy            =      -0.0000000000000000 [Eh]
	 Same-Spin Energy          =      -0.1366047957241598 [Eh]
	 Opposite-Spin Energy      =      -0.4890331801084908 [Eh]
	 Correlation Energy        =      -0.6256379758326507 [Eh]
	 Total Energy              =    -477.4312058282259841 [Eh]

	 ================> DF-SCS-MP2 Energies <==================
	-----------------------------------------------------------
	 SCS Same-Spin Scale       =       0.3333333333333333 [-]
	 SCS Opposite-Spin Scale   =       1.2000000000000000 [-]
	 SCS Same-Spin Energy      =      -0.0455349319080533 [Eh]
	 SCS Opposite-Spin Energy  =      -0.5868398161301890 [Eh]
	 SCS Correlation Energy    =      -0.6323747480382422 [Eh]
	 SCS Total Energy          =    -477.4379426004315405 [Eh]
	-----------------------------------------------------------

  Dipole Moment: [D]
     X:     1.5357      Y:     0.1496      Z:     0.6334     Total:     1.6679

*** Psi4 exiting successfully. Buy a developer a beer!
