                               Psi4 1.4a3.dev225

  ==> Input File <==

--------------------------------------------------------------------------
#psi4
#
memory 32 gb

molecule  {
0 1
  C        0.4923810     0.6461780     0.0905820
  C        1.6328850    -0.3514040    -0.0541190
  S       -1.1608670    -0.0992960    -0.0782200
  H        0.5555360     1.1778280     1.0433570
  H        0.5408560     1.3987290    -0.7010870
  H        2.5972720     0.1621150     0.0127190
  H       -1.0500029    -0.9150098     0.9173853
  H        1.5772300    -0.8665790    -1.0154790
  H        1.5971020    -1.1054100     0.7373110
units angstrom
no_reorient  #important for SAPT in psi4, default
symmetry c1  #important for SAPT in psi4, default
}

set PROPERTIES_ORIGIN ["COM"]
properties('MP2/aug-cc-pvtz', properties = ['dipole'])
--------------------------------------------------------------------------

    Molecular point group: c1
  Charge       = 0
  Multiplicity = 1
  Basis Set: AUG-CC-PVTZ
    Blend: AUG-CC-PVTZ
  Basis Set: (AUG-CC-PVTZ AUX)
    Blend: AUG-CC-PVTZ-JKFIT

    Orbital Energies [Eh]
    ---------------------

    Doubly Occupied:

       1A    -91.945780     2A    -11.263285     3A    -11.227079
       4A     -8.948445     5A     -6.629955     6A     -6.628764
       7A     -6.627721     8A     -1.072019     9A     -0.946909
      10A     -0.824725    11A     -0.636875    12A     -0.591554
      13A     -0.557518    14A     -0.523958    15A     -0.498983
      16A     -0.447438    17A     -0.355610

  @DF-RHF Final Energy:  -476.80560010283421

   => Energetics <=

    Nuclear Repulsion Energy =            107.5715726783319184
    One-Electron Energy =                -869.3011118509257358
    Two-Electron Energy =                 284.9239390697596264
    Total Energy =                       -476.8056001028342052
  Basis Set: (AUG-CC-PVTZ AUX)
    Blend: AUG-CC-PVTZ-RI
    Molecular point group: c1

    Geometry (in Angstrom), charge = 0, multiplicity = 1:

       Center              X                  Y                   Z               Mass
    ------------   -----------------  -----------------  -----------------  -----------------
         C            0.585072099242     0.642741929034     0.107694708126    12.000000000000
         C            1.725576099242    -0.354840070966    -0.037006291874    12.000000000000
         S           -1.068175900758    -0.102732070966    -0.061107291874    31.972071174400
         H            0.648227099242     1.174391929034     1.060469708126     1.007825032230
         H            0.633547099242     1.395292929034    -0.683974291874     1.007825032230
         H            2.689963099242     0.158678929034     0.029831708126     1.007825032230
         H           -0.957311800758    -0.918445870966     0.934498008126     1.007825032230
         H            1.669921099242    -0.870015070966    -0.998366291874     1.007825032230
         H            1.689793099242    -1.108846070966     0.754423708126     1.007825032230

  Basis Set: AUG-CC-PVTZ
    Blend: AUG-CC-PVTZ
  Basis Set: (AUG-CC-PVTZ AUX)
    Blend: AUG-CC-PVTZ-JKFIT
	 Reference Energy          =    -476.8056001028342052 [Eh]
	 Singles Energy            =      -0.0000000000000000 [Eh]
	 Same-Spin Energy          =      -0.1367923340650413 [Eh]
	 Opposite-Spin Energy      =      -0.4889904773355181 [Eh]
	 Correlation Energy        =      -0.6257828114005595 [Eh]
	 Total Energy              =    -477.4313829142347458 [Eh]

	 ================> DF-SCS-MP2 Energies <==================
	-----------------------------------------------------------
	 SCS Same-Spin Scale       =       0.3333333333333333 [-]
	 SCS Opposite-Spin Scale   =       1.2000000000000000 [-]
	 SCS Same-Spin Energy      =      -0.0455974446883471 [Eh]
	 SCS Opposite-Spin Energy  =      -0.5867885728026218 [Eh]
	 SCS Correlation Energy    =      -0.6323860174909689 [Eh]
	 SCS Total Energy          =    -477.4379861203251494 [Eh]
	-----------------------------------------------------------

  Dipole Moment: [D]
     X:     1.5280      Y:     0.1387      Z:     0.6397     Total:     1.6623

*** Psi4 exiting successfully. Buy a developer a beer!
