                               Psi4 1.4a3.dev225

  ==> Input File <==

--------------------------------------------------------------------------
#psi4
#
memory 32 gb

molecule  {
0 1
  C        0.4923810     0.6461780     0.0905820
  C        1.6328850    -0.3514040    -0.0541190
  S       -1.1608670    -0.0992960    -0.0782200
  H        0.5555360     1.1778280     1.0433570
  H        0.5408560     1.3987290    -0.7010870
  H        2.5972720     0.1621150     0.0127190
  H       -1.0414211    -0.9781522     0.9944527
  H        1.5772300    -0.8665790    -1.0154790
  H        1.5971020    -1.1054100     0.7373110
units angstrom
no_reorient  #important for SAPT in psi4, default
symmetry c1  #important for SAPT in psi4, default
}

set PROPERTIES_ORIGIN ["COM"]
properties('MP2/aug-cc-pvtz', properties = ['dipole'])
--------------------------------------------------------------------------

    Molecular point group: c1
  Charge       = 0
  Multiplicity = 1
  Basis Set: AUG-CC-PVTZ
    Blend: AUG-CC-PVTZ
  Basis Set: (AUG-CC-PVTZ AUX)
    Blend: AUG-CC-PVTZ-JKFIT

    Orbital Energies [Eh]
    ---------------------

    Doubly Occupied:

       1A    -91.953729     2A    -11.263640     3A    -11.226985
       4A     -8.953826     5A     -6.635075     6A     -6.634133
       7A     -6.633157     8A     -1.069592     9A     -0.939129
      10A     -0.818872    11A     -0.635502    12A     -0.590273
      13A     -0.551699    14A     -0.521934    15A     -0.495303
      16A     -0.446244    17A     -0.355448

  @DF-RHF Final Energy:  -476.80459114698840

   => Energetics <=

    Nuclear Repulsion Energy =            107.0428986669012659
    One-Electron Energy =                -868.2458966091942330
    Two-Electron Energy =                 284.3984067953045951
    Total Energy =                       -476.8045911469884004
  Basis Set: (AUG-CC-PVTZ AUX)
    Blend: AUG-CC-PVTZ-RI
    Molecular point group: c1

    Geometry (in Angstrom), charge = 0, multiplicity = 1:

       Center              X                  Y                   Z               Mass
    ------------   -----------------  -----------------  -----------------  -----------------
         C            0.584932642787     0.643768009257     0.106442343074    12.000000000000
         C            1.725436642787    -0.353813990743    -0.038258656926    12.000000000000
         S           -1.068315357213    -0.101705990743    -0.062359656926    31.972071174400
         H            0.648087642787     1.175418009257     1.059217343074     1.007825032230
         H            0.633407642787     1.396319009257    -0.685226656926     1.007825032230
         H            2.689823642787     0.159705009257     0.028579343074     1.007825032230
         H           -0.948869457213    -0.980562190743     1.010313043074     1.007825032230
         H            1.669781642787    -0.868988990743    -0.999618656926     1.007825032230
         H            1.689653642787    -1.107819990743     0.753171343074     1.007825032230

  Basis Set: AUG-CC-PVTZ
    Blend: AUG-CC-PVTZ
  Basis Set: (AUG-CC-PVTZ AUX)
    Blend: AUG-CC-PVTZ-JKFIT
	 Reference Energy          =    -476.8045911469884004 [Eh]
	 Singles Energy            =      -0.0000000000000000 [Eh]
	 Same-Spin Energy          =      -0.1367516229201577 [Eh]
	 Opposite-Spin Energy      =      -0.4894819687909135 [Eh]
	 Correlation Energy        =      -0.6262335917110713 [Eh]
	 Total Energy              =    -477.4308247386994708 [Eh]

	 ================> DF-SCS-MP2 Energies <==================
	-----------------------------------------------------------
	 SCS Same-Spin Scale       =       0.3333333333333333 [-]
	 SCS Opposite-Spin Scale   =       1.2000000000000000 [-]
	 SCS Same-Spin Energy      =      -0.0455838743067192 [Eh]
	 SCS Opposite-Spin Energy  =      -0.5873783625490963 [Eh]
	 SCS Correlation Energy    =      -0.6329622368558154 [Eh]
	 SCS Total Energy          =    -477.4375533838442038 [Eh]
	-----------------------------------------------------------

  Dipole Moment: [D]
     X:     1.5294      Y:     0.1506      Z:     0.6283     Total:     1.6603

*** Psi4 exiting successfully. Buy a developer a beer!
