                               Psi4 1.4a3.dev225

  ==> Input File <==

--------------------------------------------------------------------------
#psi4
#
memory 32 gb

molecule  {
0 1
  C        0.4923810     0.6461780     0.0905820
  C        1.6328850    -0.3514040    -0.0541190
  S       -1.2062513    -0.1197604    -0.0828539
  H        0.5555360     1.1778280     1.0433570
  H        0.5408560     1.3987290    -0.7010870
  H        2.5972720     0.1621150     0.0127190
  H       -1.0457120    -0.9465810     0.9559190
  H        1.5772300    -0.8665790    -1.0154790
  H        1.5971020    -1.1054100     0.7373110
units angstrom
no_reorient  #important for SAPT in psi4, default
symmetry c1  #important for SAPT in psi4, default
}

set PROPERTIES_ORIGIN ["COM"]
properties('MP2/aug-cc-pvtz', properties = ['dipole'])
--------------------------------------------------------------------------

    Molecular point group: c1
  Charge       = 0
  Multiplicity = 1
  Basis Set: AUG-CC-PVTZ
    Blend: AUG-CC-PVTZ
  Basis Set: (AUG-CC-PVTZ AUX)
    Blend: AUG-CC-PVTZ-JKFIT

    Orbital Energies [Eh]
    ---------------------

    Doubly Occupied:

       1A    -91.951398     2A    -11.267432     3A    -11.227958
       4A     -8.951947     5A     -6.633256     6A     -6.632213
       7A     -6.631237     8A     -1.063796     9A     -0.941156
      10A     -0.823315    11A     -0.634091    12A     -0.589192
      13A     -0.551648    14A     -0.522635    15A     -0.496259
      16A     -0.445087    17A     -0.356986

  @DF-RHF Final Energy:  -476.80518126816060

   => Energetics <=

    Nuclear Repulsion Energy =            106.0738043743158840
    One-Electron Energy =                -866.3187620228984542
    Two-Electron Energy =                 283.4397763804220176
    Total Energy =                       -476.8051812681605952
  Basis Set: (AUG-CC-PVTZ AUX)
    Blend: AUG-CC-PVTZ-RI
    Molecular point group: c1

    Geometry (in Angstrom), charge = 0, multiplicity = 1:

       Center              X                  Y                   Z               Mass
    ------------   -----------------  -----------------  -----------------  -----------------
         C            0.608398903849     0.653804784975     0.109457395617    12.000000000000
         C            1.748902903849    -0.343777215025    -0.035243604383    12.000000000000
         S           -1.090233396151    -0.112133615025    -0.063978504383    31.972071174400
         H            0.671553903849     1.185454784975     1.062232395617     1.007825032230
         H            0.656873903849     1.406355784975    -0.682211604383     1.007825032230
         H            2.713289903849     0.169741784975     0.031594395617     1.007825032230
         H           -0.929694096151    -0.938954215025     0.974794395617     1.007825032230
         H            1.693247903849    -0.858952215025    -0.996603604383     1.007825032230
         H            1.713119903849    -1.097783215025     0.756186395617     1.007825032230

  Basis Set: AUG-CC-PVTZ
    Blend: AUG-CC-PVTZ
  Basis Set: (AUG-CC-PVTZ AUX)
    Blend: AUG-CC-PVTZ-JKFIT
	 Reference Energy          =    -476.8051812681605952 [Eh]
	 Singles Energy            =      -0.0000000000000000 [Eh]
	 Same-Spin Energy          =      -0.1364792366582450 [Eh]
	 Opposite-Spin Energy      =      -0.4893820021698905 [Eh]
	 Correlation Energy        =      -0.6258612388281355 [Eh]
	 Total Energy              =    -477.4310425069887174 [Eh]

	 ================> DF-SCS-MP2 Energies <==================
	-----------------------------------------------------------
	 SCS Same-Spin Scale       =       0.3333333333333333 [-]
	 SCS Opposite-Spin Scale   =       1.2000000000000000 [-]
	 SCS Same-Spin Energy      =      -0.0454930788860817 [Eh]
	 SCS Opposite-Spin Energy  =      -0.5872584026038685 [Eh]
	 SCS Correlation Energy    =      -0.6327514814899502 [Eh]
	 SCS Total Energy          =    -477.4379327496505425 [Eh]
	-----------------------------------------------------------

  Dipole Moment: [D]
     X:     1.5730      Y:     0.1579      Z:     0.6229     Total:     1.6992

*** Psi4 exiting successfully. Buy a developer a beer!
