                               Psi4 1.3.2 release

  ==> Input File <==

--------------------------------------------------------------------------
#psi4
#
memory 32 gb

molecule  {
0 1
  C        0.4924200     0.6462160     0.0905780
  C        1.6327480    -0.3514470    -0.0541290
  S       -1.1608460    -0.0992530    -0.0781930
  H        0.5555230     1.1777410     1.0434580
  H        0.5411580     1.3988160    -0.7010360
  H        2.5971190     0.1621190     0.0128370
  H       -1.0368814    -1.0103203     1.0324478
  H        1.5772580    -0.8665870    -1.0155500
  H        1.5969480    -1.1055210     0.7372560
units angstrom
no_reorient  #important for SAPT in psi4, default
symmetry c1  #important for SAPT in psi4, default
}

set PROPERTIES_ORIGIN ["COM"]
properties('MP2/aug-cc-pvtz', properties = ['dipole'])
--------------------------------------------------------------------------

    Molecular point group: c1
  Charge       = 0
  Multiplicity = 1
  Basis Set: AUG-CC-PVTZ
    Blend: AUG-CC-PVTZ
  Basis Set: (AUG-CC-PVTZ AUX)
    Blend: AUG-CC-PVTZ-JKFIT

    Orbital Energies [Eh]
    ---------------------

    Doubly Occupied:

       1A    -91.957342     2A    -11.263876     3A    -11.226960
       4A     -8.956433     5A     -6.637589     6A     -6.636694
       7A     -6.635742     8A     -1.068779     9A     -0.936148
      10A     -0.816270    11A     -0.634942    12A     -0.589846
      13A     -0.549231    14A     -0.520835    15A     -0.492895
      16A     -0.445416    17A     -0.355497

  @DF-RHF Final Energy:  -476.80087293680560

   => Energetics <=

    Nuclear Repulsion Energy =            106.8043471043495742
    One-Electron Energy =                -867.7614488548533700
    Two-Electron Energy =                 284.1562288136982488
    Total Energy =                       -476.8008729368056038
  Basis Set: (AUG-CC-PVTZ AUX)
    Blend: AUG-CC-PVTZ-RI
    Molecular point group: c1

    Geometry (in Angstrom), charge = 0, multiplicity = 1:

       Center              X                  Y                   Z               Mass
    ------------   -----------------  -----------------  -----------------  -----------------
         C            0.584905844989     0.644309417995     0.105807362695    12.000000000000
         C            1.725233844989    -0.353353582005    -0.038899637305    12.000000000000
         S           -1.068360155011    -0.101159582005    -0.062963637305    31.972071174400
         H            0.648008844989     1.175834417995     1.058687362695     1.007825032230
         H            0.633643844989     1.396909417995    -0.685806637305     1.007825032230
         H            2.689604844989     0.160212417995     0.028066362695     1.007825032230
         H           -0.944395555011    -1.012226882005     1.047677162695     1.007825032230
         H            1.669743844989    -0.868493582005    -1.000320637305     1.007825032230
         H            1.689433844989    -1.107427582005     0.752485362695     1.007825032230

  Basis Set: AUG-CC-PVTZ
    Blend: AUG-CC-PVTZ
  Basis Set: (AUG-CC-PVTZ AUX)
    Blend: AUG-CC-PVTZ-JKFIT
	 Reference Energy          =    -476.8008729368056038 [Eh]
	 Singles Energy            =      -0.0000000000000000 [Eh]
	 Same-Spin Energy          =      -0.1367476893245812 [Eh]
	 Opposite-Spin Energy      =      -0.4898467264681137 [Eh]
	 Correlation Energy        =      -0.6265944157926949 [Eh]
	 Total Energy              =    -477.4274673525982848 [Eh]

	 ================> DF-SCS-MP2 Energies <==================
	-----------------------------------------------------------
	 SCS Same-Spin Scale       =       0.3333333333333333 [-]
	 SCS Opposite-Spin Scale   =       1.2000000000000000 [-]
	 SCS Same-Spin Energy      =      -0.0455825631081937 [Eh]
	 SCS Opposite-Spin Energy  =      -0.5878160717617364 [Eh]
	 SCS Correlation Energy    =      -0.6333986348699302 [Eh]
	 SCS Total Energy          =    -477.4342715716755379 [Eh]
	-----------------------------------------------------------

  Dipole Moment: [D]
     X:     1.5317      Y:     0.1580      Z:     0.6208     Total:     1.6602

*** Psi4 exiting successfully. Buy a developer a beer!
