                               Psi4 1.3.2 release

  ==> Input File <==

--------------------------------------------------------------------------
#psi4
#
memory 32 gb

molecule  {
0 1
  C        0.4924200     0.6462160     0.0905780
  C        1.6327480    -0.3514470    -0.0541290
  S       -1.1608460    -0.0992530    -0.0781930
  H        0.5555230     1.1777410     1.0434580
  H        0.5411580     1.3988160    -0.7010360
  H        2.5971190     0.1621190     0.0128370
  H       -1.0626742    -0.8207583     0.8013613
  H        1.5772580    -0.8665870    -1.0155500
  H        1.5969480    -1.1055210     0.7372560
units angstrom
no_reorient  #important for SAPT in psi4, default
symmetry c1  #important for SAPT in psi4, default
}

set PROPERTIES_ORIGIN ["COM"]
properties('MP2/aug-cc-pvtz', properties = ['dipole'])
--------------------------------------------------------------------------

    Molecular point group: c1
  Charge       = 0
  Multiplicity = 1
  Basis Set: AUG-CC-PVTZ
    Blend: AUG-CC-PVTZ
  Basis Set: (AUG-CC-PVTZ AUX)
    Blend: AUG-CC-PVTZ-JKFIT

    Orbital Energies [Eh]
    ---------------------

    Doubly Occupied:

       1A    -91.931751     2A    -11.263013     3A    -11.227296
       4A     -8.940316     5A     -6.622687     6A     -6.620156
       7A     -6.619051     8A     -1.078696     9A     -0.963819
      10A     -0.834286    11A     -0.639482    12A     -0.594837
      13A     -0.566122    14A     -0.526167    15A     -0.502244
      16A     -0.448699    17A     -0.356490

  @DF-RHF Final Energy:  -476.77995018336446

   => Energetics <=

    Nuclear Repulsion Energy =            108.5190425322332430
    One-Electron Energy =                -871.1277606842591013
    Two-Electron Energy =                 285.8287679686613956
    Total Energy =                       -476.7799501833644626
  Basis Set: (AUG-CC-PVTZ AUX)
    Blend: AUG-CC-PVTZ-RI
    Molecular point group: c1

    Geometry (in Angstrom), charge = 0, multiplicity = 1:

       Center              X                  Y                   Z               Mass
    ------------   -----------------  -----------------  -----------------  -----------------
         C            0.585324984616     0.641228986789     0.109562577695    12.000000000000
         C            1.725652984616    -0.356434013211    -0.035144422305    12.000000000000
         S           -1.067941015384    -0.104240013211    -0.059208422305    31.972071174400
         H            0.648427984616     1.172753986789     1.062442577695     1.007825032230
         H            0.634062984616     1.393828986789    -0.682051422305     1.007825032230
         H            2.690023984616     0.157131986789     0.031821577695     1.007825032230
         H           -0.969769215384    -0.825745313211     0.820345877695     1.007825032230
         H            1.670162984616    -0.871574013211    -0.996565422305     1.007825032230
         H            1.689852984616    -1.110508013211     0.756240577695     1.007825032230

  Basis Set: AUG-CC-PVTZ
    Blend: AUG-CC-PVTZ
  Basis Set: (AUG-CC-PVTZ AUX)
    Blend: AUG-CC-PVTZ-JKFIT
	 Reference Energy          =    -476.7799501833644626 [Eh]
	 Singles Energy            =      -0.0000000000000000 [Eh]
	 Same-Spin Energy          =      -0.1369583628101742 [Eh]
	 Opposite-Spin Energy      =      -0.4889072366256313 [Eh]
	 Correlation Energy        =      -0.6258655994358054 [Eh]
	 Total Energy              =    -477.4058157828002891 [Eh]

	 ================> DF-SCS-MP2 Energies <==================
	-----------------------------------------------------------
	 SCS Same-Spin Scale       =       0.3333333333333333 [-]
	 SCS Opposite-Spin Scale   =       1.2000000000000000 [-]
	 SCS Same-Spin Energy      =      -0.0456527876033914 [Eh]
	 SCS Opposite-Spin Energy  =      -0.5866886839507576 [Eh]
	 SCS Correlation Energy    =      -0.6323414715541490 [Eh]
	 SCS Total Energy          =    -477.4122916549185902 [Eh]
	-----------------------------------------------------------

  Dipole Moment: [D]
     X:     1.5323      Y:     0.1289      Z:     0.6495     Total:     1.6693

*** Psi4 exiting successfully. Buy a developer a beer!
