                               Psi4 1.3.2 release

  ==> Input File <==

--------------------------------------------------------------------------
#psi4
#
memory 32 gb

molecule  {
0 1
  C        0.4924200     0.6462160     0.0905780
  C        1.6327480    -0.3514470    -0.0541290
  S       -1.1608460    -0.0992530    -0.0781930
  H        0.5555230     1.1777410     1.0434580
  H        0.5411580     1.3988160    -0.7010360
  H        2.5971190     0.1621190     0.0128370
  H       -1.0540766    -0.8839457     0.8783902
  H        1.5772580    -0.8665870    -1.0155500
  H        1.5969480    -1.1055210     0.7372560
units angstrom
no_reorient  #important for SAPT in psi4, default
symmetry c1  #important for SAPT in psi4, default
}

set PROPERTIES_ORIGIN ["COM"]
properties('MP2/aug-cc-pvtz', properties = ['dipole'])
--------------------------------------------------------------------------

    Molecular point group: c1
  Charge       = 0
  Multiplicity = 1
  Basis Set: AUG-CC-PVTZ
    Blend: AUG-CC-PVTZ
  Basis Set: (AUG-CC-PVTZ AUX)
    Blend: AUG-CC-PVTZ-JKFIT

    Orbital Energies [Eh]
    ---------------------

    Doubly Occupied:

       1A    -91.941399     2A    -11.263164     3A    -11.227145
       4A     -8.945702     5A     -6.627416     6A     -6.625950
       7A     -6.624877     8A     -1.073757     9A     -0.951829
      10A     -0.827876    11A     -0.637677    12A     -0.592458
      13A     -0.560579    14A     -0.524814    15A     -0.500330
      16A     -0.447882    17A     -0.355817

  @DF-RHF Final Energy:  -476.80159152352542

   => Energetics <=

    Nuclear Repulsion Energy =            107.8655661382619542
    One-Electron Energy =                -869.8769717287256071
    Two-Electron Energy =                 285.2098140669382929
    Total Energy =                       -476.8015915235254170
  Basis Set: (AUG-CC-PVTZ AUX)
    Blend: AUG-CC-PVTZ-RI
    Molecular point group: c1

    Geometry (in Angstrom), charge = 0, multiplicity = 1:

       Center              X                  Y                   Z               Mass
    ------------   -----------------  -----------------  -----------------  -----------------
         C            0.585185271407     0.642255798274     0.108310838279    12.000000000000
         C            1.725513271407    -0.355407201726    -0.036396161721    12.000000000000
         S           -1.068080728593    -0.103213201726    -0.060460161721    31.972071174400
         H            0.648288271407     1.173780798274     1.061190838279     1.007825032230
         H            0.633923271407     1.394855798274    -0.683303161721     1.007825032230
         H            2.689884271407     0.158158798274     0.030569838279     1.007825032230
         H           -0.961311328593    -0.887905901726     0.896123038279     1.007825032230
         H            1.670023271407    -0.870547201726    -0.997817161721     1.007825032230
         H            1.689713271407    -1.109481201726     0.754988838279     1.007825032230

  Basis Set: AUG-CC-PVTZ
    Blend: AUG-CC-PVTZ
  Basis Set: (AUG-CC-PVTZ AUX)
    Blend: AUG-CC-PVTZ-JKFIT
	 Reference Energy          =    -476.8015915235254170 [Eh]
	 Singles Energy            =      -0.0000000000000000 [Eh]
	 Same-Spin Energy          =      -0.1368335672367126 [Eh]
	 Opposite-Spin Energy      =      -0.4888744467584046 [Eh]
	 Correlation Energy        =      -0.6257080139951172 [Eh]
	 Total Energy              =    -477.4272995375205255 [Eh]

	 ================> DF-SCS-MP2 Energies <==================
	-----------------------------------------------------------
	 SCS Same-Spin Scale       =       0.3333333333333333 [-]
	 SCS Opposite-Spin Scale   =       1.2000000000000000 [-]
	 SCS Same-Spin Energy      =      -0.0456111890789042 [Eh]
	 SCS Opposite-Spin Energy  =      -0.5866493361100855 [Eh]
	 SCS Correlation Energy    =      -0.6322605251889897 [Eh]
	 SCS Total Energy          =    -477.4338520487144137 [Eh]
	-----------------------------------------------------------

  Dipole Moment: [D]
     X:     1.5289      Y:     0.1342      Z:     0.6437     Total:     1.6643

*** Psi4 exiting successfully. Buy a developer a beer!
