                               Psi4 1.3.2 release

  ==> Input File <==

--------------------------------------------------------------------------
#psi4
#
memory 32 gb

molecule  {
0 1
  C        0.5188154     0.5296677     0.2391275
  C        1.6327480    -0.3514470    -0.0541290
  S       -1.1608460    -0.0992530    -0.0781930
  H        0.5555230     1.1777410     1.0434580
  H        0.5411580     1.3988160    -0.7010360
  H        2.5971190     0.1621190     0.0128370
  H       -1.0454790    -0.9471330     0.9554190
  H        1.5772580    -0.8665870    -1.0155500
  H        1.5969480    -1.1055210     0.7372560
units angstrom
no_reorient  #important for SAPT in psi4, default
symmetry c1  #important for SAPT in psi4, default
}

set PROPERTIES_ORIGIN ["COM"]
properties('MP2/aug-cc-pvtz', properties = ['dipole'])
--------------------------------------------------------------------------

    Molecular point group: c1
  Charge       = 0
  Multiplicity = 1
  Basis Set: AUG-CC-PVTZ
    Blend: AUG-CC-PVTZ
  Basis Set: (AUG-CC-PVTZ AUX)
    Blend: AUG-CC-PVTZ-JKFIT

    Orbital Energies [Eh]
    ---------------------

    Doubly Occupied:

       1A    -91.954584     2A    -11.270712     3A    -11.225637
       4A     -8.955411     5A     -6.636689     6A     -6.635557
       7A     -6.634543     8A     -1.082131     9A     -0.951624
      10A     -0.814212    11A     -0.633055    12A     -0.605627
      13A     -0.565450    14A     -0.531880    15A     -0.461291
      16A     -0.437527    17A     -0.362179

  @DF-RHF Final Energy:  -476.77290483447700

   => Energetics <=

    Nuclear Repulsion Energy =            107.8680030112446673
    One-Electron Energy =                -869.7655939236252607
    Two-Electron Energy =                 285.1246860779035615
    Total Energy =                       -476.7729048344770035
  Basis Set: (AUG-CC-PVTZ AUX)
    Blend: AUG-CC-PVTZ-RI
    Molecular point group: c1

    Geometry (in Angstrom), charge = 0, multiplicity = 1:

       Center              X                  Y                   Z               Mass
    ------------   -----------------  -----------------  -----------------  -----------------
         C            0.606333737977     0.549285125112     0.226865902510    12.000000000000
         C            1.720266337977    -0.331829574888    -0.066390597490    12.000000000000
         S           -1.073327662023    -0.079635574888    -0.090454597490    31.972071174400
         H            0.643041337977     1.197358425112     1.031196402510     1.007825032230
         H            0.628676337977     1.418433425112    -0.713297597490     1.007825032230
         H            2.684637337977     0.181736425112     0.000575402510     1.007825032230
         H           -0.957960662023    -0.927515574888     0.943157402510     1.007825032230
         H            1.664776337977    -0.846969574888    -1.027811597490     1.007825032230
         H            1.684466337977    -1.085903574888     0.724994402510     1.007825032230

  Basis Set: AUG-CC-PVTZ
    Blend: AUG-CC-PVTZ
  Basis Set: (AUG-CC-PVTZ AUX)
    Blend: AUG-CC-PVTZ-JKFIT
	 Reference Energy          =    -476.7729048344770035 [Eh]
	 Singles Energy            =      -0.0000000000000000 [Eh]
	 Same-Spin Energy          =      -0.1384217260774737 [Eh]
	 Opposite-Spin Energy      =      -0.4923354052691037 [Eh]
	 Correlation Energy        =      -0.6307571313465774 [Eh]
	 Total Energy              =    -477.4036619658235736 [Eh]

	 ================> DF-SCS-MP2 Energies <==================
	-----------------------------------------------------------
	 SCS Same-Spin Scale       =       0.3333333333333333 [-]
	 SCS Opposite-Spin Scale   =       1.2000000000000000 [-]
	 SCS Same-Spin Energy      =      -0.0461405753591579 [Eh]
	 SCS Opposite-Spin Energy  =      -0.5908024863229244 [Eh]
	 SCS Correlation Energy    =      -0.6369430616820824 [Eh]
	 SCS Total Energy          =    -477.4098478961590786 [Eh]
	-----------------------------------------------------------

  Dipole Moment: [D]
     X:     1.4696      Y:     0.0383      Z:     0.6631     Total:     1.6127

*** Psi4 exiting successfully. Buy a developer a beer!
