                               Psi4 1.3.2 release

  ==> Input File <==

--------------------------------------------------------------------------
#psi4
#
memory 32 gb

molecule  {
0 1
  C        0.4924200     0.6462160     0.0905780
  C        1.5596941    -0.4271385    -0.0689703
  S       -1.1608460    -0.0992530    -0.0781930
  H        0.5555230     1.1777410     1.0434580
  H        0.5411580     1.3988160    -0.7010360
  H        2.5971190     0.1621190     0.0128370
  H       -1.0454790    -0.9471330     0.9554190
  H        1.5772580    -0.8665870    -1.0155500
  H        1.5969480    -1.1055210     0.7372560
units angstrom
no_reorient  #important for SAPT in psi4, default
symmetry c1  #important for SAPT in psi4, default
}

set PROPERTIES_ORIGIN ["COM"]
properties('MP2/aug-cc-pvtz', properties = ['dipole'])
--------------------------------------------------------------------------

    Molecular point group: c1
  Charge       = 0
  Multiplicity = 1
  Basis Set: AUG-CC-PVTZ
    Blend: AUG-CC-PVTZ
  Basis Set: (AUG-CC-PVTZ AUX)
    Blend: AUG-CC-PVTZ-JKFIT

    Orbital Energies [Eh]
    ---------------------

    Doubly Occupied:

       1A    -91.947476     2A    -11.265585     3A    -11.229890
       4A     -8.949039     5A     -6.630380     6A     -6.629390
       7A     -6.628368     8A     -1.073145     9A     -0.940680
      10A     -0.825445    11A     -0.647089    12A     -0.571267
      13A     -0.561276    14A     -0.538548    15A     -0.498626
      16A     -0.435200    17A     -0.353169

  @DF-RHF Final Energy:  -476.79547382909806

   => Energetics <=

    Nuclear Repulsion Energy =            107.7220507013347515
    One-Electron Energy =                -869.5859077613559975
    Two-Electron Energy =                 285.0683832309231889
    Total Energy =                       -476.7954738290980572
  Basis Set: (AUG-CC-PVTZ AUX)
    Blend: AUG-CC-PVTZ-RI
    Molecular point group: c1

    Geometry (in Angstrom), charge = 0, multiplicity = 1:

       Center              X                  Y                   Z               Mass
    ------------   -----------------  -----------------  -----------------  -----------------
         C            0.599180686110     0.657928082700     0.109930729159    12.000000000000
         C            1.666454786110    -0.415426417300    -0.049617570841    12.000000000000
         S           -1.054085313890    -0.087540917300    -0.058840270841    31.972071174400
         H            0.662283686110     1.189453082700     1.062810729159     1.007825032230
         H            0.647918686110     1.410528082700    -0.681683270841     1.007825032230
         H            2.703879686110     0.173831082700     0.032189729159     1.007825032230
         H           -0.938718313890    -0.935420917300     0.974771729159     1.007825032230
         H            1.684018686110    -0.854874917300    -0.996197270841     1.007825032230
         H            1.703708686110    -1.093808917300     0.756608729159     1.007825032230

  Basis Set: AUG-CC-PVTZ
    Blend: AUG-CC-PVTZ
  Basis Set: (AUG-CC-PVTZ AUX)
    Blend: AUG-CC-PVTZ-JKFIT
	 Reference Energy          =    -476.7954738290980572 [Eh]
	 Singles Energy            =      -0.0000000000000000 [Eh]
	 Same-Spin Energy          =      -0.1369682108243947 [Eh]
	 Opposite-Spin Energy      =      -0.4896840241538961 [Eh]
	 Correlation Energy        =      -0.6266522349782908 [Eh]
	 Total Energy              =    -477.4221260640763376 [Eh]

	 ================> DF-SCS-MP2 Energies <==================
	-----------------------------------------------------------
	 SCS Same-Spin Scale       =       0.3333333333333333 [-]
	 SCS Opposite-Spin Scale   =       1.2000000000000000 [-]
	 SCS Same-Spin Energy      =      -0.0456560702747982 [Eh]
	 SCS Opposite-Spin Energy  =      -0.5876208289846753 [Eh]
	 SCS Correlation Energy    =      -0.6332768992594735 [Eh]
	 SCS Total Energy          =    -477.4287507283575565 [Eh]
	-----------------------------------------------------------

  Dipole Moment: [D]
     X:     1.5400      Y:     0.1186      Z:     0.6253     Total:     1.6663

*** Psi4 exiting successfully. Buy a developer a beer!
