                               Psi4 1.3.2 release

  ==> Input File <==

--------------------------------------------------------------------------
#psi4
#
memory 32 gb

molecule  {
0 1
  C        0.4924200     0.6462160     0.0905780
  C        1.6149919    -0.3708404    -0.0579083
  S       -1.1608460    -0.0992530    -0.0781930
  H        0.5555230     1.1777410     1.0434580
  H        0.5411580     1.3988160    -0.7010360
  H        2.5971190     0.1621190     0.0128370
  H       -1.0454790    -0.9471330     0.9554190
  H        1.5772580    -0.8665870    -1.0155500
  H        1.5969480    -1.1055210     0.7372560
units angstrom
no_reorient  #important for SAPT in psi4, default
symmetry c1  #important for SAPT in psi4, default
}

set PROPERTIES_ORIGIN ["COM"]
properties('MP2/aug-cc-pvtz', properties = ['dipole'])
--------------------------------------------------------------------------

    Molecular point group: c1
  Charge       = 0
  Multiplicity = 1
  Basis Set: AUG-CC-PVTZ
    Blend: AUG-CC-PVTZ
  Basis Set: (AUG-CC-PVTZ AUX)
    Blend: AUG-CC-PVTZ-JKFIT

    Orbital Energies [Eh]
    ---------------------

    Doubly Occupied:

       1A    -91.949182     2A    -11.263820     3A    -11.227374
       4A     -8.950530     5A     -6.631889     6A     -6.630868
       7A     -6.629857     8A     -1.071134     9A     -0.941981
      10A     -0.822454    11A     -0.638527    12A     -0.584867
      13A     -0.555933    14A     -0.527339    15A     -0.498609
      16A     -0.444246    17A     -0.354907

  @DF-RHF Final Energy:  -476.80563257336530

   => Energetics <=

    Nuclear Repulsion Energy =            107.4016906175960031
    One-Electron Energy =                -868.9676094551072083
    Two-Electron Energy =                 284.7602862641458614
    Total Energy =                       -476.8056325733653011
  Basis Set: (AUG-CC-PVTZ AUX)
    Blend: AUG-CC-PVTZ-RI
    Molecular point group: c1

    Geometry (in Angstrom), charge = 0, multiplicity = 1:

       Center              X                  Y                   Z               Mass
    ------------   -----------------  -----------------  -----------------  -----------------
         C            0.588481168682     0.647035018200     0.107790353561    12.000000000000
         C            1.711053068682    -0.370021381800    -0.040695946439    12.000000000000
         S           -1.064784831318    -0.098433981800    -0.060980646439    31.972071174400
         H            0.651584168682     1.178560018200     1.060670353561     1.007825032230
         H            0.637219168682     1.399635018200    -0.683823646439     1.007825032230
         H            2.693180168682     0.162938018200     0.030049353561     1.007825032230
         H           -0.949417831318    -0.946313981800     0.972631353561     1.007825032230
         H            1.673319168682    -0.865767981800    -0.998337646439     1.007825032230
         H            1.693009168682    -1.104701981800     0.754468353561     1.007825032230

  Basis Set: AUG-CC-PVTZ
    Blend: AUG-CC-PVTZ
  Basis Set: (AUG-CC-PVTZ AUX)
    Blend: AUG-CC-PVTZ-JKFIT
	 Reference Energy          =    -476.8056325733653011 [Eh]
	 Singles Energy            =      -0.0000000000000000 [Eh]
	 Same-Spin Energy          =      -0.1367823803681216 [Eh]
	 Opposite-Spin Energy      =      -0.4892167785540064 [Eh]
	 Correlation Energy        =      -0.6259991589221279 [Eh]
	 Total Energy              =    -477.4316317322874283 [Eh]

	 ================> DF-SCS-MP2 Energies <==================
	-----------------------------------------------------------
	 SCS Same-Spin Scale       =       0.3333333333333333 [-]
	 SCS Opposite-Spin Scale   =       1.2000000000000000 [-]
	 SCS Same-Spin Energy      =      -0.0455941267893739 [Eh]
	 SCS Opposite-Spin Energy  =      -0.5870601342648076 [Eh]
	 SCS Correlation Energy    =      -0.6326542610541814 [Eh]
	 SCS Total Energy          =    -477.4382868344195003 [Eh]
	-----------------------------------------------------------

  Dipole Moment: [D]
     X:     1.5373      Y:     0.1371      Z:     0.6319     Total:     1.6678

*** Psi4 exiting successfully. Buy a developer a beer!
