                               Psi4 1.3.2 release

  ==> Input File <==

--------------------------------------------------------------------------
#psi4
#
memory 32 gb

molecule  {
0 1
  C        0.4795763     0.6833110     0.0405695
  C        1.6327480    -0.3514470    -0.0541290
  S       -1.1608460    -0.0992530    -0.0781930
  H        0.5555230     1.1777410     1.0434580
  H        0.5411580     1.3988160    -0.7010360
  H        2.5971190     0.1621190     0.0128370
  H       -1.0454790    -0.9471330     0.9554190
  H        1.5772580    -0.8665870    -1.0155500
  H        1.5969480    -1.1055210     0.7372560
units angstrom
no_reorient  #important for SAPT in psi4, default
symmetry c1  #important for SAPT in psi4, default
}

set PROPERTIES_ORIGIN ["COM"]
properties('MP2/aug-cc-pvtz', properties = ['dipole'])
--------------------------------------------------------------------------

    Molecular point group: c1
  Charge       = 0
  Multiplicity = 1
  Basis Set: AUG-CC-PVTZ
    Blend: AUG-CC-PVTZ
  Basis Set: (AUG-CC-PVTZ AUX)
    Blend: AUG-CC-PVTZ-JKFIT

    Orbital Energies [Eh]
    ---------------------

    Doubly Occupied:

       1A    -91.949370     2A    -11.262825     3A    -11.228583
       4A     -8.950691     5A     -6.632071     6A     -6.631094
       7A     -6.630074     8A     -1.067883     9A     -0.940096
      10A     -0.828327    11A     -0.636441    12A     -0.589092
      13A     -0.553062    14A     -0.516391    15A     -0.513031
      16A     -0.442354    17A     -0.353107

  @DF-RHF Final Energy:  -476.80238044596706

   => Energetics <=

    Nuclear Repulsion Energy =            107.0838401065341259
    One-Electron Energy =                -868.3234555688500222
    Two-Electron Energy =                 284.4372350163488363
    Total Energy =                       -476.8023804459670600
  Basis Set: (AUG-CC-PVTZ AUX)
    Blend: AUG-CC-PVTZ-RI
    Molecular point group: c1

    Geometry (in Angstrom), charge = 0, multiplicity = 1:

       Center              X                  Y                   Z               Mass
    ------------   -----------------  -----------------  -----------------  -----------------
         C            0.574686973193     0.673200132738     0.066726696413    12.000000000000
         C            1.727858673193    -0.361557867262    -0.027971803587    12.000000000000
         S           -1.065735326807    -0.109363867262    -0.052035803587    31.972071174400
         H            0.650633673193     1.167630132738     1.069615196413     1.007825032230
         H            0.636268673193     1.388705132738    -0.674878803587     1.007825032230
         H            2.692229673193     0.152008132738     0.038994196413     1.007825032230
         H           -0.950368326807    -0.957243867262     0.981576196413     1.007825032230
         H            1.672368673193    -0.876697867262    -0.989392803587     1.007825032230
         H            1.692058673193    -1.115631867262     0.763413196413     1.007825032230

  Basis Set: AUG-CC-PVTZ
    Blend: AUG-CC-PVTZ
  Basis Set: (AUG-CC-PVTZ AUX)
    Blend: AUG-CC-PVTZ-JKFIT
	 Reference Energy          =    -476.8023804459670600 [Eh]
	 Singles Energy            =      -0.0000000000000000 [Eh]
	 Same-Spin Energy          =      -0.1364814561248515 [Eh]
	 Opposite-Spin Energy      =      -0.4889931743843726 [Eh]
	 Correlation Energy        =      -0.6254746305092240 [Eh]
	 Total Energy              =    -477.4278550764763054 [Eh]

	 ================> DF-SCS-MP2 Energies <==================
	-----------------------------------------------------------
	 SCS Same-Spin Scale       =       0.3333333333333333 [-]
	 SCS Opposite-Spin Scale   =       1.2000000000000000 [-]
	 SCS Same-Spin Energy      =      -0.0454938187082838 [Eh]
	 SCS Opposite-Spin Energy  =      -0.5867918092612471 [Eh]
	 SCS Correlation Energy    =      -0.6322856279695309 [Eh]
	 SCS Total Energy          =    -477.4346660739365689 [Eh]
	-----------------------------------------------------------

  Dipole Moment: [D]
     X:     1.5416      Y:     0.1520      Z:     0.6335     Total:     1.6737

*** Psi4 exiting successfully. Buy a developer a beer!
