                               Psi4 1.4a3.dev225

  ==> Input File <==

--------------------------------------------------------------------------
#psi4
#
memory 32 gb

molecule  {
0 1
  O        0.8291000     1.5489640    -0.0096600
  O       -1.9645320    -1.5272950    -0.0272540
  N       -1.2915850     0.6563530    -0.0190760
  C        2.2179880    -0.2284570     0.0063820
  C        0.0783220     0.4095260    -0.0084780
  C        0.8642630    -0.7082250     0.0006420
  C        2.1440040     1.1342220     0.0001060
  C        3.4596960    -1.0625820     0.0169560
  C       -2.2510390    -0.3310160    -0.0197860
  C       -3.6738340     0.1809440     0.0371730
  H        0.5128620    -1.7280920     0.0016880
  H        2.8785440     1.9259390     0.0016350
  H       -1.5791427     1.6797944    -0.0135354
  H        3.5070680    -1.7110750    -0.8631740
  H        4.3526580    -0.4311270     0.0195620
  H        3.4969120    -1.7040060     0.9027390
  H       -3.7998370     1.1241010    -0.5010800
  H       -3.9673170     0.3343150     1.0801190
  H       -4.3271240    -0.5760050    -0.3968180
units angstrom
no_reorient  #important for SAPT in psi4, default
symmetry c1  #important for SAPT in psi4, default
}

set PROPERTIES_ORIGIN ["COM"]
properties('MP2/aug-cc-pvtz', properties = ['dipole'])
--------------------------------------------------------------------------

    Molecular point group: c1
  Charge       = 0
  Multiplicity = 1
  Basis Set: AUG-CC-PVTZ
    Blend: AUG-CC-PVTZ
  Basis Set: (AUG-CC-PVTZ AUX)
    Blend: AUG-CC-PVTZ-JKFIT

    Orbital Energies [Eh]
    ---------------------

    Doubly Occupied:

       1A    -20.622704     2A    -20.533457     3A    -15.622295
       4A    -11.369906     5A    -11.336550     6A    -11.273144
       7A    -11.249626     8A    -11.236344     9A    -11.226387
      10A    -11.214912    11A     -1.460306    12A     -1.387820
      13A     -1.248939    14A     -1.096557    15A     -1.036443
      16A     -0.986090    17A     -0.943542    18A     -0.838104
      19A     -0.786959    20A     -0.763717    21A     -0.708231
      22A     -0.681439    23A     -0.656620    24A     -0.647795
      25A     -0.620014    26A     -0.597905    27A     -0.581176
      28A     -0.571182    29A     -0.568621    30A     -0.563483
      31A     -0.541007    32A     -0.538276    33A     -0.509688
      34A     -0.453177    35A     -0.437817    36A     -0.381447
      37A     -0.288782

  @DF-RHF Final Energy:  -474.65293094854127

   => Energetics <=

    Nuclear Repulsion Energy =            508.5738872475919834
    One-Electron Energy =               -1655.2927080439442307
    Two-Electron Energy =                 672.0658898478110359
    Total Energy =                       -474.6529309485412114
  Basis Set: (AUG-CC-PVTZ AUX)
    Blend: AUG-CC-PVTZ-RI
    Molecular point group: c1

    Geometry (in Angstrom), charge = 0, multiplicity = 1:

       Center              X                  Y                   Z               Mass
    ------------   -----------------  -----------------  -----------------  -----------------
         O            0.836948697309     1.540508552782    -0.008015607644    15.994914619570
         O           -1.956683302691    -1.535750447218    -0.025609607644    15.994914619570
         N           -1.283736302691     0.647897552782    -0.017431607644    14.003074004430
         C            2.225836697309    -0.236912447218     0.008026392356    12.000000000000
         C            0.086170697309     0.401070552782    -0.006833607644    12.000000000000
         C            0.872111697309    -0.716680447218     0.002286392356    12.000000000000
         C            2.151852697309     1.125766552782     0.001750392356    12.000000000000
         C            3.467544697309    -1.071037447218     0.018600392356    12.000000000000
         C           -2.243190302691    -0.339471447218    -0.018141607644    12.000000000000
         C           -3.665985302691     0.172488552782     0.038817392356    12.000000000000
         H            0.520710697309    -1.736547447218     0.003332392356     1.007825032230
         H            2.886392697309     1.917483552782     0.003279392356     1.007825032230
         H           -1.571294002691     1.671338952782    -0.011891007644     1.007825032230
         H            3.514916697309    -1.719530447218    -0.861529607644     1.007825032230
         H            4.360506697309    -0.439582447218     0.021206392356     1.007825032230
         H            3.504760697309    -1.712461447218     0.904383392356     1.007825032230
         H           -3.791988302691     1.115645552782    -0.499435607644     1.007825032230
         H           -3.959468302691     0.325859552782     1.081763392356     1.007825032230
         H           -4.319275302691    -0.584460447218    -0.395173607644     1.007825032230

  Basis Set: AUG-CC-PVTZ
    Blend: AUG-CC-PVTZ
  Basis Set: (AUG-CC-PVTZ AUX)
    Blend: AUG-CC-PVTZ-JKFIT
	 Reference Energy          =    -474.6529309485412682 [Eh]
	 Singles Energy            =      -0.0000000000000000 [Eh]
	 Same-Spin Energy          =      -0.4901647077344167 [Eh]
	 Opposite-Spin Energy      =      -1.5248614771588045 [Eh]
	 Correlation Energy        =      -2.0150261848932214 [Eh]
	 Total Energy              =    -476.6679571334344701 [Eh]

	 ================> DF-SCS-MP2 Energies <==================
	-----------------------------------------------------------
	 SCS Same-Spin Scale       =       0.3333333333333333 [-]
	 SCS Opposite-Spin Scale   =       1.2000000000000000 [-]
	 SCS Same-Spin Energy      =      -0.1633882359114722 [Eh]
	 SCS Opposite-Spin Energy  =      -1.8298337725905653 [Eh]
	 SCS Correlation Energy    =      -1.9932220085020376 [Eh]
	 SCS Total Energy          =    -476.6461529570432845 [Eh]
	-----------------------------------------------------------

  Dipole Moment: [D]
     X:    -0.3740      Y:     2.6780      Z:     0.0953     Total:     2.7057

*** Psi4 exiting successfully. Buy a developer a beer!
