                               Psi4 1.4a3.dev225

  ==> Input File <==

--------------------------------------------------------------------------
#psi4
#
memory 32 gb

molecule  {
0 1
  O        0.8291000     1.5489640    -0.0096600
  O       -1.9645320    -1.5272950    -0.0272540
  N       -1.2915850     0.6563530    -0.0190760
  C        2.2179880    -0.2284570     0.0063820
  C        0.0783220     0.4095260    -0.0084780
  C        0.8642630    -0.7082250     0.0006420
  C        2.1440040     1.1342220     0.0001060
  C        3.4596960    -1.0625820     0.0169560
  C       -2.2510390    -0.3310160    -0.0197860
  C       -3.6738340     0.1809440     0.0371730
  H        0.5128620    -1.7280920     0.0016880
  H        2.9125510     1.9625931     0.0017058
  H       -1.5656180     1.6316590    -0.0137960
  H        3.5070680    -1.7110750    -0.8631740
  H        4.3526580    -0.4311270     0.0195620
  H        3.4969120    -1.7040060     0.9027390
  H       -3.7998370     1.1241010    -0.5010800
  H       -3.9673170     0.3343150     1.0801190
  H       -4.3271240    -0.5760050    -0.3968180
units angstrom
no_reorient  #important for SAPT in psi4, default
symmetry c1  #important for SAPT in psi4, default
}

set PROPERTIES_ORIGIN ["COM"]
properties('MP2/aug-cc-pvtz', properties = ['dipole'])
--------------------------------------------------------------------------

    Molecular point group: c1
  Charge       = 0
  Multiplicity = 1
  Basis Set: AUG-CC-PVTZ
    Blend: AUG-CC-PVTZ
  Basis Set: (AUG-CC-PVTZ AUX)
    Blend: AUG-CC-PVTZ-JKFIT

    Orbital Energies [Eh]
    ---------------------

    Doubly Occupied:

       1A    -20.623452     2A    -20.533819     3A    -15.618441
       4A    -11.370258     5A    -11.336780     6A    -11.278881
       7A    -11.249976     8A    -11.236804     9A    -11.226474
      10A    -11.215408    11A     -1.461065    12A     -1.388520
      13A     -1.254579    14A     -1.096974    15A     -1.036580
      16A     -0.986539    17A     -0.942650    18A     -0.839481
      19A     -0.788728    20A     -0.768545    21A     -0.711795
      22A     -0.680849    23A     -0.657276    24A     -0.644036
      25A     -0.620474    26A     -0.599153    27A     -0.578158
      28A     -0.570593    29A     -0.568753    30A     -0.563738
      31A     -0.541608    32A     -0.538908    33A     -0.509141
      34A     -0.453923    35A     -0.438374    36A     -0.381906
      37A     -0.289276

  @DF-RHF Final Energy:  -474.65422822720041

   => Energetics <=

    Nuclear Repulsion Energy =            508.6103325235703210
    One-Electron Energy =               -1655.3252869535265290
    Two-Electron Energy =                 672.0607262027557454
    Total Energy =                       -474.6542282272004059
  Basis Set: (AUG-CC-PVTZ AUX)
    Blend: AUG-CC-PVTZ-RI
    Molecular point group: c1

    Geometry (in Angstrom), charge = 0, multiplicity = 1:

       Center              X                  Y                   Z               Mass
    ------------   -----------------  -----------------  -----------------  -----------------
         O            0.836604223768     1.540591760495    -0.008014232118    15.994914619570
         O           -1.957027776232    -1.535667239505    -0.025608232118    15.994914619570
         N           -1.284080776232     0.647980760495    -0.017430232118    14.003074004430
         C            2.225492223768    -0.236829239505     0.008027767882    12.000000000000
         C            0.085826223768     0.401153760495    -0.006832232118    12.000000000000
         C            0.871767223768    -0.716597239505     0.002287767882    12.000000000000
         C            2.151508223768     1.125849760495     0.001751767882    12.000000000000
         C            3.467200223768    -1.070954239505     0.018601767882    12.000000000000
         C           -2.243534776232    -0.339388239505    -0.018140232118    12.000000000000
         C           -3.666329776232     0.172571760495     0.038818767882    12.000000000000
         H            0.520366223768    -1.736464239505     0.003333767882     1.007825032230
         H            2.920055223768     1.954220860495     0.003351567882     1.007825032230
         H           -1.558113776232     1.623286760495    -0.012150232118     1.007825032230
         H            3.514572223768    -1.719447239505    -0.861528232118     1.007825032230
         H            4.360162223768    -0.439499239505     0.021207767882     1.007825032230
         H            3.504416223768    -1.712378239505     0.904384767882     1.007825032230
         H           -3.792332776232     1.115728760495    -0.499434232118     1.007825032230
         H           -3.959812776232     0.325942760495     1.081764767882     1.007825032230
         H           -4.319619776232    -0.584377239505    -0.395172232118     1.007825032230

  Basis Set: AUG-CC-PVTZ
    Blend: AUG-CC-PVTZ
  Basis Set: (AUG-CC-PVTZ AUX)
    Blend: AUG-CC-PVTZ-JKFIT
	 Reference Energy          =    -474.6542282272004059 [Eh]
	 Singles Energy            =      -0.0000000000000000 [Eh]
	 Same-Spin Energy          =      -0.4898610038441413 [Eh]
	 Opposite-Spin Energy      =      -1.5243237880538139 [Eh]
	 Correlation Energy        =      -2.0141847918979554 [Eh]
	 Total Energy              =    -476.6684130190983524 [Eh]

	 ================> DF-SCS-MP2 Energies <==================
	-----------------------------------------------------------
	 SCS Same-Spin Scale       =       0.3333333333333333 [-]
	 SCS Opposite-Spin Scale   =       1.2000000000000000 [-]
	 SCS Same-Spin Energy      =      -0.1632870012813804 [Eh]
	 SCS Opposite-Spin Energy  =      -1.8291885456645764 [Eh]
	 SCS Correlation Energy    =      -1.9924755469459570 [Eh]
	 SCS Total Energy          =    -476.6467037741463741 [Eh]
	-----------------------------------------------------------

  Dipole Moment: [D]
     X:    -0.3669      Y:     2.6315      Z:     0.0950     Total:     2.6587

*** Psi4 exiting successfully. Buy a developer a beer!
