                               Psi4 1.4a3.dev225

  ==> Input File <==

--------------------------------------------------------------------------
#psi4
#
memory 32 gb

molecule  {
0 1
  O        0.8291000     1.5489640    -0.0096600
  O       -1.9645320    -1.5272950    -0.0272540
  N       -1.2915850     0.6563530    -0.0190760
  C        2.2261543    -0.2521558     0.0065269
  C        0.0783220     0.4095260    -0.0084780
  C        0.8642630    -0.7082250     0.0006420
  C        2.1440040     1.1342220     0.0001060
  C        3.4596960    -1.0625820     0.0169560
  C       -2.2510390    -0.3310160    -0.0197860
  C       -3.6738340     0.1809440     0.0371730
  H        0.5128620    -1.7280920     0.0016880
  H        2.8785440     1.9259390     0.0016350
  H       -1.5656180     1.6316590    -0.0137960
  H        3.5070680    -1.7110750    -0.8631740
  H        4.3526580    -0.4311270     0.0195620
  H        3.4969120    -1.7040060     0.9027390
  H       -3.7998370     1.1241010    -0.5010800
  H       -3.9673170     0.3343150     1.0801190
  H       -4.3271240    -0.5760050    -0.3968180
units angstrom
no_reorient  #important for SAPT in psi4, default
symmetry c1  #important for SAPT in psi4, default
}

set PROPERTIES_ORIGIN ["COM"]
properties('MP2/aug-cc-pvtz', properties = ['dipole'])
--------------------------------------------------------------------------

    Molecular point group: c1
  Charge       = 0
  Multiplicity = 1
  Basis Set: AUG-CC-PVTZ
    Blend: AUG-CC-PVTZ
  Basis Set: (AUG-CC-PVTZ AUX)
    Blend: AUG-CC-PVTZ-JKFIT

    Orbital Energies [Eh]
    ---------------------

    Doubly Occupied:

       1A    -20.624485     2A    -20.533632     3A    -15.618490
       4A    -11.370109     5A    -11.336642     6A    -11.276101
       7A    -11.249892     8A    -11.239161     9A    -11.225926
      10A    -11.215769    11A     -1.460673    12A     -1.388371
      13A     -1.254513    14A     -1.096488    15A     -1.036713
      16A     -0.988263    17A     -0.943961    18A     -0.838261
      19A     -0.792125    20A     -0.767794    21A     -0.713446
      22A     -0.682384    23A     -0.656848    24A     -0.647705
      25A     -0.620220    26A     -0.599625    27A     -0.582151
      28A     -0.571637    29A     -0.570727    30A     -0.563357
      31A     -0.544852    32A     -0.541468    33A     -0.507061
      34A     -0.453765    35A     -0.438091    36A     -0.379622
      37A     -0.286273

  @DF-RHF Final Energy:  -474.65428140652523

   => Energetics <=

    Nuclear Repulsion Energy =            508.6173604123234213
    One-Electron Energy =               -1655.3100788592942081
    Two-Electron Energy =                 672.0384370404455012
    Total Energy =                       -474.6542814065252287
  Basis Set: (AUG-CC-PVTZ AUX)
    Blend: AUG-CC-PVTZ-RI
    Molecular point group: c1

    Geometry (in Angstrom), charge = 0, multiplicity = 1:

       Center              X                  Y                   Z               Mass
    ------------   -----------------  -----------------  -----------------  -----------------
         O            0.836145997327     1.542902409341    -0.008026222670    15.994914619570
         O           -1.957486002673    -1.533356590659    -0.025620222670    15.994914619570
         N           -1.284539002673     0.650291409341    -0.017442222670    14.003074004430
         C            2.233200297327    -0.258217390659     0.008160677330    12.000000000000
         C            0.085367997327     0.403464409341    -0.006844222670    12.000000000000
         C            0.871308997327    -0.714286590659     0.002275777330    12.000000000000
         C            2.151049997327     1.128160409341     0.001739777330    12.000000000000
         C            3.466741997327    -1.068643590659     0.018589777330    12.000000000000
         C           -2.243993002673    -0.337077590659    -0.018152222670    12.000000000000
         C           -3.666788002673     0.174882409341     0.038806777330    12.000000000000
         H            0.519907997327    -1.734153590659     0.003321777330     1.007825032230
         H            2.885589997327     1.919877409341     0.003268777330     1.007825032230
         H           -1.558572002673     1.625597409341    -0.012162222670     1.007825032230
         H            3.514113997327    -1.717136590659    -0.861540222670     1.007825032230
         H            4.359703997327    -0.437188590659     0.021195777330     1.007825032230
         H            3.503957997327    -1.710067590659     0.904372777330     1.007825032230
         H           -3.792791002673     1.118039409341    -0.499446222670     1.007825032230
         H           -3.960271002673     0.328253409341     1.081752777330     1.007825032230
         H           -4.320078002673    -0.582066590659    -0.395184222670     1.007825032230

  Basis Set: AUG-CC-PVTZ
    Blend: AUG-CC-PVTZ
  Basis Set: (AUG-CC-PVTZ AUX)
    Blend: AUG-CC-PVTZ-JKFIT
	 Reference Energy          =    -474.6542814065252287 [Eh]
	 Singles Energy            =      -0.0000000000000000 [Eh]
	 Same-Spin Energy          =      -0.4903476742236991 [Eh]
	 Opposite-Spin Energy      =      -1.5248482099862046 [Eh]
	 Correlation Energy        =      -2.0151958842099038 [Eh]
	 Total Energy              =    -476.6694772907351307 [Eh]

	 ================> DF-SCS-MP2 Energies <==================
	-----------------------------------------------------------
	 SCS Same-Spin Scale       =       0.3333333333333333 [-]
	 SCS Opposite-Spin Scale   =       1.2000000000000000 [-]
	 SCS Same-Spin Energy      =      -0.1634492247412330 [Eh]
	 SCS Opposite-Spin Energy  =      -1.8298178519834454 [Eh]
	 SCS Correlation Energy    =      -1.9932670767246783 [Eh]
	 SCS Total Energy          =    -476.6475484832499205 [Eh]
	-----------------------------------------------------------

  Dipole Moment: [D]
     X:    -0.3470      Y:     2.6191      Z:     0.0950     Total:     2.6437

*** Psi4 exiting successfully. Buy a developer a beer!
