                               Psi4 1.4a3.dev225

  ==> Input File <==

--------------------------------------------------------------------------
#psi4
#
memory 32 gb

molecule  {
0 1
  O        0.8291000     1.5489640    -0.0096600
  O       -1.9645320    -1.5272950    -0.0272540
  N       -1.2915850     0.6563530    -0.0190760
  C        2.2179880    -0.2284570     0.0063820
  C        0.0783220     0.4095260    -0.0084780
  C        0.8527595    -0.6918649     0.0005085
  C        2.1440040     1.1342220     0.0001060
  C        3.4596960    -1.0625820     0.0169560
  C       -2.2510390    -0.3310160    -0.0197860
  C       -3.6738340     0.1809440     0.0371730
  H        0.5128620    -1.7280920     0.0016880
  H        2.8785440     1.9259390     0.0016350
  H       -1.5656180     1.6316590    -0.0137960
  H        3.5070680    -1.7110750    -0.8631740
  H        4.3526580    -0.4311270     0.0195620
  H        3.4969120    -1.7040060     0.9027390
  H       -3.7998370     1.1241010    -0.5010800
  H       -3.9673170     0.3343150     1.0801190
  H       -4.3271240    -0.5760050    -0.3968180
units angstrom
no_reorient  #important for SAPT in psi4, default
symmetry c1  #important for SAPT in psi4, default
}

set PROPERTIES_ORIGIN ["COM"]
properties('MP2/aug-cc-pvtz', properties = ['dipole'])
--------------------------------------------------------------------------

    Molecular point group: c1
  Charge       = 0
  Multiplicity = 1
  Basis Set: AUG-CC-PVTZ
    Blend: AUG-CC-PVTZ
  Basis Set: (AUG-CC-PVTZ AUX)
    Blend: AUG-CC-PVTZ-JKFIT

    Orbital Energies [Eh]
    ---------------------

    Doubly Occupied:

       1A    -20.621396     2A    -20.533217     3A    -15.617425
       4A    -11.369760     5A    -11.333272     6A    -11.274000
       7A    -11.249598     8A    -11.236604     9A    -11.227128
      10A    -11.213883    11A     -1.460411    12A     -1.387984
      13A     -1.253880    14A     -1.097074    15A     -1.037299
      16A     -0.989306    17A     -0.943807    18A     -0.839614
      19A     -0.791987    20A     -0.766864    21A     -0.712388
      22A     -0.682209    23A     -0.657229    24A     -0.647401
      25A     -0.620087    26A     -0.598975    27A     -0.581017
      28A     -0.570979    29A     -0.568987    30A     -0.562873
      31A     -0.541182    32A     -0.539276    33A     -0.509368
      34A     -0.453692    35A     -0.437565    36A     -0.381814
      37A     -0.291705

  @DF-RHF Final Energy:  -474.65731462704287

   => Energetics <=

    Nuclear Repulsion Energy =            509.1889025800990112
    One-Electron Energy =               -1656.4899269732925404
    Two-Electron Energy =                 672.6437097661506641
    Total Energy =                       -474.6573146270428651
  Basis Set: (AUG-CC-PVTZ AUX)
    Blend: AUG-CC-PVTZ-RI
    Molecular point group: c1

    Geometry (in Angstrom), charge = 0, multiplicity = 1:

       Center              X                  Y                   Z               Mass
    ------------   -----------------  -----------------  -----------------  -----------------
         O            0.837843336248     1.539445661936    -0.008002199082    15.994914619570
         O           -1.955788663752    -1.536813338064    -0.025596199082    15.994914619570
         N           -1.282841663752     0.646834661936    -0.017418199082    14.003074004430
         C            2.226731336248    -0.237975338064     0.008039800918    12.000000000000
         C            0.087065336248     0.400007661936    -0.006820199082    12.000000000000
         C            0.861502836248    -0.701383238064     0.002166300918    12.000000000000
         C            2.152747336248     1.124703661936     0.001763800918    12.000000000000
         C            3.468439336248    -1.072100338064     0.018613800918    12.000000000000
         C           -2.242295663752    -0.340534338064    -0.018128199082    12.000000000000
         C           -3.665090663752     0.171425661936     0.038830800918    12.000000000000
         H            0.521605336248    -1.737610338064     0.003345800918     1.007825032230
         H            2.887287336248     1.916420661936     0.003292800918     1.007825032230
         H           -1.556874663752     1.622140661936    -0.012138199082     1.007825032230
         H            3.515811336248    -1.720593338064    -0.861516199082     1.007825032230
         H            4.361401336248    -0.440645338064     0.021219800918     1.007825032230
         H            3.505655336248    -1.713524338064     0.904396800918     1.007825032230
         H           -3.791093663752     1.114582661936    -0.499422199082     1.007825032230
         H           -3.958573663752     0.324796661936     1.081776800918     1.007825032230
         H           -4.318380663752    -0.585523338064    -0.395160199082     1.007825032230

  Basis Set: AUG-CC-PVTZ
    Blend: AUG-CC-PVTZ
  Basis Set: (AUG-CC-PVTZ AUX)
    Blend: AUG-CC-PVTZ-JKFIT
	 Reference Energy          =    -474.6573146270428651 [Eh]
	 Singles Energy            =      -0.0000000000000000 [Eh]
	 Same-Spin Energy          =      -0.4893782555532736 [Eh]
	 Opposite-Spin Energy      =      -1.5233285723419063 [Eh]
	 Correlation Energy        =      -2.0127068278951801 [Eh]
	 Total Energy              =    -476.6700214549380235 [Eh]

	 ================> DF-SCS-MP2 Energies <==================
	-----------------------------------------------------------
	 SCS Same-Spin Scale       =       0.3333333333333333 [-]
	 SCS Opposite-Spin Scale   =       1.2000000000000000 [-]
	 SCS Same-Spin Energy      =      -0.1631260851844245 [Eh]
	 SCS Opposite-Spin Energy  =      -1.8279942868102874 [Eh]
	 SCS Correlation Energy    =      -1.9911203719947119 [Eh]
	 SCS Total Energy          =    -476.6484349990375904 [Eh]
	-----------------------------------------------------------

  Dipole Moment: [D]
     X:    -0.3386      Y:     2.6073      Z:     0.0953     Total:     2.6310

*** Psi4 exiting successfully. Buy a developer a beer!
