                               Psi4 1.4a3.dev225

  ==> Input File <==

--------------------------------------------------------------------------
#psi4
#
memory 32 gb

molecule  {
0 1
  O        0.8291000     1.5489640    -0.0096600
  O       -1.9645320    -1.5272950    -0.0272540
  N       -1.2915850     0.6563530    -0.0190760
  C        2.2004209    -0.1815050     0.0060871
  C        0.0783220     0.4095260    -0.0084780
  C        0.8642630    -0.7082250     0.0006420
  C        2.1440040     1.1342220     0.0001060
  C        3.4596960    -1.0625820     0.0169560
  C       -2.2510390    -0.3310160    -0.0197860
  C       -3.6738340     0.1809440     0.0371730
  H        0.5128620    -1.7280920     0.0016880
  H        2.8785440     1.9259390     0.0016350
  H       -1.5656180     1.6316590    -0.0137960
  H        3.5070680    -1.7110750    -0.8631740
  H        4.3526580    -0.4311270     0.0195620
  H        3.4969120    -1.7040060     0.9027390
  H       -3.7998370     1.1241010    -0.5010800
  H       -3.9673170     0.3343150     1.0801190
  H       -4.3271240    -0.5760050    -0.3968180
units angstrom
no_reorient  #important for SAPT in psi4, default
symmetry c1  #important for SAPT in psi4, default
}

set PROPERTIES_ORIGIN ["COM"]
properties('MP2/aug-cc-pvtz', properties = ['dipole'])
--------------------------------------------------------------------------

    Molecular point group: c1
  Charge       = 0
  Multiplicity = 1
  Basis Set: AUG-CC-PVTZ
    Blend: AUG-CC-PVTZ
  Basis Set: (AUG-CC-PVTZ AUX)
    Blend: AUG-CC-PVTZ-JKFIT

    Orbital Energies [Eh]
    ---------------------

    Doubly Occupied:

       1A    -20.619827     2A    -20.533980     3A    -15.618040
       4A    -11.370332     5A    -11.336604     6A    -11.267490
       7A    -11.249999     8A    -11.231155     9A    -11.227686
      10A    -11.214057    11A     -1.460946    12A     -1.388593
      13A     -1.254493    14A     -1.098384    15A     -1.037372
      16A     -0.986044    17A     -0.942637    18A     -0.843848
      19A     -0.790674    20A     -0.770723    21A     -0.707833
      22A     -0.682935    23A     -0.657530    24A     -0.648973
      25A     -0.620671    26A     -0.599267    27A     -0.581436
      28A     -0.570979    29A     -0.565287    30A     -0.565135
      31A     -0.541539    32A     -0.530575    33A     -0.509364
      34A     -0.453976    35A     -0.438667    36A     -0.386274
      37A     -0.294769

  @DF-RHF Final Energy:  -474.65613681554862

   => Energetics <=

    Nuclear Repulsion Energy =            509.4301606869761940
    One-Electron Energy =               -1656.9764078825326123
    Two-Electron Energy =                 672.8901103800077408
    Total Energy =                       -474.6561368155486207
  Basis Set: (AUG-CC-PVTZ AUX)
    Blend: AUG-CC-PVTZ-RI
    Molecular point group: c1

    Geometry (in Angstrom), charge = 0, multiplicity = 1:

       Center              X                  Y                   Z               Mass
    ------------   -----------------  -----------------  -----------------  -----------------
         O            0.838366574120     1.536805837305    -0.007988271615    15.994914619570
         O           -1.955265425880    -1.539453162695    -0.025582271615    15.994914619570
         N           -1.282318425880     0.644194837305    -0.017404271615    14.003074004430
         C            2.209687474120    -0.193663162695     0.007758828385    12.000000000000
         C            0.087588574120     0.397367837305    -0.006806271615    12.000000000000
         C            0.873529574120    -0.720383162695     0.002313728385    12.000000000000
         C            2.153270574120     1.122063837305     0.001777728385    12.000000000000
         C            3.468962574120    -1.074740162695     0.018627728385    12.000000000000
         C           -2.241772425880    -0.343174162695    -0.018114271615    12.000000000000
         C           -3.664567425880     0.168785837305     0.038844728385    12.000000000000
         H            0.522128574120    -1.740250162695     0.003359728385     1.007825032230
         H            2.887810574120     1.913780837305     0.003306728385     1.007825032230
         H           -1.556351425880     1.619500837305    -0.012124271615     1.007825032230
         H            3.516334574120    -1.723233162695    -0.861502271615     1.007825032230
         H            4.361924574120    -0.443285162695     0.021233728385     1.007825032230
         H            3.506178574120    -1.716164162695     0.904410728385     1.007825032230
         H           -3.790570425880     1.111942837305    -0.499408271615     1.007825032230
         H           -3.958050425880     0.322156837305     1.081790728385     1.007825032230
         H           -4.317857425880    -0.588163162695    -0.395146271615     1.007825032230

  Basis Set: AUG-CC-PVTZ
    Blend: AUG-CC-PVTZ
  Basis Set: (AUG-CC-PVTZ AUX)
    Blend: AUG-CC-PVTZ-JKFIT
	 Reference Energy          =    -474.6561368155486207 [Eh]
	 Singles Energy            =      -0.0000000000000000 [Eh]
	 Same-Spin Energy          =      -0.4886991257423852 [Eh]
	 Opposite-Spin Energy      =      -1.5222013125773093 [Eh]
	 Correlation Energy        =      -2.0109004383196947 [Eh]
	 Total Energy              =    -476.6670372538683296 [Eh]

	 ================> DF-SCS-MP2 Energies <==================
	-----------------------------------------------------------
	 SCS Same-Spin Scale       =       0.3333333333333333 [-]
	 SCS Opposite-Spin Scale   =       1.2000000000000000 [-]
	 SCS Same-Spin Energy      =      -0.1628997085807951 [Eh]
	 SCS Opposite-Spin Energy  =      -1.8266415750927711 [Eh]
	 SCS Correlation Energy    =      -1.9895412836735662 [Eh]
	 SCS Total Energy          =    -476.6456780992222093 [Eh]
	-----------------------------------------------------------

  Dipole Moment: [D]
     X:    -0.3961      Y:     2.6405      Z:     0.0949     Total:     2.6718

*** Psi4 exiting successfully. Buy a developer a beer!
