                               Psi4 1.4a3.dev225

  ==> Input File <==

--------------------------------------------------------------------------
#psi4
#
memory 32 gb

molecule  {
0 1
  O        0.8291000     1.5489640    -0.0096600
  O       -1.9645320    -1.5272950    -0.0272540
  N       -1.2915850     0.6563530    -0.0190760
  C        2.1604265    -0.0895825     0.0054778
  C        0.0783220     0.4095260    -0.0084780
  C        0.8642630    -0.7082250     0.0006420
  C        2.1440040     1.1342220     0.0001060
  C        3.4596960    -1.0625820     0.0169560
  C       -2.2510390    -0.3310160    -0.0197860
  C       -3.6738340     0.1809440     0.0371730
  H        0.5128620    -1.7280920     0.0016880
  H        2.8785440     1.9259390     0.0016350
  H       -1.5656180     1.6316590    -0.0137960
  H        3.5070680    -1.7110750    -0.8631740
  H        4.3526580    -0.4311270     0.0195620
  H        3.4969120    -1.7040060     0.9027390
  H       -3.7998370     1.1241010    -0.5010800
  H       -3.9673170     0.3343150     1.0801190
  H       -4.3271240    -0.5760050    -0.3968180
units angstrom
no_reorient  #important for SAPT in psi4, default
symmetry c1  #important for SAPT in psi4, default
}

set PROPERTIES_ORIGIN ["COM"]
properties('MP2/aug-cc-pvtz', properties = ['dipole'])
--------------------------------------------------------------------------

    Molecular point group: c1
  Charge       = 0
  Multiplicity = 1
  Basis Set: AUG-CC-PVTZ
    Blend: AUG-CC-PVTZ
  Basis Set: (AUG-CC-PVTZ AUX)
    Blend: AUG-CC-PVTZ-JKFIT

    Orbital Energies [Eh]
    ---------------------

    Doubly Occupied:

       1A    -20.613545     2A    -20.534409     3A    -15.617439
       4A    -11.370605     5A    -11.336707     6A    -11.254405
       7A    -11.250126     8A    -11.229661     9A    -11.220576
      10A    -11.212796    11A     -1.462510    12A     -1.388899
      13A     -1.254615    14A     -1.104953    15A     -1.039269
      16A     -0.988347    17A     -0.936886    18A     -0.850878
      19A     -0.789077    20A     -0.773467    21A     -0.700391
      22A     -0.683421    23A     -0.659323    24A     -0.650715
      25A     -0.621635    26A     -0.599218    27A     -0.587795
      28A     -0.570845    29A     -0.565300    30A     -0.558928
      31A     -0.541642    32A     -0.531121    33A     -0.481906
      34A     -0.454654    35A     -0.439222    36A     -0.397630
      37A     -0.304748

  @DF-RHF Final Energy:  -474.62825480016829

   => Energetics <=

    Nuclear Repulsion Energy =            510.7300087251441028
    One-Electron Energy =               -1659.5612039481320608
    Two-Electron Energy =                 674.2029404228195517
    Total Energy =                       -474.6282548001682926
  Basis Set: (AUG-CC-PVTZ AUX)
    Blend: AUG-CC-PVTZ-RI
    Molecular point group: c1

    Geometry (in Angstrom), charge = 0, multiplicity = 1:

       Center              X                  Y                   Z               Mass
    ------------   -----------------  -----------------  -----------------  -----------------
         O            0.841817755715     1.528873695800    -0.007935694130    15.994914619570
         O           -1.951814244285    -1.547385304200    -0.025529694130    15.994914619570
         N           -1.278867244285     0.636262695800    -0.017351694130    14.003074004430
         C            2.173144255715    -0.109672804200     0.007202105870    12.000000000000
         C            0.091039755715     0.389435695800    -0.006753694130    12.000000000000
         C            0.876980755715    -0.728315304200     0.002366305870    12.000000000000
         C            2.156721755715     1.114131695800     0.001830305870    12.000000000000
         C            3.472413755715    -1.082672304200     0.018680305870    12.000000000000
         C           -2.238321244285    -0.351106304200    -0.018061694130    12.000000000000
         C           -3.661116244285     0.160853695800     0.038897305870    12.000000000000
         H            0.525579755715    -1.748182304200     0.003412305870     1.007825032230
         H            2.891261755715     1.905848695800     0.003359305870     1.007825032230
         H           -1.552900244285     1.611568695800    -0.012071694130     1.007825032230
         H            3.519785755715    -1.731165304200    -0.861449694130     1.007825032230
         H            4.365375755715    -0.451217304200     0.021286305870     1.007825032230
         H            3.509629755715    -1.724096304200     0.904463305870     1.007825032230
         H           -3.787119244285     1.104010695800    -0.499355694130     1.007825032230
         H           -3.954599244285     0.314224695800     1.081843305870     1.007825032230
         H           -4.314406244285    -0.596095304200    -0.395093694130     1.007825032230

  Basis Set: AUG-CC-PVTZ
    Blend: AUG-CC-PVTZ
  Basis Set: (AUG-CC-PVTZ AUX)
    Blend: AUG-CC-PVTZ-JKFIT
	 Reference Energy          =    -474.6282548001682926 [Eh]
	 Singles Energy            =      -0.0000000000000000 [Eh]
	 Same-Spin Energy          =      -0.4874619839673010 [Eh]
	 Opposite-Spin Energy      =      -1.5202465459656476 [Eh]
	 Correlation Energy        =      -2.0077085299329487 [Eh]
	 Total Energy              =    -476.6359633301012195 [Eh]

	 ================> DF-SCS-MP2 Energies <==================
	-----------------------------------------------------------
	 SCS Same-Spin Scale       =       0.3333333333333333 [-]
	 SCS Opposite-Spin Scale   =       1.2000000000000000 [-]
	 SCS Same-Spin Energy      =      -0.1624873279891003 [Eh]
	 SCS Opposite-Spin Energy  =      -1.8242958551587769 [Eh]
	 SCS Correlation Energy    =      -1.9867831831478773 [Eh]
	 SCS Total Energy          =    -476.6150379833161423 [Eh]
	-----------------------------------------------------------

  Dipole Moment: [D]
     X:    -0.4531      Y:     2.6665      Z:     0.0948     Total:     2.7064

*** Psi4 exiting successfully. Buy a developer a beer!
