                               Psi4 1.4a3.dev225

  ==> Input File <==

--------------------------------------------------------------------------
#psi4
#
memory 32 gb

molecule  {
0 1
  O        0.8291000     1.5489640    -0.0096600
  O       -1.9645320    -1.5272950    -0.0272540
  N       -1.2915850     0.6563530    -0.0190760
  C        2.2179880    -0.2284570     0.0063820
  C        0.0783220     0.4095260    -0.0084780
  C        0.8642630    -0.7082250     0.0006420
  C        2.1440040     1.1342220     0.0001060
  C        3.4596960    -1.0625820     0.0169560
  C       -2.2510390    -0.3310160    -0.0197860
  C       -3.6738340     0.1809440     0.0371730
  H        0.5128620    -1.7280920     0.0016880
  H        2.8785440     1.9259390     0.0016350
  H       -1.5656180     1.6316590    -0.0137960
  H        3.5070680    -1.7110750    -0.8631740
  H        4.3526580    -0.4311270     0.0195620
  H        3.4975922    -1.7157293     0.9189285
  H       -3.7998370     1.1241010    -0.5010800
  H       -3.9673170     0.3343150     1.0801190
  H       -4.3271240    -0.5760050    -0.3968180
units angstrom
no_reorient  #important for SAPT in psi4, default
symmetry c1  #important for SAPT in psi4, default
}

set PROPERTIES_ORIGIN ["COM"]
properties('MP2/aug-cc-pvtz', properties = ['dipole'])
--------------------------------------------------------------------------

    Molecular point group: c1
  Charge       = 0
  Multiplicity = 1
  Basis Set: AUG-CC-PVTZ
    Blend: AUG-CC-PVTZ
  Basis Set: (AUG-CC-PVTZ AUX)
    Blend: AUG-CC-PVTZ-JKFIT

    Orbital Energies [Eh]
    ---------------------

    Doubly Occupied:

       1A    -20.623057     2A    -20.533784     3A    -15.618386
       4A    -11.370219     5A    -11.336691     6A    -11.273566
       7A    -11.249954     8A    -11.236686     9A    -11.228907
      10A    -11.215180    11A     -1.460809    12A     -1.388480
      13A     -1.254548    14A     -1.096712    15A     -1.036869
      16A     -0.986832    17A     -0.942737    18A     -0.840028
      19A     -0.791588    20A     -0.768895    21A     -0.711394
      22A     -0.682613    23A     -0.657077    24A     -0.648129
      25A     -0.620353    26A     -0.599509    27A     -0.581330
      28A     -0.571377    29A     -0.566152    30A     -0.564009
      31A     -0.541512    32A     -0.538402    33A     -0.509781
      34A     -0.453859    35A     -0.438334    36A     -0.381518
      37A     -0.289260

  @DF-RHF Final Energy:  -474.65632211934565

   => Energetics <=

    Nuclear Repulsion Energy =            508.7896951096277576
    One-Electron Energy =               -1655.6749504269027966
    Two-Electron Energy =                 672.2289331979294502
    Total Energy =                       -474.6563221193456457
  Basis Set: (AUG-CC-PVTZ AUX)
    Blend: AUG-CC-PVTZ-RI
    Molecular point group: c1

    Geometry (in Angstrom), charge = 0, multiplicity = 1:

       Center              X                  Y                   Z               Mass
    ------------   -----------------  -----------------  -----------------  -----------------
         O            0.836845751018     1.540942363025    -0.008131048172    15.994914619570
         O           -1.956786248982    -1.535316636975    -0.025725048172    15.994914619570
         N           -1.283839248982     0.648331363025    -0.017547048172    14.003074004430
         C            2.225733751018    -0.236478636975     0.007910951828    12.000000000000
         C            0.086067751018     0.401504363025    -0.006949048172    12.000000000000
         C            0.872008751018    -0.716246636975     0.002170951828    12.000000000000
         C            2.151749751018     1.126200363025     0.001634951828    12.000000000000
         C            3.467441751018    -1.070603636975     0.018484951828    12.000000000000
         C           -2.243293248982    -0.339037636975    -0.018257048172    12.000000000000
         C           -3.666088248982     0.172922363025     0.038701951828    12.000000000000
         H            0.520607751018    -1.736113636975     0.003216951828     1.007825032230
         H            2.886289751018     1.917917363025     0.003163951828     1.007825032230
         H           -1.557872248982     1.623637363025    -0.012267048172     1.007825032230
         H            3.514813751018    -1.719096636975    -0.861645048172     1.007825032230
         H            4.360403751018    -0.439148636975     0.021090951828     1.007825032230
         H            3.505337951018    -1.723750936975     0.920457451828     1.007825032230
         H           -3.792091248982     1.116079363025    -0.499551048172     1.007825032230
         H           -3.959571248982     0.326293363025     1.081647951828     1.007825032230
         H           -4.319378248982    -0.584026636975    -0.395289048172     1.007825032230

  Basis Set: AUG-CC-PVTZ
    Blend: AUG-CC-PVTZ
  Basis Set: (AUG-CC-PVTZ AUX)
    Blend: AUG-CC-PVTZ-JKFIT
	 Reference Energy          =    -474.6563221193456457 [Eh]
	 Singles Energy            =      -0.0000000000000000 [Eh]
	 Same-Spin Energy          =      -0.4897248129540793 [Eh]
	 Opposite-Spin Energy      =      -1.5239704788088297 [Eh]
	 Correlation Energy        =      -2.0136952917629092 [Eh]
	 Total Energy              =    -476.6700174111085744 [Eh]

	 ================> DF-SCS-MP2 Energies <==================
	-----------------------------------------------------------
	 SCS Same-Spin Scale       =       0.3333333333333333 [-]
	 SCS Opposite-Spin Scale   =       1.2000000000000000 [-]
	 SCS Same-Spin Energy      =      -0.1632416043180264 [Eh]
	 SCS Opposite-Spin Energy  =      -1.8287645745705956 [Eh]
	 SCS Correlation Energy    =      -1.9920061788886221 [Eh]
	 SCS Total Energy          =    -476.6483282982342757 [Eh]
	-----------------------------------------------------------

  Dipole Moment: [D]
     X:    -0.3710      Y:     2.6352      Z:     0.0887     Total:     2.6627

*** Psi4 exiting successfully. Buy a developer a beer!
