                               Psi4 1.4a3.dev225

  ==> Input File <==

--------------------------------------------------------------------------
#psi4
#
memory 32 gb

molecule  {
0 1
  O        0.8291000     1.5489640    -0.0096600
  O       -1.9645320    -1.5272950    -0.0272540
  N       -1.2915850     0.6563530    -0.0190760
  C        2.2179880    -0.2284570     0.0063820
  C        0.0783220     0.4095260    -0.0084780
  C        1.0527727    -0.6414161     0.0014413
  C        2.1440040     1.1342220     0.0001060
  C        3.4596960    -1.0625820     0.0169560
  C       -2.2510390    -0.3310160    -0.0197860
  C       -3.6738340     0.1809440     0.0371730
  H        0.5128620    -1.7280920     0.0016880
  H        2.8785440     1.9259390     0.0016350
  H       -1.5656180     1.6316590    -0.0137960
  H        3.5070680    -1.7110750    -0.8631740
  H        4.3526580    -0.4311270     0.0195620
  H        3.4969120    -1.7040060     0.9027390
  H       -3.7998370     1.1241010    -0.5010800
  H       -3.9673170     0.3343150     1.0801190
  H       -4.3271240    -0.5760050    -0.3968180
units angstrom
no_reorient  #important for SAPT in psi4, default
symmetry c1  #important for SAPT in psi4, default
}

set PROPERTIES_ORIGIN ["COM"]
properties('MP2/aug-cc-pvtz', properties = ['dipole'])
--------------------------------------------------------------------------

    Molecular point group: c1
  Charge       = 0
  Multiplicity = 1
  Basis Set: AUG-CC-PVTZ
    Blend: AUG-CC-PVTZ
  Basis Set: (AUG-CC-PVTZ AUX)
    Blend: AUG-CC-PVTZ-JKFIT

    Orbital Energies [Eh]
    ---------------------

    Doubly Occupied:

       1A    -20.630425     2A    -20.536504     3A    -15.626136
       4A    -11.373005     5A    -11.341349     6A    -11.268256
       7A    -11.252100     8A    -11.226259     9A    -11.217793
      10A    -11.214928    11A     -1.465443    12A     -1.391222
      13A     -1.258660    14A     -1.135405    15A     -1.035430
      16A     -0.979869    17A     -0.947370    18A     -0.840141
      19A     -0.806683    20A     -0.757612    21A     -0.728491
      22A     -0.683167    23A     -0.659829    24A     -0.652420
      25A     -0.623365    26A     -0.601930    27A     -0.583547
      28A     -0.572198    29A     -0.570988    30A     -0.558956
      31A     -0.543714    32A     -0.522584    33A     -0.498856
      34A     -0.455873    35A     -0.440321    36A     -0.410587
      37A     -0.267729

  @DF-RHF Final Energy:  -474.59022280556007

   => Energetics <=

    Nuclear Repulsion Energy =            510.1840897947979556
    One-Electron Energy =               -1658.1903300768947247
    Two-Electron Energy =                 673.4160174765366946
    Total Energy =                       -474.5902228055600744
  Basis Set: (AUG-CC-PVTZ AUX)
    Blend: AUG-CC-PVTZ-RI
    Molecular point group: c1

    Geometry (in Angstrom), charge = 0, multiplicity = 1:

       Center              X                  Y                   Z               Mass
    ------------   -----------------  -----------------  -----------------  -----------------
         O            0.820583873058     1.535092353221    -0.008082691906    15.994914619570
         O           -1.973048126942    -1.541166646779    -0.025676691906    15.994914619570
         N           -1.300101126942     0.642481353221    -0.017498691906    14.003074004430
         C            2.209471873058    -0.242328646779     0.007959308094    12.000000000000
         C            0.069805873058     0.395654353221    -0.006900691906    12.000000000000
         C            1.044256573058    -0.655287746779     0.003018608094    12.000000000000
         C            2.135487873058     1.120350353221     0.001683308094    12.000000000000
         C            3.451179873058    -1.076453646779     0.018533308094    12.000000000000
         C           -2.259555126942    -0.344887646779    -0.018208691906    12.000000000000
         C           -3.682350126942     0.167072353221     0.038750308094    12.000000000000
         H            0.504345873058    -1.741963646779     0.003265308094     1.007825032230
         H            2.870027873058     1.912067353221     0.003212308094     1.007825032230
         H           -1.574134126942     1.617787353221    -0.012218691906     1.007825032230
         H            3.498551873058    -1.724946646779    -0.861596691906     1.007825032230
         H            4.344141873058    -0.444998646779     0.021139308094     1.007825032230
         H            3.488395873058    -1.717877646779     0.904316308094     1.007825032230
         H           -3.808353126942     1.110229353221    -0.499502691906     1.007825032230
         H           -3.975833126942     0.320443353221     1.081696308094     1.007825032230
         H           -4.335640126942    -0.589876646779    -0.395240691906     1.007825032230

  Basis Set: AUG-CC-PVTZ
    Blend: AUG-CC-PVTZ
  Basis Set: (AUG-CC-PVTZ AUX)
    Blend: AUG-CC-PVTZ-JKFIT
	 Reference Energy          =    -474.5902228055600744 [Eh]
	 Singles Energy            =      -0.0000000000000000 [Eh]
	 Same-Spin Energy          =      -0.4956704717368984 [Eh]
	 Opposite-Spin Energy      =      -1.5311673451318883 [Eh]
	 Correlation Energy        =      -2.0268378168687868 [Eh]
	 Total Energy              =    -476.6170606224288804 [Eh]

	 ================> DF-SCS-MP2 Energies <==================
	-----------------------------------------------------------
	 SCS Same-Spin Scale       =       0.3333333333333333 [-]
	 SCS Opposite-Spin Scale   =       1.2000000000000000 [-]
	 SCS Same-Spin Energy      =      -0.1652234905789661 [Eh]
	 SCS Opposite-Spin Energy  =      -1.8374008141582658 [Eh]
	 SCS Correlation Energy    =      -2.0026243047372319 [Eh]
	 SCS Total Energy          =    -476.5928471102973276 [Eh]
	-----------------------------------------------------------

  Dipole Moment: [D]
     X:    -0.4026      Y:     2.6920      Z:     0.0947     Total:     2.7236

*** Psi4 exiting successfully. Buy a developer a beer!
