                               Psi4 1.4a3.dev225

  ==> Input File <==

--------------------------------------------------------------------------
#psi4
#
memory 32 gb

molecule  {
0 1
  O        0.8291000     1.5489640    -0.0096600
  O       -1.9645320    -1.5272950    -0.0272540
  N       -1.2915850     0.6563530    -0.0190760
  C        2.2417585    -0.2269576     0.0065339
  C        0.0783220     0.4095260    -0.0084780
  C        0.8642630    -0.7082250     0.0006420
  C        2.1440040     1.1342220     0.0001060
  C        3.4596960    -1.0625820     0.0169560
  C       -2.2510390    -0.3310160    -0.0197860
  C       -3.6738340     0.1809440     0.0371730
  H        0.5128620    -1.7280920     0.0016880
  H        2.8785440     1.9259390     0.0016350
  H       -1.5656180     1.6316590    -0.0137960
  H        3.5070680    -1.7110750    -0.8631740
  H        4.3526580    -0.4311270     0.0195620
  H        3.4969120    -1.7040060     0.9027390
  H       -3.7998370     1.1241010    -0.5010800
  H       -3.9673170     0.3343150     1.0801190
  H       -4.3271240    -0.5760050    -0.3968180
units angstrom
no_reorient  #important for SAPT in psi4, default
symmetry c1  #important for SAPT in psi4, default
}

set PROPERTIES_ORIGIN ["COM"]
properties('MP2/aug-cc-pvtz', properties = ['dipole'])
--------------------------------------------------------------------------

    Molecular point group: c1
  Charge       = 0
  Multiplicity = 1
  Basis Set: AUG-CC-PVTZ
    Blend: AUG-CC-PVTZ
  Basis Set: (AUG-CC-PVTZ AUX)
    Blend: AUG-CC-PVTZ-JKFIT

    Orbital Energies [Eh]
    ---------------------

    Doubly Occupied:

       1A    -20.622886     2A    -20.533577     3A    -15.618171
       4A    -11.370004     5A    -11.336277     6A    -11.274700
       7A    -11.249803     8A    -11.237673     9A    -11.226069
      10A    -11.216331    11A     -1.460322    12A     -1.388238
      13A     -1.254309    14A     -1.095211    15A     -1.036893
      16A     -0.987652    17A     -0.945616    18A     -0.840410
      19A     -0.790090    20A     -0.768272    21A     -0.711100
      22A     -0.682340    23A     -0.656773    24A     -0.648144
      25A     -0.620251    26A     -0.599435    27A     -0.581942
      28A     -0.571474    29A     -0.570614    30A     -0.563493
      31A     -0.544751    32A     -0.541418    33A     -0.504834
      34A     -0.453699    35A     -0.437943    36A     -0.378472
      37A     -0.290557

  @DF-RHF Final Energy:  -474.65635604129369

   => Energetics <=

    Nuclear Repulsion Energy =            508.5908722565350217
    One-Electron Energy =               -1655.2749728887672518
    Two-Electron Energy =                 672.0277445909385960
    Total Energy =                       -474.6563560412936340
  Basis Set: (AUG-CC-PVTZ AUX)
    Blend: AUG-CC-PVTZ-RI
    Molecular point group: c1

    Geometry (in Angstrom), charge = 0, multiplicity = 1:

       Center              X                  Y                   Z               Mass
    ------------   -----------------  -----------------  -----------------  -----------------
         O            0.834799485619     1.540728015824    -0.008026826711    15.994914619570
         O           -1.958832514381    -1.535530984176    -0.025620826711    15.994914619570
         N           -1.285885514381     0.648117015824    -0.017442826711    14.003074004430
         C            2.247457985619    -0.235193584176     0.008167073289    12.000000000000
         C            0.084021485619     0.401290015824    -0.006844826711    12.000000000000
         C            0.869962485619    -0.716460984176     0.002275173289    12.000000000000
         C            2.149703485619     1.125986015824     0.001739173289    12.000000000000
         C            3.465395485619    -1.070817984176     0.018589173289    12.000000000000
         C           -2.245339514381    -0.339251984176    -0.018152826711    12.000000000000
         C           -3.668134514381     0.172708015824     0.038806173289    12.000000000000
         H            0.518561485619    -1.736327984176     0.003321173289     1.007825032230
         H            2.884243485619     1.917703015824     0.003268173289     1.007825032230
         H           -1.559918514381     1.623423015824    -0.012162826711     1.007825032230
         H            3.512767485619    -1.719310984176    -0.861540826711     1.007825032230
         H            4.358357485619    -0.439362984176     0.021195173289     1.007825032230
         H            3.502611485619    -1.712241984176     0.904372173289     1.007825032230
         H           -3.794137514381     1.115865015824    -0.499446826711     1.007825032230
         H           -3.961617514381     0.326079015824     1.081752173289     1.007825032230
         H           -4.321424514381    -0.584240984176    -0.395184826711     1.007825032230

  Basis Set: AUG-CC-PVTZ
    Blend: AUG-CC-PVTZ
  Basis Set: (AUG-CC-PVTZ AUX)
    Blend: AUG-CC-PVTZ-JKFIT
	 Reference Energy          =    -474.6563560412936909 [Eh]
	 Singles Energy            =      -0.0000000000000000 [Eh]
	 Same-Spin Energy          =      -0.4895487385949036 [Eh]
	 Opposite-Spin Energy      =      -1.5237953884815232 [Eh]
	 Correlation Energy        =      -2.0133441270764267 [Eh]
	 Total Energy              =    -476.6697001683701274 [Eh]

	 ================> DF-SCS-MP2 Energies <==================
	-----------------------------------------------------------
	 SCS Same-Spin Scale       =       0.3333333333333333 [-]
	 SCS Opposite-Spin Scale   =       1.2000000000000000 [-]
	 SCS Same-Spin Energy      =      -0.1631829128649678 [Eh]
	 SCS Opposite-Spin Energy  =      -1.8285544661778277 [Eh]
	 SCS Correlation Energy    =      -1.9917373790427955 [Eh]
	 SCS Total Energy          =    -476.6480934203364654 [Eh]
	-----------------------------------------------------------

  Dipole Moment: [D]
     X:    -0.3398      Y:     2.6129      Z:     0.0951     Total:     2.6366

*** Psi4 exiting successfully. Buy a developer a beer!
