                               Psi4 1.4a3.dev225

  ==> Input File <==

--------------------------------------------------------------------------
#psi4
#
memory 32 gb

molecule  {
0 1
  O        0.8291000     1.5489640    -0.0096600
  O       -1.9645320    -1.5272950    -0.0272540
  N       -1.2915850     0.6563530    -0.0190760
  C        2.2179880    -0.2284570     0.0063820
  C        0.0783220     0.4095260    -0.0084780
  C        0.8642630    -0.7082250     0.0006420
  C        2.1440040     1.1342220     0.0001060
  C        3.4596960    -1.0625820     0.0169560
  C       -2.2510390    -0.3310160    -0.0197860
  C       -3.6738340     0.1809440     0.0371730
  H        0.5128620    -1.7280920     0.0016880
  H        2.8785440     1.9259390     0.0016350
  H       -1.5602081     1.6124048    -0.0139002
  H        3.5070680    -1.7110750    -0.8631740
  H        4.3526580    -0.4311270     0.0195620
  H        3.4969120    -1.7040060     0.9027390
  H       -3.7998370     1.1241010    -0.5010800
  H       -3.9673170     0.3343150     1.0801190
  H       -4.3271240    -0.5760050    -0.3968180
units angstrom
no_reorient  #important for SAPT in psi4, default
symmetry c1  #important for SAPT in psi4, default
}

set PROPERTIES_ORIGIN ["COM"]
properties('MP2/aug-cc-pvtz', properties = ['dipole'])
--------------------------------------------------------------------------

    Molecular point group: c1
  Charge       = 0
  Multiplicity = 1
  Basis Set: AUG-CC-PVTZ
    Blend: AUG-CC-PVTZ
  Basis Set: (AUG-CC-PVTZ AUX)
    Blend: AUG-CC-PVTZ-JKFIT

    Orbital Energies [Eh]
    ---------------------

    Doubly Occupied:

       1A    -20.623053     2A    -20.533880     3A    -15.616645
       4A    -11.370308     5A    -11.336661     6A    -11.273480
       7A    -11.250050     8A    -11.236563     9A    -11.226570
      10A    -11.215218    11A     -1.460874    12A     -1.388728
      13A     -1.256977    14A     -1.096894    15A     -1.037016
      16A     -0.987629    17A     -0.943931    18A     -0.841137
      19A     -0.794120    20A     -0.770507    21A     -0.712790
      22A     -0.682948    23A     -0.657201    24A     -0.648248
      25A     -0.620484    26A     -0.600057    27A     -0.581665
      28A     -0.571471    29A     -0.568843    30A     -0.564144
      31A     -0.541725    32A     -0.538890    33A     -0.510148
      34A     -0.454089    35A     -0.438500    36A     -0.381748
      37A     -0.289355

  @DF-RHF Final Energy:  -474.65728462433430

   => Energetics <=

    Nuclear Repulsion Energy =            508.9990733773195188
    One-Electron Energy =               -1656.0676242884017029
    Two-Electron Energy =                 672.4112662867478321
    Total Energy =                       -474.6572846243343520
  Basis Set: (AUG-CC-PVTZ AUX)
    Blend: AUG-CC-PVTZ-RI
    Molecular point group: c1

    Geometry (in Angstrom), charge = 0, multiplicity = 1:

       Center              X                  Y                   Z               Mass
    ------------   -----------------  -----------------  -----------------  -----------------
         O            0.836811473757     1.540996941249    -0.008012963851    15.994914619570
         O           -1.956820526243    -1.535262058751    -0.025606963851    15.994914619570
         N           -1.283873526243     0.648385941249    -0.017428963851    14.003074004430
         C            2.225699473757    -0.236424058751     0.008029036149    12.000000000000
         C            0.086033473757     0.401558941249    -0.006830963851    12.000000000000
         C            0.871974473757    -0.716192058751     0.002289036149    12.000000000000
         C            2.151715473757     1.126254941249     0.001753036149    12.000000000000
         C            3.467407473757    -1.070549058751     0.018603036149    12.000000000000
         C           -2.243327526243    -0.338983058751    -0.018138963851    12.000000000000
         C           -3.666122526243     0.172976941249     0.038820036149    12.000000000000
         H            0.520573473757    -1.736059058751     0.003335036149     1.007825032230
         H            2.886255473757     1.917971941249     0.003282036149     1.007825032230
         H           -1.552496626243     1.604437741249    -0.012253163851     1.007825032230
         H            3.514779473757    -1.719042058751    -0.861526963851     1.007825032230
         H            4.360369473757    -0.439094058751     0.021209036149     1.007825032230
         H            3.504623473757    -1.711973058751     0.904386036149     1.007825032230
         H           -3.792125526243     1.116133941249    -0.499432963851     1.007825032230
         H           -3.959605526243     0.326347941249     1.081766036149     1.007825032230
         H           -4.319412526243    -0.583972058751    -0.395170963851     1.007825032230

  Basis Set: AUG-CC-PVTZ
    Blend: AUG-CC-PVTZ
  Basis Set: (AUG-CC-PVTZ AUX)
    Blend: AUG-CC-PVTZ-JKFIT
	 Reference Energy          =    -474.6572846243342951 [Eh]
	 Singles Energy            =      -0.0000000000000000 [Eh]
	 Same-Spin Energy          =      -0.4895663452203372 [Eh]
	 Opposite-Spin Energy      =      -1.5234811495082003 [Eh]
	 Correlation Energy        =      -2.0130474947285375 [Eh]
	 Total Energy              =    -476.6703321190628344 [Eh]

	 ================> DF-SCS-MP2 Energies <==================
	-----------------------------------------------------------
	 SCS Same-Spin Scale       =       0.3333333333333333 [-]
	 SCS Opposite-Spin Scale   =       1.2000000000000000 [-]
	 SCS Same-Spin Energy      =      -0.1631887817401124 [Eh]
	 SCS Opposite-Spin Energy  =      -1.8281773794098404 [Eh]
	 SCS Correlation Energy    =      -1.9913661611499527 [Eh]
	 SCS Total Energy          =    -476.6486507854842216 [Eh]
	-----------------------------------------------------------

  Dipole Moment: [D]
     X:    -0.3609      Y:     2.6064      Z:     0.0949     Total:     2.6330

*** Psi4 exiting successfully. Buy a developer a beer!
