                               Psi4 1.4a3.dev225

  ==> Input File <==

--------------------------------------------------------------------------
#psi4
#
memory 32 gb

molecule  {
0 1
  O        0.8291000     1.5489640    -0.0096600
  O       -1.9645320    -1.5272950    -0.0272540
  N       -1.2915850     0.6563530    -0.0190760
  C        2.2179880    -0.2284570     0.0063820
  C        0.0783220     0.4095260    -0.0084780
  C        0.8642630    -0.7082250     0.0006420
  C        2.1440040     1.1342220     0.0001060
  C        3.4596960    -1.0625820     0.0169560
  C       -2.2510390    -0.3310160    -0.0197860
  C       -3.6738340     0.1809440     0.0371730
  H        0.5128620    -1.7280920     0.0016880
  H        2.8785440     1.9259390     0.0016350
  H       -1.5656180     1.6316590    -0.0137960
  H        3.5070680    -1.7110750    -0.8631740
  H        4.3526580    -0.4311270     0.0195620
  H        3.5003130    -1.7626227     0.9836866
  H       -3.7998370     1.1241010    -0.5010800
  H       -3.9673170     0.3343150     1.0801190
  H       -4.3271240    -0.5760050    -0.3968180
units angstrom
no_reorient  #important for SAPT in psi4, default
symmetry c1  #important for SAPT in psi4, default
}

set PROPERTIES_ORIGIN ["COM"]
properties('MP2/aug-cc-pvtz', properties = ['dipole'])
--------------------------------------------------------------------------

    Molecular point group: c1
  Charge       = 0
  Multiplicity = 1
  Basis Set: AUG-CC-PVTZ
    Blend: AUG-CC-PVTZ
  Basis Set: (AUG-CC-PVTZ AUX)
    Blend: AUG-CC-PVTZ-JKFIT

    Orbital Energies [Eh]
    ---------------------

    Doubly Occupied:

       1A    -20.623555     2A    -20.533927     3A    -15.618584
       4A    -11.370367     5A    -11.336996     6A    -11.274435
       7A    -11.250064     8A    -11.238340     9A    -11.237350
      10A    -11.215440    11A     -1.461296    12A     -1.388629
      13A     -1.254762    14A     -1.096607    15A     -1.036991
      16A     -0.985996    17A     -0.939081    18A     -0.839780
      19A     -0.791575    20A     -0.769100    21A     -0.710814
      22A     -0.682813    23A     -0.657331    24A     -0.648309
      25A     -0.620440    26A     -0.599681    27A     -0.581570
      28A     -0.571566    29A     -0.564313    30A     -0.556761
      31A     -0.541679    32A     -0.535634    33A     -0.508043
      34A     -0.454043    35A     -0.438472    36A     -0.380899
      37A     -0.289598

  @DF-RHF Final Energy:  -474.65040860584844

   => Energetics <=

    Nuclear Repulsion Energy =            508.4721024923352388
    One-Electron Energy =               -1655.0353422167577264
    Two-Electron Energy =                 671.9128311185742177
    Total Energy =                       -474.6504086058483836
  Basis Set: (AUG-CC-PVTZ AUX)
    Blend: AUG-CC-PVTZ-RI
    Molecular point group: c1

    Geometry (in Angstrom), charge = 0, multiplicity = 1:

       Center              X                  Y                   Z               Mass
    ------------   -----------------  -----------------  -----------------  -----------------
         O            0.836826032733     1.541282210653    -0.008600365532    15.994914619570
         O           -1.956805967267    -1.534976789347    -0.026194365532    15.994914619570
         N           -1.283858967267     0.648671210653    -0.018016365532    14.003074004430
         C            2.225714032733    -0.236138789347     0.007441634468    12.000000000000
         C            0.086048032733     0.401844210653    -0.007418365532    12.000000000000
         C            0.871989032733    -0.715906789347     0.001701634468    12.000000000000
         C            2.151730032733     1.126540210653     0.001165634468    12.000000000000
         C            3.467422032733    -1.070263789347     0.018015634468    12.000000000000
         C           -2.243312967267    -0.338697789347    -0.018726365532    12.000000000000
         C           -3.666107967267     0.173262210653     0.038232634468    12.000000000000
         H            0.520588032733    -1.735773789347     0.002747634468     1.007825032230
         H            2.886270032733     1.918257210653     0.002694634468     1.007825032230
         H           -1.557891967267     1.623977210653    -0.012736365532     1.007825032230
         H            3.514794032733    -1.718756789347    -0.862114365532     1.007825032230
         H            4.360384032733    -0.438808789347     0.020621634468     1.007825032230
         H            3.508039032733    -1.770304489347     0.984746234468     1.007825032230
         H           -3.792110967267     1.116419210653    -0.500020365532     1.007825032230
         H           -3.959590967267     0.326633210653     1.081178634468     1.007825032230
         H           -4.319397967267    -0.583686789347    -0.395758365532     1.007825032230

  Basis Set: AUG-CC-PVTZ
    Blend: AUG-CC-PVTZ
  Basis Set: (AUG-CC-PVTZ AUX)
    Blend: AUG-CC-PVTZ-JKFIT
	 Reference Energy          =    -474.6504086058484404 [Eh]
	 Singles Energy            =      -0.0000000000000000 [Eh]
	 Same-Spin Energy          =      -0.4896961606053630 [Eh]
	 Opposite-Spin Energy      =      -1.5245040785908852 [Eh]
	 Correlation Energy        =      -2.0142002391962484 [Eh]
	 Total Energy              =    -476.6646088450447110 [Eh]

	 ================> DF-SCS-MP2 Energies <==================
	-----------------------------------------------------------
	 SCS Same-Spin Scale       =       0.3333333333333333 [-]
	 SCS Opposite-Spin Scale   =       1.2000000000000000 [-]
	 SCS Same-Spin Energy      =      -0.1632320535351210 [Eh]
	 SCS Opposite-Spin Energy  =      -1.8294048943090622 [Eh]
	 SCS Correlation Energy    =      -1.9926369478441832 [Eh]
	 SCS Total Energy          =    -476.6430455536926161 [Eh]
	-----------------------------------------------------------

  Dipole Moment: [D]
     X:    -0.4010      Y:     2.6745      Z:     0.0588     Total:     2.7050

*** Psi4 exiting successfully. Buy a developer a beer!
