                               Psi4 1.4a3.dev225

  ==> Input File <==

--------------------------------------------------------------------------
#psi4
#
memory 32 gb

molecule  {
0 1
  O        0.8291000     1.5489640    -0.0096600
  O       -1.9645320    -1.5272950    -0.0272540
  N       -1.2915850     0.6563530    -0.0190760
  C        2.2179880    -0.2284570     0.0063820
  C        0.0783220     0.4095260    -0.0084780
  C        0.8642630    -0.7082250     0.0006420
  C        2.1440040     1.1342220     0.0001060
  C        3.4596960    -1.0625820     0.0169560
  C       -2.2510390    -0.3310160    -0.0197860
  C       -3.6738340     0.1809440     0.0371730
  H        0.5128620    -1.7280920     0.0016880
  H        2.8785440     1.9259390     0.0016350
  H       -1.5656180     1.6316590    -0.0137960
  H        3.5070680    -1.7110750    -0.8631740
  H        4.3526580    -0.4311270     0.0195620
  H        3.4969120    -1.7040060     0.9027390
  H       -3.7998370     1.1241010    -0.5010800
  H       -3.9673170     0.3343150     1.0801190
  H       -4.3570913    -0.6107273    -0.4167258
units angstrom
no_reorient  #important for SAPT in psi4, default
symmetry c1  #important for SAPT in psi4, default
}

set PROPERTIES_ORIGIN ["COM"]
properties('MP2/aug-cc-pvtz', properties = ['dipole'])
--------------------------------------------------------------------------

    Molecular point group: c1
  Charge       = 0
  Multiplicity = 1
  Basis Set: AUG-CC-PVTZ
    Blend: AUG-CC-PVTZ
  Basis Set: (AUG-CC-PVTZ AUX)
    Blend: AUG-CC-PVTZ-JKFIT

    Orbital Energies [Eh]
    ---------------------

    Doubly Occupied:

       1A    -20.623072     2A    -20.533684     3A    -15.618646
       4A    -11.370482     5A    -11.336771     6A    -11.273490
       7A    -11.255395     8A    -11.236589     9A    -11.226580
      10A    -11.215251    11A     -1.460826    12A     -1.388421
      13A     -1.254710    14A     -1.096891    15A     -1.035048
      16A     -0.985759    17A     -0.943416    18A     -0.839266
      19A     -0.791426    20A     -0.768892    21A     -0.711619
      22A     -0.682675    23A     -0.657090    24A     -0.647413
      25A     -0.619733    26A     -0.599585    27A     -0.581179
      28A     -0.569026    29A     -0.566813    30A     -0.560581
      31A     -0.540045    32A     -0.538795    33A     -0.510094
      34A     -0.453809    35A     -0.438439    36A     -0.381755
      37A     -0.289308

  @DF-RHF Final Energy:  -474.65463034070751

   => Energetics <=

    Nuclear Repulsion Energy =            508.6559543937559624
    One-Electron Energy =               -1655.4160216052639498
    Two-Electron Energy =                 672.1054368708004176
    Total Energy =                       -474.6546303407075129
  Basis Set: (AUG-CC-PVTZ AUX)
    Blend: AUG-CC-PVTZ-RI
    Molecular point group: c1

    Geometry (in Angstrom), charge = 0, multiplicity = 1:

       Center              X                  Y                   Z               Mass
    ------------   -----------------  -----------------  -----------------  -----------------
         O            0.837067860743     1.541109042250    -0.007869442450    15.994914619570
         O           -1.956564139257    -1.535149957750    -0.025463442450    15.994914619570
         N           -1.283617139257     0.648498042250    -0.017285442450    14.003074004430
         C            2.225955860743    -0.236311957750     0.008172557550    12.000000000000
         C            0.086289860743     0.401671042250    -0.006687442450    12.000000000000
         C            0.872230860743    -0.716079957750     0.002432557550    12.000000000000
         C            2.151971860743     1.126367042250     0.001896557550    12.000000000000
         C            3.467663860743    -1.070436957750     0.018746557550    12.000000000000
         C           -2.243071139257    -0.338870957750    -0.017995442450    12.000000000000
         C           -3.665866139257     0.173089042250     0.038963557550    12.000000000000
         H            0.520829860743    -1.735946957750     0.003478557550     1.007825032230
         H            2.886511860743     1.918084042250     0.003425557550     1.007825032230
         H           -1.557650139257     1.623804042250    -0.012005442450     1.007825032230
         H            3.515035860743    -1.718929957750    -0.861383442450     1.007825032230
         H            4.360625860743    -0.438981957750     0.021352557550     1.007825032230
         H            3.504879860743    -1.711860957750     0.904529557550     1.007825032230
         H           -3.791869139257     1.116246042250    -0.499289442450     1.007825032230
         H           -3.959349139257     0.326460042250     1.081909557550     1.007825032230
         H           -4.349123439257    -0.618582257750    -0.414935242450     1.007825032230

  Basis Set: AUG-CC-PVTZ
    Blend: AUG-CC-PVTZ
  Basis Set: (AUG-CC-PVTZ AUX)
    Blend: AUG-CC-PVTZ-JKFIT
	 Reference Energy          =    -474.6546303407075129 [Eh]
	 Singles Energy            =      -0.0000000000000000 [Eh]
	 Same-Spin Energy          =      -0.4897492072372366 [Eh]
	 Opposite-Spin Energy      =      -1.5242100572597306 [Eh]
	 Correlation Energy        =      -2.0139592644969673 [Eh]
	 Total Energy              =    -476.6685896052044882 [Eh]

	 ================> DF-SCS-MP2 Energies <==================
	-----------------------------------------------------------
	 SCS Same-Spin Scale       =       0.3333333333333333 [-]
	 SCS Opposite-Spin Scale   =       1.2000000000000000 [-]
	 SCS Same-Spin Energy      =      -0.1632497357457455 [Eh]
	 SCS Opposite-Spin Energy  =      -1.8290520687116767 [Eh]
	 SCS Correlation Energy    =      -1.9923018044574221 [Eh]
	 SCS Total Energy          =    -476.6469321451649535 [Eh]
	-----------------------------------------------------------

  Dipole Moment: [D]
     X:    -0.3502      Y:     2.6277      Z:     0.0975     Total:     2.6527

*** Psi4 exiting successfully. Buy a developer a beer!
