                               Psi4 1.4a3.dev225

  ==> Input File <==

--------------------------------------------------------------------------
#psi4
#
memory 32 gb

molecule  {
0 1
  O        0.8291000     1.5489640    -0.0096600
  O       -1.9645320    -1.5272950    -0.0272540
  N       -1.2915850     0.6563530    -0.0190760
  C        2.2179880    -0.2284570     0.0063820
  C        0.0783220     0.4095260    -0.0084780
  C        0.8642630    -0.7082250     0.0006420
  C        2.1440040     1.1342220     0.0001060
  C        3.4596960    -1.0625820     0.0169560
  C       -2.2510390    -0.3310160    -0.0197860
  C       -3.6738340     0.1809440     0.0371730
  H        0.5128620    -1.7280920     0.0016880
  H        3.0145718     2.0725553     0.0019182
  H       -1.5656180     1.6316590    -0.0137960
  H        3.5070680    -1.7110750    -0.8631740
  H        4.3526580    -0.4311270     0.0195620
  H        3.4969120    -1.7040060     0.9027390
  H       -3.7998370     1.1241010    -0.5010800
  H       -3.9673170     0.3343150     1.0801190
  H       -4.3271240    -0.5760050    -0.3968180
units angstrom
no_reorient  #important for SAPT in psi4, default
symmetry c1  #important for SAPT in psi4, default
}

set PROPERTIES_ORIGIN ["COM"]
properties('MP2/aug-cc-pvtz', properties = ['dipole'])
--------------------------------------------------------------------------

    Molecular point group: c1
  Charge       = 0
  Multiplicity = 1
  Basis Set: AUG-CC-PVTZ
    Blend: AUG-CC-PVTZ
  Basis Set: (AUG-CC-PVTZ AUX)
    Blend: AUG-CC-PVTZ-JKFIT

    Orbital Energies [Eh]
    ---------------------

    Doubly Occupied:

       1A    -20.625186     2A    -20.534133     3A    -15.618870
       4A    -11.370590     5A    -11.337514     6A    -11.293838
       7A    -11.250193     8A    -11.238110     9A    -11.226421
      10A    -11.216452    11A     -1.462365    12A     -1.388859
      13A     -1.254976    14A     -1.097787    15A     -1.036241
      16A     -0.985541    17A     -0.940445    18A     -0.838679
      19A     -0.783270    20A     -0.767540    21A     -0.712506
      22A     -0.678109    23A     -0.658190    24A     -0.634277
      25A     -0.620961    26A     -0.598711    27A     -0.574031
      28A     -0.568817    29A     -0.567018    30A     -0.554989
      31A     -0.541998    32A     -0.539572    33A     -0.504449
      34A     -0.454372    35A     -0.438697    36A     -0.382848
      37A     -0.289870

  @DF-RHF Final Energy:  -474.63337245700990

   => Energetics <=

    Nuclear Repulsion Energy =            507.8995358178766537
    One-Electron Energy =               -1653.8929682080163275
    Two-Electron Energy =                 671.3600599331299463
    Total Energy =                       -474.6333724570098411
  Basis Set: (AUG-CC-PVTZ AUX)
    Blend: AUG-CC-PVTZ-RI
    Molecular point group: c1

    Geometry (in Angstrom), charge = 0, multiplicity = 1:

       Center              X                  Y                   Z               Mass
    ------------   -----------------  -----------------  -----------------  -----------------
         O            0.835864854755     1.539794838266    -0.008015771431    15.994914619570
         O           -1.957767145245    -1.536464161734    -0.025609771431    15.994914619570
         N           -1.284820145245     0.647183838266    -0.017431771431    14.003074004430
         C            2.224752854755    -0.237626161734     0.008026228569    12.000000000000
         C            0.085086854755     0.400356838266    -0.006833771431    12.000000000000
         C            0.871027854755    -0.717394161734     0.002286228569    12.000000000000
         C            2.150768854755     1.125052838266     0.001750228569    12.000000000000
         C            3.466460854755    -1.071751161734     0.018600228569    12.000000000000
         C           -2.244274145245    -0.340185161734    -0.018141771431    12.000000000000
         C           -3.667069145245     0.171774838266     0.038817228569    12.000000000000
         H            0.519626854755    -1.737261161734     0.003332228569     1.007825032230
         H            3.021336654755     2.063386138266     0.003562428569     1.007825032230
         H           -1.558853145245     1.622489838266    -0.012151771431     1.007825032230
         H            3.513832854755    -1.720244161734    -0.861529771431     1.007825032230
         H            4.359422854755    -0.440296161734     0.021206228569     1.007825032230
         H            3.503676854755    -1.713175161734     0.904383228569     1.007825032230
         H           -3.793072145245     1.114931838266    -0.499435771431     1.007825032230
         H           -3.960552145245     0.325145838266     1.081763228569     1.007825032230
         H           -4.320359145245    -0.585174161734    -0.395173771431     1.007825032230

  Basis Set: AUG-CC-PVTZ
    Blend: AUG-CC-PVTZ
  Basis Set: (AUG-CC-PVTZ AUX)
    Blend: AUG-CC-PVTZ-JKFIT
	 Reference Energy          =    -474.6333724570098980 [Eh]
	 Singles Energy            =      -0.0000000000000000 [Eh]
	 Same-Spin Energy          =      -0.4903220945217037 [Eh]
	 Opposite-Spin Energy      =      -1.5262303023745019 [Eh]
	 Correlation Energy        =      -2.0165523968962056 [Eh]
	 Total Energy              =    -476.6499248539061000 [Eh]

	 ================> DF-SCS-MP2 Energies <==================
	-----------------------------------------------------------
	 SCS Same-Spin Scale       =       0.3333333333333333 [-]
	 SCS Opposite-Spin Scale   =       1.2000000000000000 [-]
	 SCS Same-Spin Energy      =      -0.1634406981739012 [Eh]
	 SCS Opposite-Spin Energy  =      -1.8314763628494022 [Eh]
	 SCS Correlation Energy    =      -1.9949170610233034 [Eh]
	 SCS Total Energy          =    -476.6282895180332275 [Eh]
	-----------------------------------------------------------

  Dipole Moment: [D]
     X:    -0.3854      Y:     2.6350      Z:     0.0949     Total:     2.6647

*** Psi4 exiting successfully. Buy a developer a beer!
