                               Psi4 1.4a3.dev225

  ==> Input File <==

--------------------------------------------------------------------------
#psi4
#
memory 32 gb

molecule  {
0 1
  O        0.8291000     1.5489640    -0.0096600
  O       -1.9645320    -1.5272950    -0.0272540
  N       -1.2915850     0.6563530    -0.0190760
  C        2.2179880    -0.2284570     0.0063820
  C        0.0783220     0.4095260    -0.0084780
  C        0.8728417    -0.7317777     0.0007892
  C        2.1440040     1.1342220     0.0001060
  C        3.4596960    -1.0625820     0.0169560
  C       -2.2510390    -0.3310160    -0.0197860
  C       -3.6738340     0.1809440     0.0371730
  H        0.5128620    -1.7280920     0.0016880
  H        2.8785440     1.9259390     0.0016350
  H       -1.5656180     1.6316590    -0.0137960
  H        3.5070680    -1.7110750    -0.8631740
  H        4.3526580    -0.4311270     0.0195620
  H        3.4969120    -1.7040060     0.9027390
  H       -3.7998370     1.1241010    -0.5010800
  H       -3.9673170     0.3343150     1.0801190
  H       -4.3271240    -0.5760050    -0.3968180
units angstrom
no_reorient  #important for SAPT in psi4, default
symmetry c1  #important for SAPT in psi4, default
}

set PROPERTIES_ORIGIN ["COM"]
properties('MP2/aug-cc-pvtz', properties = ['dipole'])
--------------------------------------------------------------------------

    Molecular point group: c1
  Charge       = 0
  Multiplicity = 1
  Basis Set: AUG-CC-PVTZ
    Blend: AUG-CC-PVTZ
  Basis Set: (AUG-CC-PVTZ AUX)
    Blend: AUG-CC-PVTZ-JKFIT

    Orbital Energies [Eh]
    ---------------------

    Doubly Occupied:

       1A    -20.624834     2A    -20.534365     3A    -15.619281
       4A    -11.370659     5A    -11.340790     6A    -11.272762
       7A    -11.250297     8A    -11.236999     9A    -11.225753
      10A    -11.216720    11A     -1.461057    12A     -1.388972
      13A     -1.255210    14A     -1.095562    15A     -1.036493
      16A     -0.984585    17A     -0.943741    18A     -0.840921
      19A     -0.790872    20A     -0.771842    21A     -0.710198
      22A     -0.682992    23A     -0.656804    24A     -0.649038
      25A     -0.620627    26A     -0.600127    27A     -0.582847
      28A     -0.572132    29A     -0.568479    30A     -0.566408
      31A     -0.541890    32A     -0.537349    33A     -0.509520
      34A     -0.453981    35A     -0.439102    36A     -0.380820
      37A     -0.286658

  @DF-RHF Final Energy:  -474.65476779296262

   => Energetics <=

    Nuclear Repulsion Energy =            508.4375399727176159
    One-Electron Energy =               -1654.9432397208097427
    Two-Electron Energy =                 671.8509319551295675
    Total Energy =                       -474.6547677929626161
  Basis Set: (AUG-CC-PVTZ AUX)
    Blend: AUG-CC-PVTZ-RI
    Molecular point group: c1

    Geometry (in Angstrom), charge = 0, multiplicity = 1:

       Center              X                  Y                   Z               Mass
    ------------   -----------------  -----------------  -----------------  -----------------
         O            0.836110410663     1.542889802135    -0.008026421140    15.994914619570
         O           -1.957521589337    -1.533369197865    -0.025620421140    15.994914619570
         N           -1.284574589337     0.650278802135    -0.017442421140    14.003074004430
         C            2.224998410663    -0.234531197865     0.008015578860    12.000000000000
         C            0.085332410663     0.403451802135    -0.006844421140    12.000000000000
         C            0.879852110663    -0.737851897865     0.002422778860    12.000000000000
         C            2.151014410663     1.128147802135     0.001739578860    12.000000000000
         C            3.466706410663    -1.068656197865     0.018589578860    12.000000000000
         C           -2.244028589337    -0.337090197865    -0.018152421140    12.000000000000
         C           -3.666823589337     0.174869802135     0.038806578860    12.000000000000
         H            0.519872410663    -1.734166197865     0.003321578860     1.007825032230
         H            2.885554410663     1.919864802135     0.003268578860     1.007825032230
         H           -1.558607589337     1.625584802135    -0.012162421140     1.007825032230
         H            3.514078410663    -1.717149197865    -0.861540421140     1.007825032230
         H            4.359668410663    -0.437201197865     0.021195578860     1.007825032230
         H            3.503922410663    -1.710080197865     0.904372578860     1.007825032230
         H           -3.792826589337     1.118026802135    -0.499446421140     1.007825032230
         H           -3.960306589337     0.328240802135     1.081752578860     1.007825032230
         H           -4.320113589337    -0.582079197865    -0.395184421140     1.007825032230

  Basis Set: AUG-CC-PVTZ
    Blend: AUG-CC-PVTZ
  Basis Set: (AUG-CC-PVTZ AUX)
    Blend: AUG-CC-PVTZ-JKFIT
	 Reference Energy          =    -474.6547677929626161 [Eh]
	 Singles Energy            =      -0.0000000000000000 [Eh]
	 Same-Spin Energy          =      -0.4900752503528222 [Eh]
	 Opposite-Spin Energy      =      -1.5244626993461794 [Eh]
	 Correlation Energy        =      -2.0145379496990015 [Eh]
	 Total Energy              =    -476.6693057426616065 [Eh]

	 ================> DF-SCS-MP2 Energies <==================
	-----------------------------------------------------------
	 SCS Same-Spin Scale       =       0.3333333333333333 [-]
	 SCS Opposite-Spin Scale   =       1.2000000000000000 [-]
	 SCS Same-Spin Energy      =      -0.1633584167842741 [Eh]
	 SCS Opposite-Spin Energy  =      -1.8293552392154151 [Eh]
	 SCS Correlation Energy    =      -1.9927136559996892 [Eh]
	 SCS Total Energy          =    -476.6474814489623100 [Eh]
	-----------------------------------------------------------

  Dipole Moment: [D]
     X:    -0.3905      Y:     2.6505      Z:     0.0946     Total:     2.6808

*** Psi4 exiting successfully. Buy a developer a beer!
