                               Psi4 1.4a3.dev225

  ==> Input File <==

--------------------------------------------------------------------------
#psi4
#
memory 32 gb

molecule  {
0 1
  O        0.8291000     1.5489640    -0.0096600
  O       -1.9645320    -1.5272950    -0.0272540
  N       -1.2915850     0.6563530    -0.0190760
  C        2.2179880    -0.2284570     0.0063820
  C        0.0783220     0.4095260    -0.0084780
  C        0.8067455    -0.6264247    -0.0000254
  C        2.1440040     1.1342220     0.0001060
  C        3.4596960    -1.0625820     0.0169560
  C       -2.2510390    -0.3310160    -0.0197860
  C       -3.6738340     0.1809440     0.0371730
  H        0.5128620    -1.7280920     0.0016880
  H        2.8785440     1.9259390     0.0016350
  H       -1.5656180     1.6316590    -0.0137960
  H        3.5070680    -1.7110750    -0.8631740
  H        4.3526580    -0.4311270     0.0195620
  H        3.4969120    -1.7040060     0.9027390
  H       -3.7998370     1.1241010    -0.5010800
  H       -3.9673170     0.3343150     1.0801190
  H       -4.3271240    -0.5760050    -0.3968180
units angstrom
no_reorient  #important for SAPT in psi4, default
symmetry c1  #important for SAPT in psi4, default
}

set PROPERTIES_ORIGIN ["COM"]
properties('MP2/aug-cc-pvtz', properties = ['dipole'])
--------------------------------------------------------------------------

    Molecular point group: c1
  Charge       = 0
  Multiplicity = 1
  Basis Set: AUG-CC-PVTZ
    Blend: AUG-CC-PVTZ
  Basis Set: (AUG-CC-PVTZ AUX)
    Blend: AUG-CC-PVTZ-JKFIT

    Orbital Energies [Eh]
    ---------------------

    Doubly Occupied:

       1A    -20.615184     2A    -20.531103     3A    -15.613746
       4A    -11.368122     5A    -11.319021     6A    -11.276342
       7A    -11.248313     8A    -11.237473     9A    -11.229555
      10A    -11.208681    11A     -1.459615    12A     -1.386173
      13A     -1.251529    14A     -1.099195    15A     -1.040358
      16A     -0.997551    17A     -0.943723    18A     -0.838250
      19A     -0.793907    20A     -0.758825    21A     -0.714719
      22A     -0.680671    23A     -0.658580    24A     -0.645353
      25A     -0.619090    26A     -0.597227    27A     -0.581348
      28A     -0.569998    29A     -0.569238    30A     -0.560917
      31A     -0.539871    32A     -0.536968    33A     -0.502952
      34A     -0.453652    35A     -0.434201    36A     -0.383232
      37A     -0.302017

  @DF-RHF Final Energy:  -474.64644011500968

   => Energetics <=

    Nuclear Repulsion Energy =            510.5119213206454560
    One-Electron Energy =               -1659.1833206470739697
    Two-Electron Energy =                 674.0249592114187180
    Total Energy =                       -474.6464401150096819
  Basis Set: (AUG-CC-PVTZ AUX)
    Blend: AUG-CC-PVTZ-RI
    Molecular point group: c1

    Geometry (in Angstrom), charge = 0, multiplicity = 1:

       Center              X                  Y                   Z               Mass
    ------------   -----------------  -----------------  -----------------  -----------------
         O            0.841813958883     1.533798721019    -0.007956127986    15.994914619570
         O           -1.951818041117    -1.542460278981    -0.025550127986    15.994914619570
         N           -1.278871041117     0.641187721019    -0.017372127986    14.003074004430
         C            2.230701958883    -0.243622278981     0.008085872014    12.000000000000
         C            0.091035958883     0.394360721019    -0.006774127986    12.000000000000
         C            0.819459458883    -0.641589978981     0.001678472014    12.000000000000
         C            2.156717958883     1.119056721019     0.001809872014    12.000000000000
         C            3.472409958883    -1.077747278981     0.018659872014    12.000000000000
         C           -2.238325041117    -0.346181278981    -0.018082127986    12.000000000000
         C           -3.661120041117     0.165778721019     0.038876872014    12.000000000000
         H            0.525575958883    -1.743257278981     0.003391872014     1.007825032230
         H            2.891257958883     1.910773721019     0.003338872014     1.007825032230
         H           -1.552904041117     1.616493721019    -0.012092127986     1.007825032230
         H            3.519781958883    -1.726240278981    -0.861470127986     1.007825032230
         H            4.365371958883    -0.446292278981     0.021265872014     1.007825032230
         H            3.509625958883    -1.719171278981     0.904442872014     1.007825032230
         H           -3.787123041117     1.108935721019    -0.499376127986     1.007825032230
         H           -3.954603041117     0.319149721019     1.081822872014     1.007825032230
         H           -4.314410041117    -0.591170278981    -0.395114127986     1.007825032230

  Basis Set: AUG-CC-PVTZ
    Blend: AUG-CC-PVTZ
  Basis Set: (AUG-CC-PVTZ AUX)
    Blend: AUG-CC-PVTZ-JKFIT
	 Reference Energy          =    -474.6464401150096819 [Eh]
	 Singles Energy            =      -0.0000000000000000 [Eh]
	 Same-Spin Energy          =      -0.4881654885062410 [Eh]
	 Opposite-Spin Energy      =      -1.5216268106223532 [Eh]
	 Correlation Energy        =      -2.0097922991285939 [Eh]
	 Total Energy              =    -476.6562324141382874 [Eh]

	 ================> DF-SCS-MP2 Energies <==================
	-----------------------------------------------------------
	 SCS Same-Spin Scale       =       0.3333333333333333 [-]
	 SCS Opposite-Spin Scale   =       1.2000000000000000 [-]
	 SCS Same-Spin Energy      =      -0.1627218295020803 [Eh]
	 SCS Opposite-Spin Energy  =      -1.8259521727468238 [Eh]
	 SCS Correlation Energy    =      -1.9886740022489040 [Eh]
	 SCS Total Energy          =    -476.6351141172585812 [Eh]
	-----------------------------------------------------------

  Dipole Moment: [D]
     X:    -0.2143      Y:     2.5234      Z:     0.0966     Total:     2.5343

*** Psi4 exiting successfully. Buy a developer a beer!
