                               Psi4 1.4a3.dev225

  ==> Input File <==

--------------------------------------------------------------------------
#psi4
#
memory 32 gb

molecule  {
0 1
  O        0.8291000     1.5489640    -0.0096600
  O       -1.9645320    -1.5272950    -0.0272540
  N       -1.2915850     0.6563530    -0.0190760
  C        2.2179880    -0.2284570     0.0063820
  C        0.0783220     0.4095260    -0.0084780
  C        0.8642630    -0.7082250     0.0006420
  C        2.1440040     1.1342220     0.0001060
  C        3.4596960    -1.0625820     0.0169560
  C       -2.2510390    -0.3310160    -0.0197860
  C       -3.6738340     0.1809440     0.0371730
  H        0.5128620    -1.7280920     0.0016880
  H        2.8785440     1.9259390     0.0016350
  H       -1.5115193     1.4391174    -0.0148384
  H        3.5070680    -1.7110750    -0.8631740
  H        4.3526580    -0.4311270     0.0195620
  H        3.4969120    -1.7040060     0.9027390
  H       -3.7998370     1.1241010    -0.5010800
  H       -3.9673170     0.3343150     1.0801190
  H       -4.3271240    -0.5760050    -0.3968180
units angstrom
no_reorient  #important for SAPT in psi4, default
symmetry c1  #important for SAPT in psi4, default
}

set PROPERTIES_ORIGIN ["COM"]
properties('MP2/aug-cc-pvtz', properties = ['dipole'])
--------------------------------------------------------------------------

    Molecular point group: c1
  Charge       = 0
  Multiplicity = 1
  Basis Set: AUG-CC-PVTZ
    Blend: AUG-CC-PVTZ
  Basis Set: (AUG-CC-PVTZ AUX)
    Blend: AUG-CC-PVTZ-JKFIT

    Orbital Energies [Eh]
    ---------------------

    Doubly Occupied:

       1A    -20.623861     2A    -20.535201     3A    -15.598773
       4A    -11.371549     5A    -11.337075     6A    -11.274275
       7A    -11.251020     8A    -11.237081     9A    -11.227012
      10A    -11.216043    11A     -1.462610    12A     -1.392414
      13A     -1.287069    14A     -1.097765    15A     -1.038385
      16A     -0.993711    17A     -0.945007    18A     -0.862035
      19A     -0.819509    20A     -0.777073    21A     -0.719803
      22A     -0.685320    23A     -0.658713    24A     -0.649333
      25A     -0.621619    26A     -0.604366    27A     -0.582629
      28A     -0.572097    29A     -0.569392    30A     -0.565532
      31A     -0.543782    32A     -0.540110    33A     -0.511090
      34A     -0.456785    35A     -0.440244    36A     -0.382485
      37A     -0.290891

  @DF-RHF Final Energy:  -474.61252223827853

   => Energetics <=

    Nuclear Repulsion Energy =            510.2992418909633443
    One-Electron Energy =               -1658.3402134060274875
    Two-Electron Energy =                 673.4284492767854999
    Total Energy =                       -474.6125222382785296
  Basis Set: (AUG-CC-PVTZ AUX)
    Blend: AUG-CC-PVTZ-RI
    Molecular point group: c1

    Geometry (in Angstrom), charge = 0, multiplicity = 1:

       Center              X                  Y                   Z               Mass
    ------------   -----------------  -----------------  -----------------  -----------------
         O            0.836458614438     1.542252796271    -0.008006164493    15.994914619570
         O           -1.957173385562    -1.534006203729    -0.025600164493    15.994914619570
         N           -1.284226385562     0.649641796271    -0.017422164493    14.003074004430
         C            2.225346614438    -0.235168203729     0.008035835507    12.000000000000
         C            0.085680614438     0.402814796271    -0.006824164493    12.000000000000
         C            0.871621614438    -0.714936203729     0.002295835507    12.000000000000
         C            2.151362614438     1.127510796271     0.001759835507    12.000000000000
         C            3.467054614438    -1.069293203729     0.018609835507    12.000000000000
         C           -2.243680385562    -0.337727203729    -0.018132164493    12.000000000000
         C           -3.666475385562     0.174232796271     0.038826835507    12.000000000000
         H            0.520220614438    -1.734803203729     0.003341835507     1.007825032230
         H            2.885902614438     1.919227796271     0.003288835507     1.007825032230
         H           -1.504160685562     1.432406196271    -0.013184564493     1.007825032230
         H            3.514426614438    -1.717786203729    -0.861520164493     1.007825032230
         H            4.360016614438    -0.437838203729     0.021215835507     1.007825032230
         H            3.504270614438    -1.710717203729     0.904392835507     1.007825032230
         H           -3.792478385562     1.117389796271    -0.499426164493     1.007825032230
         H           -3.959958385562     0.327603796271     1.081772835507     1.007825032230
         H           -4.319765385562    -0.582716203729    -0.395164164493     1.007825032230

  Basis Set: AUG-CC-PVTZ
    Blend: AUG-CC-PVTZ
  Basis Set: (AUG-CC-PVTZ AUX)
    Blend: AUG-CC-PVTZ-JKFIT
	 Reference Energy          =    -474.6125222382785296 [Eh]
	 Singles Energy            =      -0.0000000000000000 [Eh]
	 Same-Spin Energy          =      -0.4882931961292618 [Eh]
	 Opposite-Spin Energy      =      -1.5210410083110639 [Eh]
	 Correlation Energy        =      -2.0093342044403260 [Eh]
	 Total Energy              =    -476.6218564427188653 [Eh]

	 ================> DF-SCS-MP2 Energies <==================
	-----------------------------------------------------------
	 SCS Same-Spin Scale       =       0.3333333333333333 [-]
	 SCS Opposite-Spin Scale   =       1.2000000000000000 [-]
	 SCS Same-Spin Energy      =      -0.1627643987097539 [Eh]
	 SCS Opposite-Spin Energy  =      -1.8252492099732767 [Eh]
	 SCS Correlation Energy    =      -1.9880136086830307 [Eh]
	 SCS Total Energy          =    -476.6005358469615771 [Eh]
	-----------------------------------------------------------

  Dipole Moment: [D]
     X:    -0.3304      Y:     2.4264      Z:     0.0939     Total:     2.4506

*** Psi4 exiting successfully. Buy a developer a beer!
