                               Psi4 1.4a3.dev225

  ==> Input File <==

--------------------------------------------------------------------------
#psi4
#
memory 32 gb

molecule  {
0 1
  O        0.8291000     1.5489640    -0.0096600
  O       -1.9645320    -1.5272950    -0.0272540
  N       -1.2915850     0.6563530    -0.0190760
  C        2.2179880    -0.2284570     0.0063820
  C        0.0783220     0.4095260    -0.0084780
  C        0.9218245    -0.8470995     0.0015497
  C        2.1440040     1.1342220     0.0001060
  C        3.4596960    -1.0625820     0.0169560
  C       -2.2510390    -0.3310160    -0.0197860
  C       -3.6738340     0.1809440     0.0371730
  H        0.5128620    -1.7280920     0.0016880
  H        2.8785440     1.9259390     0.0016350
  H       -1.5656180     1.6316590    -0.0137960
  H        3.5070680    -1.7110750    -0.8631740
  H        4.3526580    -0.4311270     0.0195620
  H        3.4969120    -1.7040060     0.9027390
  H       -3.7998370     1.1241010    -0.5010800
  H       -3.9673170     0.3343150     1.0801190
  H       -4.3271240    -0.5760050    -0.3968180
units angstrom
no_reorient  #important for SAPT in psi4, default
symmetry c1  #important for SAPT in psi4, default
}

set PROPERTIES_ORIGIN ["COM"]
properties('MP2/aug-cc-pvtz', properties = ['dipole'])
--------------------------------------------------------------------------

    Molecular point group: c1
  Charge       = 0
  Multiplicity = 1
  Basis Set: AUG-CC-PVTZ
    Blend: AUG-CC-PVTZ
  Basis Set: (AUG-CC-PVTZ AUX)
    Blend: AUG-CC-PVTZ-JKFIT

    Orbital Energies [Eh]
    ---------------------

    Doubly Occupied:

       1A    -20.633869     2A    -20.537592     3A    -15.624307
       4A    -11.373313     5A    -11.359592     6A    -11.269538
       7A    -11.252327     8A    -11.240600     9A    -11.224227
      10A    -11.222079    11A     -1.463707    12A     -1.391759
      13A     -1.259098    14A     -1.090950    15A     -1.036259
      16A     -0.973334    17A     -0.943080    18A     -0.846882
      19A     -0.788994    20A     -0.786362    21A     -0.704044
      22A     -0.685317    23A     -0.657560    24A     -0.656630
      25A     -0.622277    26A     -0.606054    27A     -0.594698
      28A     -0.573054    29A     -0.568588    30A     -0.567145
      31A     -0.543944    32A     -0.532428    33A     -0.497825
      34A     -0.455379    35A     -0.442595    36A     -0.378168
      37A     -0.274871

  @DF-RHF Final Energy:  -474.61978907282537

   => Energetics <=

    Nuclear Repulsion Energy =            506.3952620331995149
    One-Electron Energy =               -1650.6732061116722434
    Two-Electron Energy =                 669.6581550056473588
    Total Energy =                       -474.6197890728253697
  Basis Set: (AUG-CC-PVTZ AUX)
    Blend: AUG-CC-PVTZ-RI
    Molecular point group: c1

    Geometry (in Angstrom), charge = 0, multiplicity = 1:

       Center              X                  Y                   Z               Mass
    ------------   -----------------  -----------------  -----------------  -----------------
         O            0.831883605464     1.552841107160    -0.008092045918    15.994914619570
         O           -1.961748394536    -1.523417892840    -0.025686045918    15.994914619570
         N           -1.288801394536     0.660230107160    -0.017508045918    14.003074004430
         C            2.220771605464    -0.224579892840     0.007949954082    12.000000000000
         C            0.081105605464     0.413403107160    -0.006910045918    12.000000000000
         C            0.924608105464    -0.843222392840     0.003117654082    12.000000000000
         C            2.146787605464     1.138099107160     0.001673954082    12.000000000000
         C            3.462479605464    -1.058704892840     0.018523954082    12.000000000000
         C           -2.248255394536    -0.327138892840    -0.018218045918    12.000000000000
         C           -3.671050394536     0.184821107160     0.038740954082    12.000000000000
         H            0.515645605464    -1.724214892840     0.003255954082     1.007825032230
         H            2.881327605464     1.929816107160     0.003202954082     1.007825032230
         H           -1.562834394536     1.635536107160    -0.012228045918     1.007825032230
         H            3.509851605464    -1.707197892840    -0.861606045918     1.007825032230
         H            4.355441605464    -0.427249892840     0.021129954082     1.007825032230
         H            3.499695605464    -1.700128892840     0.904306954082     1.007825032230
         H           -3.797053394536     1.127978107160    -0.499512045918     1.007825032230
         H           -3.964533394536     0.338192107160     1.081686954082     1.007825032230
         H           -4.324340394536    -0.572127892840    -0.395250045918     1.007825032230

  Basis Set: AUG-CC-PVTZ
    Blend: AUG-CC-PVTZ
  Basis Set: (AUG-CC-PVTZ AUX)
    Blend: AUG-CC-PVTZ-JKFIT
	 Reference Energy          =    -474.6197890728253697 [Eh]
	 Singles Energy            =      -0.0000000000000000 [Eh]
	 Same-Spin Energy          =      -0.4921137249351214 [Eh]
	 Opposite-Spin Energy      =      -1.5283629566454986 [Eh]
	 Correlation Energy        =      -2.0204766815806199 [Eh]
	 Total Energy              =    -476.6402657544060162 [Eh]

	 ================> DF-SCS-MP2 Energies <==================
	-----------------------------------------------------------
	 SCS Same-Spin Scale       =       0.3333333333333333 [-]
	 SCS Opposite-Spin Scale   =       1.2000000000000000 [-]
	 SCS Same-Spin Energy      =      -0.1640379083117071 [Eh]
	 SCS Opposite-Spin Energy  =      -1.8340355479745982 [Eh]
	 SCS Correlation Energy    =      -1.9980734562863054 [Eh]
	 SCS Total Energy          =    -476.6178625291116759 [Eh]
	-----------------------------------------------------------

  Dipole Moment: [D]
     X:    -0.4760      Y:     2.7642      Z:     0.0930     Total:     2.8064

*** Psi4 exiting successfully. Buy a developer a beer!
