                               Psi4 1.4a3.dev225

  ==> Input File <==

--------------------------------------------------------------------------
#psi4
#
memory 32 gb

molecule  {
0 1
  O        0.8291000     1.5489640    -0.0096600
  O       -1.9645320    -1.5272950    -0.0272540
  N       -1.2915850     0.6563530    -0.0190760
  C        2.2179880    -0.2284570     0.0063820
  C        0.0783220     0.4095260    -0.0084780
  C        0.7492280    -0.5446244    -0.0006929
  C        2.1440040     1.1342220     0.0001060
  C        3.4596960    -1.0625820     0.0169560
  C       -2.2510390    -0.3310160    -0.0197860
  C       -3.6738340     0.1809440     0.0371730
  H        0.5128620    -1.7280920     0.0016880
  H        2.8785440     1.9259390     0.0016350
  H       -1.5656180     1.6316590    -0.0137960
  H        3.5070680    -1.7110750    -0.8631740
  H        4.3526580    -0.4311270     0.0195620
  H        3.4969120    -1.7040060     0.9027390
  H       -3.7998370     1.1241010    -0.5010800
  H       -3.9673170     0.3343150     1.0801190
  H       -4.3271240    -0.5760050    -0.3968180
units angstrom
no_reorient  #important for SAPT in psi4, default
symmetry c1  #important for SAPT in psi4, default
}

set PROPERTIES_ORIGIN ["COM"]
properties('MP2/aug-cc-pvtz', properties = ['dipole'])
--------------------------------------------------------------------------

    Molecular point group: c1
  Charge       = 0
  Multiplicity = 1
  Basis Set: AUG-CC-PVTZ
    Blend: AUG-CC-PVTZ
  Basis Set: (AUG-CC-PVTZ AUX)
    Blend: AUG-CC-PVTZ-JKFIT

    Orbital Energies [Eh]
    ---------------------

    Doubly Occupied:

       1A    -20.607794     2A    -20.528493     3A    -15.609184
       4A    -11.366198     5A    -11.299831     6A    -11.279121
       7A    -11.246785     8A    -11.239547     9A    -11.232545
      10A    -11.201796    11A     -1.459743    12A     -1.383980
      13A     -1.249000    14A     -1.105663    15A     -1.046841
      16A     -1.005046    17A     -0.943629    18A     -0.837805
      19A     -0.796916    20A     -0.749616    21A     -0.714595
      22A     -0.678380    23A     -0.662100    24A     -0.643930
      25A     -0.617982    26A     -0.595345    27A     -0.583600
      28A     -0.571303    29A     -0.567654    30A     -0.563341
      31A     -0.538409    32A     -0.529974    33A     -0.487088
      34A     -0.455246    35A     -0.428412    36A     -0.387397
      37A     -0.314405

  @DF-RHF Final Energy:  -474.59516876600497

   => Energetics <=

    Nuclear Repulsion Energy =            512.3406142007448807
    One-Electron Energy =               -1662.8141776132065388
    Two-Electron Energy =                 675.8783946464567407
    Total Energy =                       -474.5951687660050311
  Basis Set: (AUG-CC-PVTZ AUX)
    Blend: AUG-CC-PVTZ-RI
    Molecular point group: c1

    Geometry (in Angstrom), charge = 0, multiplicity = 1:

       Center              X                  Y                   Z               Mass
    ------------   -----------------  -----------------  -----------------  -----------------
         O            0.846777237177     1.526740040557    -0.007898528329    15.994914619570
         O           -1.946854762823    -1.549518959443    -0.025492528329    15.994914619570
         N           -1.273907762823     0.634129040557    -0.017314528329    14.003074004430
         C            2.235665237177    -0.250680959443     0.008143471671    12.000000000000
         C            0.095999237177     0.387302040557    -0.006716528329    12.000000000000
         C            0.766905237177    -0.566848359443     0.001068571671    12.000000000000
         C            2.161681237177     1.111998040557     0.001867471671    12.000000000000
         C            3.477373237177    -1.084805959443     0.018717471671    12.000000000000
         C           -2.233361762823    -0.353239959443    -0.018024528329    12.000000000000
         C           -3.656156762823     0.158720040557     0.038934471671    12.000000000000
         H            0.530539237177    -1.750315959443     0.003449471671     1.007825032230
         H            2.896221237177     1.903715040557     0.003396471671     1.007825032230
         H           -1.547940762823     1.609435040557    -0.012034528329     1.007825032230
         H            3.524745237177    -1.733298959443    -0.861412528329     1.007825032230
         H            4.370335237177    -0.453350959443     0.021323471671     1.007825032230
         H            3.514589237177    -1.726229959443     0.904500471671     1.007825032230
         H           -3.782159762823     1.101877040557    -0.499318528329     1.007825032230
         H           -3.949639762823     0.312091040557     1.081880471671     1.007825032230
         H           -4.309446762823    -0.598228959443    -0.395056528329     1.007825032230

  Basis Set: AUG-CC-PVTZ
    Blend: AUG-CC-PVTZ
  Basis Set: (AUG-CC-PVTZ AUX)
    Blend: AUG-CC-PVTZ-JKFIT
	 Reference Energy          =    -474.5951687660049743 [Eh]
	 Singles Energy            =      -0.0000000000000000 [Eh]
	 Same-Spin Energy          =      -0.4873050594553298 [Eh]
	 Opposite-Spin Energy      =      -1.5206077475399162 [Eh]
	 Correlation Energy        =      -2.0079128069952459 [Eh]
	 Total Energy              =    -476.6030815730002246 [Eh]

	 ================> DF-SCS-MP2 Energies <==================
	-----------------------------------------------------------
	 SCS Same-Spin Scale       =       0.3333333333333333 [-]
	 SCS Opposite-Spin Scale   =       1.2000000000000000 [-]
	 SCS Same-Spin Energy      =      -0.1624350198184432 [Eh]
	 SCS Opposite-Spin Energy  =      -1.8247292970478994 [Eh]
	 SCS Correlation Energy    =      -1.9871643168663427 [Eh]
	 SCS Total Energy          =    -476.5823330828713438 [Eh]
	-----------------------------------------------------------

  Dipole Moment: [D]
     X:    -0.0200      Y:     2.4097      Z:     0.0984     Total:     2.4118

*** Psi4 exiting successfully. Buy a developer a beer!
