                               Psi4 1.4a3.dev225

  ==> Input File <==

--------------------------------------------------------------------------
#psi4
#
memory 32 gb

molecule  {
0 1
  O        0.8291000     1.5489640    -0.0096600
  O       -1.9645320    -1.5272950    -0.0272540
  N       -1.2915850     0.6563530    -0.0190760
  C        2.2179880    -0.2284570     0.0063820
  C        0.0783220     0.4095260    -0.0084780
  C        0.8642630    -0.7082250     0.0006420
  C        2.1440040     1.1342220     0.0001060
  C        3.4596960    -1.0625820     0.0169560
  C       -2.2510390    -0.3310160    -0.0197860
  C       -3.6738340     0.1809440     0.0371730
  H        0.5128620    -1.7280920     0.0016880
  H        2.8105301     1.8526308     0.0014934
  H       -1.5656180     1.6316590    -0.0137960
  H        3.5070680    -1.7110750    -0.8631740
  H        4.3526580    -0.4311270     0.0195620
  H        3.4969120    -1.7040060     0.9027390
  H       -3.7998370     1.1241010    -0.5010800
  H       -3.9673170     0.3343150     1.0801190
  H       -4.3271240    -0.5760050    -0.3968180
units angstrom
no_reorient  #important for SAPT in psi4, default
symmetry c1  #important for SAPT in psi4, default
}

set PROPERTIES_ORIGIN ["COM"]
properties('MP2/aug-cc-pvtz', properties = ['dipole'])
--------------------------------------------------------------------------

    Molecular point group: c1
  Charge       = 0
  Multiplicity = 1
  Basis Set: AUG-CC-PVTZ
    Blend: AUG-CC-PVTZ
  Basis Set: (AUG-CC-PVTZ AUX)
    Blend: AUG-CC-PVTZ-JKFIT

    Orbital Energies [Eh]
    ---------------------

    Doubly Occupied:

       1A    -20.622102     2A    -20.533684     3A    -15.618223
       4A    -11.370110     5A    -11.336459     6A    -11.261848
       7A    -11.249882     8A    -11.236115     9A    -11.226639
      10A    -11.214676    11A     -1.460122    12A     -1.388368
      13A     -1.254442    14A     -1.096610    15A     -1.037777
      16A     -0.989058    17A     -0.947012    18A     -0.842397
      19A     -0.799160    20A     -0.769414    21A     -0.711323
      22A     -0.687953    23A     -0.656700    24A     -0.655881
      25A     -0.620168    26A     -0.600445    27A     -0.587464
      28A     -0.571944    29A     -0.568866    30A     -0.563896
      31A     -0.541390    32A     -0.538434    33A     -0.511290
      34A     -0.453687    35A     -0.438227    36A     -0.381280
      37A     -0.289190

  @DF-RHF Final Energy:  -474.65064150238589

   => Energetics <=

    Nuclear Repulsion Energy =            509.4505757102216421
    One-Electron Energy =               -1656.9379652201705539
    Two-Electron Energy =                 672.8367480075630738
    Total Energy =                       -474.6506415023859518
  Basis Set: (AUG-CC-PVTZ AUX)
    Blend: AUG-CC-PVTZ-RI
    Molecular point group: c1

    Geometry (in Angstrom), charge = 0, multiplicity = 1:

       Center              X                  Y                   Z               Mass
    ------------   -----------------  -----------------  -----------------  -----------------
         O            0.837343593507     1.541388683449    -0.008012692805    15.994914619570
         O           -1.956288406493    -1.534870316551    -0.025606692805    15.994914619570
         N           -1.283341406493     0.648777683449    -0.017428692805    14.003074004430
         C            2.226231593507    -0.236032316551     0.008029307195    12.000000000000
         C            0.086565593507     0.401950683449    -0.006830692805    12.000000000000
         C            0.872506593507    -0.715800316551     0.002289307195    12.000000000000
         C            2.152247593507     1.126646683449     0.001753307195    12.000000000000
         C            3.467939593507    -1.070157316551     0.018603307195    12.000000000000
         C           -2.242795406493    -0.338591316551    -0.018138692805    12.000000000000
         C           -3.665590406493     0.173368683449     0.038820307195    12.000000000000
         H            0.521105593507    -1.735667316551     0.003335307195     1.007825032230
         H            2.818773693507     1.845055483449     0.003140707195     1.007825032230
         H           -1.557374406493     1.624083683449    -0.012148692805     1.007825032230
         H            3.515311593507    -1.718650316551    -0.861526692805     1.007825032230
         H            4.360901593507    -0.438702316551     0.021209307195     1.007825032230
         H            3.505155593507    -1.711581316551     0.904386307195     1.007825032230
         H           -3.791593406493     1.116525683449    -0.499432692805     1.007825032230
         H           -3.959073406493     0.326739683449     1.081766307195     1.007825032230
         H           -4.318880406493    -0.583580316551    -0.395170692805     1.007825032230

  Basis Set: AUG-CC-PVTZ
    Blend: AUG-CC-PVTZ
  Basis Set: (AUG-CC-PVTZ AUX)
    Blend: AUG-CC-PVTZ-JKFIT
	 Reference Energy          =    -474.6506415023858949 [Eh]
	 Singles Energy            =      -0.0000000000000000 [Eh]
	 Same-Spin Energy          =      -0.4895418436260062 [Eh]
	 Opposite-Spin Energy      =      -1.5232528230743632 [Eh]
	 Correlation Energy        =      -2.0127946667003696 [Eh]
	 Total Energy              =    -476.6634361690862534 [Eh]

	 ================> DF-SCS-MP2 Energies <==================
	-----------------------------------------------------------
	 SCS Same-Spin Scale       =       0.3333333333333333 [-]
	 SCS Opposite-Spin Scale   =       1.2000000000000000 [-]
	 SCS Same-Spin Energy      =      -0.1631806145420021 [Eh]
	 SCS Opposite-Spin Energy  =      -1.8279033876892357 [Eh]
	 SCS Correlation Energy    =      -1.9910840022312377 [Eh]
	 SCS Total Energy          =    -476.6417255046171135 [Eh]
	-----------------------------------------------------------

  Dipole Moment: [D]
     X:    -0.3659      Y:     2.6124      Z:     0.0950     Total:     2.6396

*** Psi4 exiting successfully. Buy a developer a beer!
