                               Psi4 1.4a3.dev225

  ==> Input File <==

--------------------------------------------------------------------------
#psi4
#
memory 32 gb

molecule  {
0 1
  O        0.8291000     1.5489640    -0.0096600
  O       -1.9645320    -1.5272950    -0.0272540
  N       -1.2915850     0.6563530    -0.0190760
  C        2.2179880    -0.2284570     0.0063820
  C        0.0783220     0.4095260    -0.0084780
  C        0.8642630    -0.7082250     0.0006420
  C        2.1440040     1.1342220     0.0001060
  C        3.4596960    -1.0625820     0.0169560
  C       -2.2510390    -0.3310160    -0.0197860
  C       -3.6738340     0.1809440     0.0371730
  H        0.5128620    -1.7280920     0.0016880
  H        2.9465579     1.9992472     0.0017766
  H       -1.5656180     1.6316590    -0.0137960
  H        3.5070680    -1.7110750    -0.8631740
  H        4.3526580    -0.4311270     0.0195620
  H        3.4969120    -1.7040060     0.9027390
  H       -3.7998370     1.1241010    -0.5010800
  H       -3.9673170     0.3343150     1.0801190
  H       -4.3271240    -0.5760050    -0.3968180
units angstrom
no_reorient  #important for SAPT in psi4, default
symmetry c1  #important for SAPT in psi4, default
}

set PROPERTIES_ORIGIN ["COM"]
properties('MP2/aug-cc-pvtz', properties = ['dipole'])
--------------------------------------------------------------------------

    Molecular point group: c1
  Charge       = 0
  Multiplicity = 1
  Basis Set: AUG-CC-PVTZ
    Blend: AUG-CC-PVTZ
  Basis Set: (AUG-CC-PVTZ AUX)
    Blend: AUG-CC-PVTZ-JKFIT

    Orbital Energies [Eh]
    ---------------------

    Doubly Occupied:

       1A    -20.623992     2A    -20.533903     3A    -15.618560
       4A    -11.370349     5A    -11.336979     6A    -11.284133
       7A    -11.250035     8A    -11.237174     9A    -11.226442
      10A    -11.215722    11A     -1.461461    12A     -1.388612
      13A     -1.254684    14A     -1.097200    15A     -1.036396
      16A     -0.986084    17A     -0.941720    18A     -0.839061
      19A     -0.786415    20A     -0.768210    21A     -0.712005
      22A     -0.679610    23A     -0.657549    24A     -0.640263
      25A     -0.620616    26A     -0.598929    27A     -0.575637
      28A     -0.569072    29A     -0.568667    30A     -0.562751
      31A     -0.541720    32A     -0.539116    33A     -0.507995
      34A     -0.454049    35A     -0.438462    36A     -0.382186
      37A     -0.289419

  @DF-RHF Final Energy:  -474.64904309755889

   => Energetics <=

    Nuclear Repulsion Energy =            508.3610315446478580
    One-Electron Energy =               -1654.8297911907520756
    Two-Electron Energy =                 671.8197165485453297
    Total Energy =                       -474.6490430975588879
  Basis Set: (AUG-CC-PVTZ AUX)
    Blend: AUG-CC-PVTZ-RI
    Molecular point group: c1

    Geometry (in Angstrom), charge = 0, multiplicity = 1:

       Center              X                  Y                   Z               Mass
    ------------   -----------------  -----------------  -----------------  -----------------
         O            0.836357767672     1.540326119511    -0.008014745223    15.994914619570
         O           -1.957274232328    -1.535932880489    -0.025608745223    15.994914619570
         N           -1.284327232328     0.647715119511    -0.017430745223    14.003074004430
         C            2.225245767672    -0.237094880489     0.008027254777    12.000000000000
         C            0.085579767672     0.400888119511    -0.006832745223    12.000000000000
         C            0.871520767672    -0.716862880489     0.002287254777    12.000000000000
         C            2.151261767672     1.125584119511     0.001751254777    12.000000000000
         C            3.466953767672    -1.071219880489     0.018601254777    12.000000000000
         C           -2.243781232328    -0.339653880489    -0.018140745223    12.000000000000
         C           -3.666576232328     0.172306119511     0.038818254777    12.000000000000
         H            0.520119767672    -1.736729880489     0.003333254777     1.007825032230
         H            2.953815667672     1.990609319511     0.003421854777     1.007825032230
         H           -1.558360232328     1.623021119511    -0.012150745223     1.007825032230
         H            3.514325767672    -1.719712880489    -0.861528745223     1.007825032230
         H            4.359915767672    -0.439764880489     0.021207254777     1.007825032230
         H            3.504169767672    -1.712643880489     0.904384254777     1.007825032230
         H           -3.792579232328     1.115463119511    -0.499434745223     1.007825032230
         H           -3.960059232328     0.325677119511     1.081764254777     1.007825032230
         H           -4.319866232328    -0.584642880489    -0.395172745223     1.007825032230

  Basis Set: AUG-CC-PVTZ
    Blend: AUG-CC-PVTZ
  Basis Set: (AUG-CC-PVTZ AUX)
    Blend: AUG-CC-PVTZ-JKFIT
	 Reference Energy          =    -474.6490430975588879 [Eh]
	 Singles Energy            =      -0.0000000000000000 [Eh]
	 Same-Spin Energy          =      -0.4900036243699534 [Eh]
	 Opposite-Spin Energy      =      -1.5248841710056111 [Eh]
	 Correlation Energy        =      -2.0148877953755644 [Eh]
	 Total Energy              =    -476.6639308929344452 [Eh]

	 ================> DF-SCS-MP2 Energies <==================
	-----------------------------------------------------------
	 SCS Same-Spin Scale       =       0.3333333333333333 [-]
	 SCS Opposite-Spin Scale   =       1.2000000000000000 [-]
	 SCS Same-Spin Energy      =      -0.1633345414566511 [Eh]
	 SCS Opposite-Spin Energy  =      -1.8298610052067332 [Eh]
	 SCS Correlation Energy    =      -1.9931955466633844 [Eh]
	 SCS Total Energy          =    -476.6422386442222887 [Eh]
	-----------------------------------------------------------

  Dipole Moment: [D]
     X:    -0.3712      Y:     2.6344      Z:     0.0949     Total:     2.6621

*** Psi4 exiting successfully. Buy a developer a beer!
