                               Psi4 1.4a3.dev225

  ==> Input File <==

--------------------------------------------------------------------------
#psi4
#
memory 32 gb

molecule  {
0 1
  O        0.8291000     1.5489640    -0.0096600
  O       -1.9645320    -1.5272950    -0.0272540
  N       -1.2915850     0.6563530    -0.0190760
  C        2.2179880    -0.2284570     0.0063820
  C        0.0783220     0.4095260    -0.0084780
  C        0.8642630    -0.7082250     0.0006420
  C        2.1440040     1.1342220     0.0001060
  C        3.4596960    -1.0625820     0.0169560
  C       -2.2510390    -0.3310160    -0.0197860
  C       -3.6738340     0.1809440     0.0371730
  H        0.5128620    -1.7280920     0.0016880
  H        2.8785440     1.9259390     0.0016350
  H       -1.5656180     1.6316590    -0.0137960
  H        3.5070680    -1.7110750    -0.8631740
  H        4.3526580    -0.4311270     0.0195620
  H        3.4969120    -1.7040060     0.9027390
  H       -3.7998370     1.1241010    -0.5010800
  H       -3.9673170     0.3343150     1.0801190
  H       -4.2072547    -0.4371157    -0.3171869
units angstrom
no_reorient  #important for SAPT in psi4, default
symmetry c1  #important for SAPT in psi4, default
}

set PROPERTIES_ORIGIN ["COM"]
properties('MP2/aug-cc-pvtz', properties = ['dipole'])
--------------------------------------------------------------------------

    Molecular point group: c1
  Charge       = 0
  Multiplicity = 1
  Basis Set: AUG-CC-PVTZ
    Blend: AUG-CC-PVTZ
  Basis Set: (AUG-CC-PVTZ AUX)
    Blend: AUG-CC-PVTZ-JKFIT

    Orbital Energies [Eh]
    ---------------------

    Doubly Occupied:

       1A    -20.622662     2A    -20.534295     3A    -15.617512
       4A    -11.369516     5A    -11.336249     6A    -11.273126
       7A    -11.236292     8A    -11.227225     9A    -11.226371
      10A    -11.214836    11A     -1.460415    12A     -1.388839
      13A     -1.253979    14A     -1.096589    15A     -1.051590
      16A     -0.994168    17A     -0.945763    18A     -0.845227
      19A     -0.793071    20A     -0.769081    21A     -0.712093
      22A     -0.683131    23A     -0.659322    24A     -0.653746
      25A     -0.627345    26A     -0.601573    27A     -0.597546
      28A     -0.579988    29A     -0.568681    30A     -0.564736
      31A     -0.543007    32A     -0.538515    33A     -0.509851
      34A     -0.453998    35A     -0.438102    36A     -0.381440
      37A     -0.288896

  @DF-RHF Final Energy:  -474.62191421091620

   => Energetics <=

    Nuclear Repulsion Energy =            509.8997989805176303
    One-Electron Energy =               -1657.7258717714742033
    Two-Electron Energy =                 673.2041585800402572
    Total Energy =                       -474.6219142109162021
  Basis Set: (AUG-CC-PVTZ AUX)
    Blend: AUG-CC-PVTZ-RI
    Molecular point group: c1

    Geometry (in Angstrom), charge = 0, multiplicity = 1:

       Center              X                  Y                   Z               Mass
    ------------   -----------------  -----------------  -----------------  -----------------
         O            0.835981959249     1.539850837674    -0.008590824544    15.994914619570
         O           -1.957650040751    -1.536408162326    -0.026184824544    15.994914619570
         N           -1.284703040751     0.647239837674    -0.018006824544    14.003074004430
         C            2.224869959249    -0.237570162326     0.007451175456    12.000000000000
         C            0.085203959249     0.400412837674    -0.007408824544    12.000000000000
         C            0.871144959249    -0.717338162326     0.001711175456    12.000000000000
         C            2.150885959249     1.125108837674     0.001175175456    12.000000000000
         C            3.466577959249    -1.071695162326     0.018025175456    12.000000000000
         C           -2.244157040751    -0.340129162326    -0.018716824544    12.000000000000
         C           -3.666952040751     0.171830837674     0.038242175456    12.000000000000
         H            0.519743959249    -1.737205162326     0.002757175456     1.007825032230
         H            2.885425959249     1.916825837674     0.002704175456     1.007825032230
         H           -1.558736040751     1.622545837674    -0.012726824544     1.007825032230
         H            3.513949959249    -1.720188162326    -0.862104824544     1.007825032230
         H            4.359539959249    -0.440240162326     0.020631175456     1.007825032230
         H            3.503793959249    -1.713119162326     0.903808175456     1.007825032230
         H           -3.792955040751     1.114987837674    -0.500010824544     1.007825032230
         H           -3.960435040751     0.325201837674     1.081188175456     1.007825032230
         H           -4.200372740751    -0.446228862326    -0.316117724544     1.007825032230

  Basis Set: AUG-CC-PVTZ
    Blend: AUG-CC-PVTZ
  Basis Set: (AUG-CC-PVTZ AUX)
    Blend: AUG-CC-PVTZ-JKFIT
	 Reference Energy          =    -474.6219142109162021 [Eh]
	 Singles Energy            =      -0.0000000000000000 [Eh]
	 Same-Spin Energy          =      -0.4898259032023020 [Eh]
	 Opposite-Spin Energy      =      -1.5232881253977080 [Eh]
	 Correlation Energy        =      -2.0131140286000102 [Eh]
	 Total Energy              =    -476.6350282395162026 [Eh]

	 ================> DF-SCS-MP2 Energies <==================
	-----------------------------------------------------------
	 SCS Same-Spin Scale       =       0.3333333333333333 [-]
	 SCS Opposite-Spin Scale   =       1.2000000000000000 [-]
	 SCS Same-Spin Energy      =      -0.1632753010674340 [Eh]
	 SCS Opposite-Spin Energy  =      -1.8279457504772494 [Eh]
	 SCS Correlation Energy    =      -1.9912210515446833 [Eh]
	 SCS Total Energy          =    -476.6131352624609008 [Eh]
	-----------------------------------------------------------

  Dipole Moment: [D]
     X:    -0.3940      Y:     2.6347      Z:     0.0940     Total:     2.6657

*** Psi4 exiting successfully. Buy a developer a beer!
