                               Psi4 1.4a3.dev225

  ==> Input File <==

--------------------------------------------------------------------------
#psi4
#
memory 32 gb

molecule  {
0 1
  O        0.8291000     1.5489640    -0.0096600
  O       -1.9645320    -1.5272950    -0.0272540
  N       -1.2915850     0.6563530    -0.0190760
  C        2.2179880    -0.2284570     0.0063820
  C        0.0783220     0.4095260    -0.0084780
  C        0.8930217    -0.7491252     0.0009757
  C        2.1440040     1.1342220     0.0001060
  C        3.4596960    -1.0625820     0.0169560
  C       -2.2510390    -0.3310160    -0.0197860
  C       -3.6738340     0.1809440     0.0371730
  H        0.5128620    -1.7280920     0.0016880
  H        2.8785440     1.9259390     0.0016350
  H       -1.5656180     1.6316590    -0.0137960
  H        3.5070680    -1.7110750    -0.8631740
  H        4.3526580    -0.4311270     0.0195620
  H        3.4969120    -1.7040060     0.9027390
  H       -3.7998370     1.1241010    -0.5010800
  H       -3.9673170     0.3343150     1.0801190
  H       -4.3271240    -0.5760050    -0.3968180
units angstrom
no_reorient  #important for SAPT in psi4, default
symmetry c1  #important for SAPT in psi4, default
}

set PROPERTIES_ORIGIN ["COM"]
properties('MP2/aug-cc-pvtz', properties = ['dipole'])
--------------------------------------------------------------------------

    Molecular point group: c1
  Charge       = 0
  Multiplicity = 1
  Basis Set: AUG-CC-PVTZ
    Blend: AUG-CC-PVTZ
  Basis Set: (AUG-CC-PVTZ AUX)
    Blend: AUG-CC-PVTZ-JKFIT

    Orbital Energies [Eh]
    ---------------------

    Doubly Occupied:

       1A    -20.626817     2A    -20.535115     3A    -15.620638
       4A    -11.371301     5A    -11.344606     6A    -11.271778
       7A    -11.250788     8A    -11.236454     9A    -11.224997
      10A    -11.218159    11A     -1.461582    12A     -1.389634
      13A     -1.256115    14A     -1.096376    15A     -1.036188
      16A     -0.981905    17A     -0.943805    18A     -0.841669
      19A     -0.790966    20A     -0.773734    21A     -0.709540
      22A     -0.683482    23A     -0.656741    24A     -0.650417
      25A     -0.621039    26A     -0.600911    27A     -0.584456
      28A     -0.572142    29A     -0.568287    30A     -0.566222
      31A     -0.542375    32A     -0.536219    33A     -0.509895
      34A     -0.454298    35A     -0.440040    36A     -0.381555
      37A     -0.283122

  @DF-RHF Final Energy:  -474.65096329267021

   => Energetics <=

    Nuclear Repulsion Energy =            508.1093049036136904
    One-Electron Energy =               -1654.2538050427169765
    Two-Electron Energy =                 671.4935368464330168
    Total Energy =                       -474.6509632926702125
  Basis Set: (AUG-CC-PVTZ AUX)
    Blend: AUG-CC-PVTZ-RI
    Molecular point group: c1

    Geometry (in Angstrom), charge = 0, multiplicity = 1:

       Center              X                  Y                   Z               Mass
    ------------   -----------------  -----------------  -----------------  -----------------
         O            0.834369045757     1.544386746025    -0.008042514528    15.994914619570
         O           -1.959262954243    -1.531872253975    -0.025636514528    15.994914619570
         N           -1.286315954243     0.651775746025    -0.017458514528    14.003074004430
         C            2.223257045757    -0.233034253975     0.007999485472    12.000000000000
         C            0.083591045757     0.404948746025    -0.006860514528    12.000000000000
         C            0.898290745757    -0.753702453975     0.002593185472    12.000000000000
         C            2.149273045757     1.129644746025     0.001723485472    12.000000000000
         C            3.464965045757    -1.067159253975     0.018573485472    12.000000000000
         C           -2.245769954243    -0.335593253975    -0.018168514528    12.000000000000
         C           -3.668564954243     0.176366746025     0.038790485472    12.000000000000
         H            0.518131045757    -1.732669253975     0.003305485472     1.007825032230
         H            2.883813045757     1.921361746025     0.003252485472     1.007825032230
         H           -1.560348954243     1.627081746025    -0.012178514528     1.007825032230
         H            3.512337045757    -1.715652253975    -0.861556514528     1.007825032230
         H            4.357927045757    -0.435704253975     0.021179485472     1.007825032230
         H            3.502181045757    -1.708583253975     0.904356485472     1.007825032230
         H           -3.794567954243     1.119523746025    -0.499462514528     1.007825032230
         H           -3.962047954243     0.329737746025     1.081736485472     1.007825032230
         H           -4.321854954243    -0.580582253975    -0.395200514528     1.007825032230

  Basis Set: AUG-CC-PVTZ
    Blend: AUG-CC-PVTZ
  Basis Set: (AUG-CC-PVTZ AUX)
    Blend: AUG-CC-PVTZ-JKFIT
	 Reference Energy          =    -474.6509632926702125 [Eh]
	 Singles Energy            =      -0.0000000000000000 [Eh]
	 Same-Spin Energy          =      -0.4906845996018627 [Eh]
	 Opposite-Spin Energy      =      -1.5253186313603626 [Eh]
	 Correlation Energy        =      -2.0160032309622253 [Eh]
	 Total Energy              =    -476.6669665236324249 [Eh]

	 ================> DF-SCS-MP2 Energies <==================
	-----------------------------------------------------------
	 SCS Same-Spin Scale       =       0.3333333333333333 [-]
	 SCS Opposite-Spin Scale   =       1.2000000000000000 [-]
	 SCS Same-Spin Energy      =      -0.1635615332006209 [Eh]
	 SCS Opposite-Spin Energy  =      -1.8303823576324350 [Eh]
	 SCS Correlation Energy    =      -1.9939438908330558 [Eh]
	 SCS Total Energy          =    -476.6449071835032782 [Eh]
	-----------------------------------------------------------

  Dipole Moment: [D]
     X:    -0.4194      Y:     2.6727      Z:     0.0943     Total:     2.7071

*** Psi4 exiting successfully. Buy a developer a beer!
