                               Psi4 1.4a3.dev225

  ==> Input File <==

--------------------------------------------------------------------------
#psi4
#
memory 32 gb

molecule  {
0 1
  O        0.8291000     1.5489640    -0.0096600
  O       -1.9645320    -1.5272950    -0.0272540
  N       -1.2915850     0.6563530    -0.0190760
  C        2.2481548    -0.3240567     0.0069505
  C        0.0783220     0.4095260    -0.0084780
  C        0.8642630    -0.7082250     0.0006420
  C        2.1440040     1.1342220     0.0001060
  C        3.4596960    -1.0625820     0.0169560
  C       -2.2510390    -0.3310160    -0.0197860
  C       -3.6738340     0.1809440     0.0371730
  H        0.5128620    -1.7280920     0.0016880
  H        2.8785440     1.9259390     0.0016350
  H       -1.5656180     1.6316590    -0.0137960
  H        3.5070680    -1.7110750    -0.8631740
  H        4.3526580    -0.4311270     0.0195620
  H        3.4969120    -1.7040060     0.9027390
  H       -3.7998370     1.1241010    -0.5010800
  H       -3.9673170     0.3343150     1.0801190
  H       -4.3271240    -0.5760050    -0.3968180
units angstrom
no_reorient  #important for SAPT in psi4, default
symmetry c1  #important for SAPT in psi4, default
}

set PROPERTIES_ORIGIN ["COM"]
properties('MP2/aug-cc-pvtz', properties = ['dipole'])
--------------------------------------------------------------------------

    Molecular point group: c1
  Charge       = 0
  Multiplicity = 1
  Basis Set: AUG-CC-PVTZ
    Blend: AUG-CC-PVTZ
  Basis Set: (AUG-CC-PVTZ AUX)
    Blend: AUG-CC-PVTZ-JKFIT

    Orbital Energies [Eh]
    ---------------------

    Doubly Occupied:

       1A    -20.628853     2A    -20.533216     3A    -15.618873
       4A    -11.369821     5A    -11.336650     6A    -11.283159
       7A    -11.249739     8A    -11.247011     9A    -11.224297
      10A    -11.218083    11A     -1.460762    12A     -1.388099
      13A     -1.254521    14A     -1.097638    15A     -1.036789
      16A     -0.993040    17A     -0.943041    18A     -0.832902
      19A     -0.793754    20A     -0.764057    21A     -0.718619
      22A     -0.681815    23A     -0.656438    24A     -0.646500
      25A     -0.619913    26A     -0.600485    27A     -0.585281
      28A     -0.577384    29A     -0.573118    30A     -0.563842
      31A     -0.561150    32A     -0.541387    33A     -0.492825
      34A     -0.453622    35A     -0.437230    36A     -0.374496
      37A     -0.277133

  @DF-RHF Final Energy:  -474.63637833368028

   => Energetics <=

    Nuclear Repulsion Energy =            507.9272674821339137
    One-Electron Energy =               -1653.8562048336173120
    Two-Electron Energy =                 671.2925590178032280
    Total Energy =                       -474.6363783336802271
  Basis Set: (AUG-CC-PVTZ AUX)
    Blend: AUG-CC-PVTZ-RI
    Molecular point group: c1

    Geometry (in Angstrom), charge = 0, multiplicity = 1:

       Center              X                  Y                   Z               Mass
    ------------   -----------------  -----------------  -----------------  -----------------
         O            0.834247538526     1.549106854532    -0.008062775800    15.994914619570
         O           -1.959384461474    -1.527152145468    -0.025656775800    15.994914619570
         N           -1.286437461474     0.656495854532    -0.017478775800    14.003074004430
         C            2.253302338526    -0.323913845468     0.008547724200    12.000000000000
         C            0.083469538526     0.409668854532    -0.006880775800    12.000000000000
         C            0.869410538526    -0.708082145468     0.002239224200    12.000000000000
         C            2.149151538526     1.134364854532     0.001703224200    12.000000000000
         C            3.464843538526    -1.062439145468     0.018553224200    12.000000000000
         C           -2.245891461474    -0.330873145468    -0.018188775800    12.000000000000
         C           -3.668686461474     0.181086854532     0.038770224200    12.000000000000
         H            0.518009538526    -1.727949145468     0.003285224200     1.007825032230
         H            2.883691538526     1.926081854532     0.003232224200     1.007825032230
         H           -1.560470461474     1.631801854532    -0.012198775800     1.007825032230
         H            3.512215538526    -1.710932145468    -0.861576775800     1.007825032230
         H            4.357805538526    -0.430984145468     0.021159224200     1.007825032230
         H            3.502059538526    -1.703863145468     0.904336224200     1.007825032230
         H           -3.794689461474     1.124243854532    -0.499482775800     1.007825032230
         H           -3.962169461474     0.334457854532     1.081716224200     1.007825032230
         H           -4.321976461474    -0.575862145468    -0.395220775800     1.007825032230

  Basis Set: AUG-CC-PVTZ
    Blend: AUG-CC-PVTZ
  Basis Set: (AUG-CC-PVTZ AUX)
    Blend: AUG-CC-PVTZ-JKFIT
	 Reference Energy          =    -474.6363783336802840 [Eh]
	 Singles Energy            =      -0.0000000000000000 [Eh]
	 Same-Spin Energy          =      -0.4925530278947482 [Eh]
	 Opposite-Spin Energy      =      -1.5284708196052108 [Eh]
	 Correlation Energy        =      -2.0210238474999591 [Eh]
	 Total Energy              =    -476.6574021811802595 [Eh]

	 ================> DF-SCS-MP2 Energies <==================
	-----------------------------------------------------------
	 SCS Same-Spin Scale       =       0.3333333333333333 [-]
	 SCS Opposite-Spin Scale   =       1.2000000000000000 [-]
	 SCS Same-Spin Energy      =      -0.1641843426315827 [Eh]
	 SCS Opposite-Spin Energy  =      -1.8341649835262528 [Eh]
	 SCS Correlation Energy    =      -1.9983493261578356 [Eh]
	 SCS Total Energy          =    -476.6347276598381200 [Eh]
	-----------------------------------------------------------

  Dipole Moment: [D]
     X:    -0.2849      Y:     2.5901      Z:     0.0952     Total:     2.6075

*** Psi4 exiting successfully. Buy a developer a beer!
