                               Psi4 1.4a3.dev225

  ==> Input File <==

--------------------------------------------------------------------------
#psi4
#
memory 32 gb

molecule  {
0 1
  O        0.8291000     1.5489640    -0.0096600
  O       -1.9645320    -1.5272950    -0.0272540
  N       -1.2915850     0.6563530    -0.0190760
  C        2.2179880    -0.2284570     0.0063820
  C        0.0783220     0.4095260    -0.0084780
  C        0.8642630    -0.7082250     0.0006420
  C        2.1440040     1.1342220     0.0001060
  C        3.4596960    -1.0625820     0.0169560
  C       -2.2510390    -0.3310160    -0.0197860
  C       -3.6738340     0.1809440     0.0371730
  H        0.5128620    -1.7280920     0.0016880
  H        2.8785440     1.9259390     0.0016350
  H       -1.5656180     1.6316590    -0.0137960
  H        3.5070680    -1.7110750    -0.8631740
  H        4.3526580    -0.4311270     0.0195620
  H        3.4901100    -1.5867725     0.7408438
  H       -3.7998370     1.1241010    -0.5010800
  H       -3.9673170     0.3343150     1.0801190
  H       -4.3271240    -0.5760050    -0.3968180
units angstrom
no_reorient  #important for SAPT in psi4, default
symmetry c1  #important for SAPT in psi4, default
}

set PROPERTIES_ORIGIN ["COM"]
properties('MP2/aug-cc-pvtz', properties = ['dipole'])
--------------------------------------------------------------------------

    Molecular point group: c1
  Charge       = 0
  Multiplicity = 1
  Basis Set: AUG-CC-PVTZ
    Blend: AUG-CC-PVTZ
  Basis Set: (AUG-CC-PVTZ AUX)
    Blend: AUG-CC-PVTZ-JKFIT

    Orbital Energies [Eh]
    ---------------------

    Doubly Occupied:

       1A    -20.622374     2A    -20.533571     3A    -15.618092
       4A    -11.369999     5A    -11.336226     6A    -11.272297
       7A    -11.249790     8A    -11.235191     9A    -11.214893
      10A    -11.202036    11A     -1.460110    12A     -1.388259
      13A     -1.254231    14A     -1.099457    15A     -1.037195
      16A     -0.995034    17A     -0.957126    18A     -0.841642
      19A     -0.792624    20A     -0.768883    21A     -0.715697
      22A     -0.682327    23A     -0.657189    24A     -0.649038
      25A     -0.621354    26A     -0.604443    27A     -0.599133
      28A     -0.577836    29A     -0.570949    30A     -0.563664
      31A     -0.541873    32A     -0.539331    33A     -0.511081
      34A     -0.453588    35A     -0.438134    36A     -0.382997
      37A     -0.288776

  @DF-RHF Final Energy:  -474.62284071672082

   => Energetics <=

    Nuclear Repulsion Energy =            509.8514790917130313
    One-Electron Energy =               -1657.6557664054409997
    Two-Electron Energy =                 673.1814465970070387
    Total Energy =                       -474.6228407167208161
  Basis Set: (AUG-CC-PVTZ AUX)
    Blend: AUG-CC-PVTZ-RI
    Molecular point group: c1

    Geometry (in Angstrom), charge = 0, multiplicity = 1:

       Center              X                  Y                   Z               Mass
    ------------   -----------------  -----------------  -----------------  -----------------
         O            0.836899976302     1.540007782410    -0.006840425976    15.994914619570
         O           -1.956732023698    -1.536251217590    -0.024434425976    15.994914619570
         N           -1.283785023698     0.647396782410    -0.016256425976    14.003074004430
         C            2.225787976302    -0.237413217590     0.009201574024    12.000000000000
         C            0.086121976302     0.400569782410    -0.005658425976    12.000000000000
         C            0.872062976302    -0.717181217590     0.003461574024    12.000000000000
         C            2.151803976302     1.125265782410     0.002925574024    12.000000000000
         C            3.467495976302    -1.071538217590     0.019775574024    12.000000000000
         C           -2.243239023698    -0.339972217590    -0.016966425976    12.000000000000
         C           -3.666034023698     0.171987782410     0.039992574024    12.000000000000
         H            0.520661976302    -1.737048217590     0.004507574024     1.007825032230
         H            2.886343976302     1.916982782410     0.004454574024     1.007825032230
         H           -1.557818023698     1.622702782410    -0.010976425976     1.007825032230
         H            3.514867976302    -1.720031217590    -0.860354425976     1.007825032230
         H            4.360457976302    -0.440083217590     0.022381574024     1.007825032230
         H            3.497909976302    -1.595728717590     0.743663374024     1.007825032230
         H           -3.792037023698     1.115144782410    -0.498260425976     1.007825032230
         H           -3.959517023698     0.325358782410     1.082938574024     1.007825032230
         H           -4.319324023698    -0.584961217590    -0.393998425976     1.007825032230

  Basis Set: AUG-CC-PVTZ
    Blend: AUG-CC-PVTZ
  Basis Set: (AUG-CC-PVTZ AUX)
    Blend: AUG-CC-PVTZ-JKFIT
	 Reference Energy          =    -474.6228407167208161 [Eh]
	 Singles Energy            =      -0.0000000000000000 [Eh]
	 Same-Spin Energy          =      -0.4899241346572392 [Eh]
	 Opposite-Spin Energy      =      -1.5233256696715309 [Eh]
	 Correlation Energy        =      -2.0132498043287699 [Eh]
	 Total Energy              =    -476.6360905210495957 [Eh]

	 ================> DF-SCS-MP2 Energies <==================
	-----------------------------------------------------------
	 SCS Same-Spin Scale       =       0.3333333333333333 [-]
	 SCS Opposite-Spin Scale   =       1.2000000000000000 [-]
	 SCS Same-Spin Energy      =      -0.1633080448857464 [Eh]
	 SCS Opposite-Spin Energy  =      -1.8279908036058370 [Eh]
	 SCS Correlation Energy    =      -1.9912988484915835 [Eh]
	 SCS Total Energy          =    -476.6141395652123833 [Eh]
	-----------------------------------------------------------

  Dipole Moment: [D]
     X:    -0.3216      Y:     2.5741      Z:     0.1311     Total:     2.5974

*** Psi4 exiting successfully. Buy a developer a beer!
