                               Psi4 1.4a3.dev225

  ==> Input File <==

--------------------------------------------------------------------------
#psi4
#
memory 32 gb

molecule  {
0 1
  O        0.8291000     1.5489640    -0.0096600
  O       -1.9645320    -1.5272950    -0.0272540
  N       -1.2915850     0.6563530    -0.0190760
  C        2.2179880    -0.2284570     0.0063820
  C        0.0783220     0.4095260    -0.0084780
  C        0.8757665    -0.7245851     0.0007755
  C        2.1440040     1.1342220     0.0001060
  C        3.4596960    -1.0625820     0.0169560
  C       -2.2510390    -0.3310160    -0.0197860
  C       -3.6738340     0.1809440     0.0371730
  H        0.5128620    -1.7280920     0.0016880
  H        2.8785440     1.9259390     0.0016350
  H       -1.5656180     1.6316590    -0.0137960
  H        3.5070680    -1.7110750    -0.8631740
  H        4.3526580    -0.4311270     0.0195620
  H        3.4969120    -1.7040060     0.9027390
  H       -3.7998370     1.1241010    -0.5010800
  H       -3.9673170     0.3343150     1.0801190
  H       -4.3271240    -0.5760050    -0.3968180
units angstrom
no_reorient  #important for SAPT in psi4, default
symmetry c1  #important for SAPT in psi4, default
}

set PROPERTIES_ORIGIN ["COM"]
properties('MP2/aug-cc-pvtz', properties = ['dipole'])
--------------------------------------------------------------------------

    Molecular point group: c1
  Charge       = 0
  Multiplicity = 1
  Basis Set: AUG-CC-PVTZ
    Blend: AUG-CC-PVTZ
  Basis Set: (AUG-CC-PVTZ AUX)
    Blend: AUG-CC-PVTZ-JKFIT

    Orbital Energies [Eh]
    ---------------------

    Doubly Occupied:

       1A    -20.624508     2A    -20.534295     3A    -15.619263
       4A    -11.370626     5A    -11.339890     6A    -11.272755
       7A    -11.250270     8A    -11.236446     9A    -11.225909
      10A    -11.216355    11A     -1.461037    12A     -1.388918
      13A     -1.255140    14A     -1.096589    15A     -1.036517
      16A     -0.985022    17A     -0.943822    18A     -0.840692
      19A     -0.791312    20A     -0.770836    21A     -0.710795
      22A     -0.682933    23A     -0.656887    24A     -0.648947
      25A     -0.620622    26A     -0.600011    27A     -0.582427
      28A     -0.571751    29A     -0.568577    30A     -0.565007
      31A     -0.541855    32A     -0.537850    33A     -0.510288
      34A     -0.453987    35A     -0.439018    36A     -0.381576
      37A     -0.286720

  @DF-RHF Final Energy:  -474.65523587912003

   => Energetics <=

    Nuclear Repulsion Energy =            508.5642517335658681
    One-Electron Energy =               -1655.2000599088819399
    Two-Electron Energy =                 671.9805722961959873
    Total Energy =                       -474.6552358791200277
  Basis Set: (AUG-CC-PVTZ AUX)
    Blend: AUG-CC-PVTZ-RI
    Molecular point group: c1

    Geometry (in Angstrom), charge = 0, multiplicity = 1:

       Center              X                  Y                   Z               Mass
    ------------   -----------------  -----------------  -----------------  -----------------
         O            0.835858024931     1.542269141024    -0.008025238945    15.994914619570
         O           -1.957773975069    -1.533989858976    -0.025619238945    15.994914619570
         N           -1.284826975069     0.649658141024    -0.017441238945    14.003074004430
         C            2.224746024931    -0.235151858976     0.008016761055    12.000000000000
         C            0.085080024931     0.402831141024    -0.006843238945    12.000000000000
         C            0.882524524931    -0.731279958976     0.002410261055    12.000000000000
         C            2.150762024931     1.127527141024     0.001740761055    12.000000000000
         C            3.466454024931    -1.069276858976     0.018590761055    12.000000000000
         C           -2.244280975069    -0.337710858976    -0.018151238945    12.000000000000
         C           -3.667075975069     0.174249141024     0.038807761055    12.000000000000
         H            0.519620024931    -1.734786858976     0.003322761055     1.007825032230
         H            2.885302024931     1.919244141024     0.003269761055     1.007825032230
         H           -1.558859975069     1.624964141024    -0.012161238945     1.007825032230
         H            3.513826024931    -1.717769858976    -0.861539238945     1.007825032230
         H            4.359416024931    -0.437821858976     0.021196761055     1.007825032230
         H            3.503670024931    -1.710700858976     0.904373761055     1.007825032230
         H           -3.793078975069     1.117406141024    -0.499445238945     1.007825032230
         H           -3.960558975069     0.327620141024     1.081753761055     1.007825032230
         H           -4.320365975069    -0.582699858976    -0.395183238945     1.007825032230

  Basis Set: AUG-CC-PVTZ
    Blend: AUG-CC-PVTZ
  Basis Set: (AUG-CC-PVTZ AUX)
    Blend: AUG-CC-PVTZ-JKFIT
	 Reference Energy          =    -474.6552358791200277 [Eh]
	 Singles Energy            =      -0.0000000000000000 [Eh]
	 Same-Spin Energy          =      -0.4901044203991962 [Eh]
	 Opposite-Spin Energy      =      -1.5244173887856736 [Eh]
	 Correlation Energy        =      -2.0145218091848696 [Eh]
	 Total Energy              =    -476.6697576883049123 [Eh]

	 ================> DF-SCS-MP2 Energies <==================
	-----------------------------------------------------------
	 SCS Same-Spin Scale       =       0.3333333333333333 [-]
	 SCS Opposite-Spin Scale   =       1.2000000000000000 [-]
	 SCS Same-Spin Energy      =      -0.1633681401330654 [Eh]
	 SCS Opposite-Spin Energy  =      -1.8293008665428081 [Eh]
	 SCS Correlation Energy    =      -1.9926690066758734 [Eh]
	 SCS Total Energy          =    -476.6479048857959242 [Eh]
	-----------------------------------------------------------

  Dipole Moment: [D]
     X:    -0.3883      Y:     2.6457      Z:     0.0947     Total:     2.6758

*** Psi4 exiting successfully. Buy a developer a beer!
