                               Psi4 1.4a3.dev225

  ==> Input File <==

--------------------------------------------------------------------------
#psi4
#
memory 32 gb

molecule  {
0 1
  O        0.8291000     1.5489640    -0.0096600
  O       -1.9645320    -1.5272950    -0.0272540
  N       -1.2915850     0.6563530    -0.0190760
  C        2.2179880    -0.2284570     0.0063820
  C        0.0783220     0.4095260    -0.0084780
  C        0.8642630    -0.7082250     0.0006420
  C        2.1440040     1.1342220     0.0001060
  C        3.4596960    -1.0625820     0.0169560
  C       -2.2510390    -0.3310160    -0.0197860
  C       -3.6738340     0.1809440     0.0371730
  H        0.5128620    -1.7280920     0.0016880
  H        2.8785440     1.9259390     0.0016350
  H       -1.5656180     1.6316590    -0.0137960
  H        3.5070680    -1.7110750    -0.8631740
  H        4.3526580    -0.4311270     0.0195620
  H        3.4969120    -1.7040060     0.9027390
  H       -3.7998370     1.1241010    -0.5010800
  H       -3.9673170     0.3343150     1.0801190
  H       -4.2671893    -0.5065604    -0.3570024
units angstrom
no_reorient  #important for SAPT in psi4, default
symmetry c1  #important for SAPT in psi4, default
}

set PROPERTIES_ORIGIN ["COM"]
properties('MP2/aug-cc-pvtz', properties = ['dipole'])
--------------------------------------------------------------------------

    Molecular point group: c1
  Charge       = 0
  Multiplicity = 1
  Basis Set: AUG-CC-PVTZ
    Blend: AUG-CC-PVTZ
  Basis Set: (AUG-CC-PVTZ AUX)
    Blend: AUG-CC-PVTZ-JKFIT

    Orbital Energies [Eh]
    ---------------------

    Doubly Occupied:

       1A    -20.622774     2A    -20.533979     3A    -15.617853
       4A    -11.369750     5A    -11.336398     6A    -11.273223
       7A    -11.238564     8A    -11.236369     9A    -11.226425
      10A    -11.214945    11A     -1.460526    12A     -1.388593
      13A     -1.254182    14A     -1.096660    15A     -1.042404
      16A     -0.990481    17A     -0.944748    18A     -0.842333
      19A     -0.792215    20A     -0.768905    21A     -0.711733
      22A     -0.682619    23A     -0.657265    24A     -0.650461
      25A     -0.622852    26A     -0.599531    27A     -0.588670
      28A     -0.579391    29A     -0.568738    30A     -0.564681
      31A     -0.542571    32A     -0.538593    33A     -0.509913
      34A     -0.453884    35A     -0.438138    36A     -0.381522
      37A     -0.289006

  @DF-RHF Final Energy:  -474.65063778267216

   => Energetics <=

    Nuclear Repulsion Energy =            509.3516569565118743
    One-Electron Energy =               -1656.7428008327988209
    Two-Electron Energy =                 672.7405060936149539
    Total Energy =                       -474.6506377826721064
  Basis Set: (AUG-CC-PVTZ AUX)
    Blend: AUG-CC-PVTZ-RI
    Molecular point group: c1

    Geometry (in Angstrom), charge = 0, multiplicity = 1:

       Center              X                  Y                   Z               Mass
    ------------   -----------------  -----------------  -----------------  -----------------
         O            0.836416319557     1.540354119939    -0.008302272141    15.994914619570
         O           -1.957215680443    -1.535904880061    -0.025896272141    15.994914619570
         N           -1.284268680443     0.647743119939    -0.017718272141    14.003074004430
         C            2.225304319557    -0.237066880061     0.007739727859    12.000000000000
         C            0.085638319557     0.400916119939    -0.007120272141    12.000000000000
         C            0.871579319557    -0.716834880061     0.001999727859    12.000000000000
         C            2.151320319557     1.125612119939     0.001463727859    12.000000000000
         C            3.467012319557    -1.071191880061     0.018313727859    12.000000000000
         C           -2.243722680443    -0.339625880061    -0.018428272141    12.000000000000
         C           -3.666517680443     0.172334119939     0.038530727859    12.000000000000
         H            0.520178319557    -1.736701880061     0.003045727859     1.007825032230
         H            2.885860319557     1.917329119939     0.002992727859     1.007825032230
         H           -1.558301680443     1.623049119939    -0.012438272141     1.007825032230
         H            3.514384319557    -1.719684880061    -0.861816272141     1.007825032230
         H            4.359974319557    -0.439736880061     0.020919727859     1.007825032230
         H            3.504228319557    -1.712615880061     0.904096727859     1.007825032230
         H           -3.792520680443     1.115491119939    -0.499722272141     1.007825032230
         H           -3.960000680443     0.325705119939     1.081476727859     1.007825032230
         H           -4.259872980443    -0.515170280061    -0.355644672141     1.007825032230

  Basis Set: AUG-CC-PVTZ
    Blend: AUG-CC-PVTZ
  Basis Set: (AUG-CC-PVTZ AUX)
    Blend: AUG-CC-PVTZ-JKFIT
	 Reference Energy          =    -474.6506377826721632 [Eh]
	 Singles Energy            =      -0.0000000000000000 [Eh]
	 Same-Spin Energy          =      -0.4897405099550619 [Eh]
	 Opposite-Spin Energy      =      -1.5233754616719133 [Eh]
	 Correlation Energy        =      -2.0131159716269753 [Eh]
	 Total Energy              =    -476.6637537542991367 [Eh]

	 ================> DF-SCS-MP2 Energies <==================
	-----------------------------------------------------------
	 SCS Same-Spin Scale       =       0.3333333333333333 [-]
	 SCS Opposite-Spin Scale   =       1.2000000000000000 [-]
	 SCS Same-Spin Energy      =      -0.1632468366516873 [Eh]
	 SCS Opposite-Spin Energy  =      -1.8280505540062959 [Eh]
	 SCS Correlation Energy    =      -1.9912973906579832 [Eh]
	 SCS Total Energy          =    -476.6419351733301255 [Eh]
	-----------------------------------------------------------

  Dipole Moment: [D]
     X:    -0.3849      Y:     2.6285      Z:     0.0926     Total:     2.6581

*** Psi4 exiting successfully. Buy a developer a beer!
