                               Psi4 1.4a3.dev225

  ==> Input File <==

--------------------------------------------------------------------------
#psi4
#
memory 32 gb

molecule  {
0 1
  O        0.8291000     1.5489640    -0.0096600
  O       -1.9645320    -1.5272950    -0.0272540
  N       -1.2915850     0.6563530    -0.0190760
  C        2.2179880    -0.2284570     0.0063820
  C        0.0783220     0.4095260    -0.0084780
  C        0.8642630    -0.7082250     0.0006420
  C        2.1440040     1.1342220     0.0001060
  C        3.4596960    -1.0625820     0.0169560
  C       -2.2510390    -0.3310160    -0.0197860
  C       -3.6738340     0.1809440     0.0371730
  H        0.5128620    -1.7280920     0.0016880
  H        2.8785440     1.9259390     0.0016350
  H       -1.5656180     1.6316590    -0.0137960
  H        3.5070680    -1.7110750    -0.8631740
  H        4.3526580    -0.4311270     0.0195620
  H        3.4935110    -1.6453893     0.8217914
  H       -3.7998370     1.1241010    -0.5010800
  H       -3.9673170     0.3343150     1.0801190
  H       -4.3271240    -0.5760050    -0.3968180
units angstrom
no_reorient  #important for SAPT in psi4, default
symmetry c1  #important for SAPT in psi4, default
}

set PROPERTIES_ORIGIN ["COM"]
properties('MP2/aug-cc-pvtz', properties = ['dipole'])
--------------------------------------------------------------------------

    Molecular point group: c1
  Charge       = 0
  Multiplicity = 1
  Basis Set: AUG-CC-PVTZ
    Blend: AUG-CC-PVTZ
  Basis Set: (AUG-CC-PVTZ AUX)
    Blend: AUG-CC-PVTZ-JKFIT

    Orbital Energies [Eh]
    ---------------------

    Doubly Occupied:

       1A    -20.622569     2A    -20.533638     3A    -15.618184
       4A    -11.370069     5A    -11.336376     6A    -11.272683
       7A    -11.249842     8A    -11.235727     9A    -11.214954
      10A    -11.214253    11A     -1.460320    12A     -1.388328
      13A     -1.254330    14A     -1.097657    15A     -1.036896
      16A     -0.989777    17A     -0.950107    18A     -0.840752
      19A     -0.791971    20A     -0.768796    21A     -0.713193
      22A     -0.682414    23A     -0.656962    24A     -0.648321
      25A     -0.620519    26A     -0.599359    27A     -0.589385
      28A     -0.577099    29A     -0.571043    30A     -0.563762
      31A     -0.541685    32A     -0.539280    33A     -0.510717
      34A     -0.453672    35A     -0.438195    36A     -0.382344
      37A     -0.288919

  @DF-RHF Final Energy:  -474.65075188681988

   => Energetics <=

    Nuclear Repulsion Energy =            509.3282501677605296
    One-Electron Energy =               -1656.7098071313100718
    Two-Electron Energy =                 672.7308050767295526
    Total Energy =                       -474.6507518868198758
  Basis Set: (AUG-CC-PVTZ AUX)
    Blend: AUG-CC-PVTZ-RI
    Molecular point group: c1

    Geometry (in Angstrom), charge = 0, multiplicity = 1:

       Center              X                  Y                   Z               Mass
    ------------   -----------------  -----------------  -----------------  -----------------
         O            0.836875328446     1.540432592307    -0.007427072495    15.994914619570
         O           -1.956756671554    -1.535826407693    -0.025021072495    15.994914619570
         N           -1.283809671554     0.647821592307    -0.016843072495    14.003074004430
         C            2.225763328446    -0.236988407693     0.008614927505    12.000000000000
         C            0.086097328446     0.400994592307    -0.006245072495    12.000000000000
         C            0.872038328446    -0.716756407693     0.002874927505    12.000000000000
         C            2.151779328446     1.125690592307     0.002338927505    12.000000000000
         C            3.467471328446    -1.071113407693     0.019188927505    12.000000000000
         C           -2.243263671554    -0.339547407693    -0.017553072495    12.000000000000
         C           -3.666058671554     0.172412592307     0.039405927505    12.000000000000
         H            0.520637328446    -1.736623407693     0.003920927505     1.007825032230
         H            2.886319328446     1.917407592307     0.003867927505     1.007825032230
         H           -1.557842671554     1.623127592307    -0.011563072495     1.007825032230
         H            3.514843328446    -1.719606407693    -0.860941072495     1.007825032230
         H            4.360433328446    -0.439658407693     0.021794927505     1.007825032230
         H            3.501286328446    -1.653920707693     0.824024327505     1.007825032230
         H           -3.792061671554     1.115569592307    -0.498847072495     1.007825032230
         H           -3.959541671554     0.325783592307     1.082351927505     1.007825032230
         H           -4.319348671554    -0.584536407693    -0.394585072495     1.007825032230

  Basis Set: AUG-CC-PVTZ
    Blend: AUG-CC-PVTZ
  Basis Set: (AUG-CC-PVTZ AUX)
    Blend: AUG-CC-PVTZ-JKFIT
	 Reference Energy          =    -474.6507518868198758 [Eh]
	 Singles Energy            =      -0.0000000000000000 [Eh]
	 Same-Spin Energy          =      -0.4897988784130393 [Eh]
	 Opposite-Spin Energy      =      -1.5234299757124017 [Eh]
	 Correlation Energy        =      -2.0132288541254408 [Eh]
	 Total Energy              =    -476.6639807409453056 [Eh]

	 ================> DF-SCS-MP2 Energies <==================
	-----------------------------------------------------------
	 SCS Same-Spin Scale       =       0.3333333333333333 [-]
	 SCS Opposite-Spin Scale   =       1.2000000000000000 [-]
	 SCS Same-Spin Energy      =      -0.1632662928043464 [Eh]
	 SCS Opposite-Spin Energy  =      -1.8281159708548820 [Eh]
	 SCS Correlation Energy    =      -1.9913822636592284 [Eh]
	 SCS Total Energy          =    -476.6421341504790803 [Eh]
	-----------------------------------------------------------

  Dipole Moment: [D]
     X:    -0.3384      Y:     2.5936      Z:     0.1190     Total:     2.6183

*** Psi4 exiting successfully. Buy a developer a beer!
