                               Psi4 1.4a3.dev225

  ==> Input File <==

--------------------------------------------------------------------------
#psi4
#
memory 32 gb

molecule  {
0 1
  O        0.8291000     1.5489640    -0.0096600
  O       -1.9645320    -1.5272950    -0.0272540
  N       -1.2915850     0.6563530    -0.0190760
  C        2.2179880    -0.2284570     0.0063820
  C        0.0783220     0.4095260    -0.0084780
  C        0.6757533    -0.7750339    -0.0001573
  C        2.1440040     1.1342220     0.0001060
  C        3.4596960    -1.0625820     0.0169560
  C       -2.2510390    -0.3310160    -0.0197860
  C       -3.6738340     0.1809440     0.0371730
  H        0.5128620    -1.7280920     0.0016880
  H        2.8785440     1.9259390     0.0016350
  H       -1.5656180     1.6316590    -0.0137960
  H        3.5070680    -1.7110750    -0.8631740
  H        4.3526580    -0.4311270     0.0195620
  H        3.4969120    -1.7040060     0.9027390
  H       -3.7998370     1.1241010    -0.5010800
  H       -3.9673170     0.3343150     1.0801190
  H       -4.3271240    -0.5760050    -0.3968180
units angstrom
no_reorient  #important for SAPT in psi4, default
symmetry c1  #important for SAPT in psi4, default
}

set PROPERTIES_ORIGIN ["COM"]
properties('MP2/aug-cc-pvtz', properties = ['dipole'])
--------------------------------------------------------------------------

    Molecular point group: c1
  Charge       = 0
  Multiplicity = 1
  Basis Set: AUG-CC-PVTZ
    Blend: AUG-CC-PVTZ
  Basis Set: (AUG-CC-PVTZ AUX)
    Blend: AUG-CC-PVTZ-JKFIT

    Orbital Energies [Eh]
    ---------------------

    Doubly Occupied:

       1A    -20.621492     2A    -20.531846     3A    -15.611273
       4A    -11.367743     5A    -11.337852     6A    -11.278076
       7A    -11.248094     8A    -11.247983     9A    -11.226879
      10A    -11.218033    11A     -1.459373    12A     -1.386872
      13A     -1.252082    14A     -1.076295    15A     -1.039729
      16A     -0.990850    17A     -0.941975    18A     -0.842225
      19A     -0.788014    20A     -0.778574    21A     -0.710680
      22A     -0.681162    23A     -0.656603    24A     -0.642787
      25A     -0.618702    26A     -0.613254    27A     -0.595817
      28A     -0.578017    29A     -0.568160    30A     -0.567713
      31A     -0.540180    32A     -0.531761    33A     -0.474355
      34A     -0.452987    35A     -0.431773    36A     -0.365657
      37A     -0.306369

  @DF-RHF Final Energy:  -474.62265800776095

   => Energetics <=

    Nuclear Repulsion Energy =            508.0802416020141550
    One-Electron Energy =               -1654.2433268890265481
    Two-Electron Energy =                 671.5404272792513893
    Total Energy =                       -474.6226580077609469
  Basis Set: (AUG-CC-PVTZ AUX)
    Blend: AUG-CC-PVTZ-RI
    Molecular point group: c1

    Geometry (in Angstrom), charge = 0, multiplicity = 1:

       Center              X                  Y                   Z               Mass
    ------------   -----------------  -----------------  -----------------  -----------------
         O            0.853117488121     1.546622449739    -0.007944746121    15.994914619570
         O           -1.940514511879    -1.529636550261    -0.025538746121    15.994914619570
         N           -1.267567511879     0.654011449739    -0.017360746121    14.003074004430
         C            2.242005488121    -0.230798550261     0.008097253879    12.000000000000
         C            0.102339488121     0.407184449739    -0.006762746121    12.000000000000
         C            0.699770788121    -0.777375450261     0.001557953879    12.000000000000
         C            2.168021488121     1.131880449739     0.001821253879    12.000000000000
         C            3.483713488121    -1.064923550261     0.018671253879    12.000000000000
         C           -2.227021511879    -0.333357550261    -0.018070746121    12.000000000000
         C           -3.649816511879     0.178602449739     0.038888253879    12.000000000000
         H            0.536879488121    -1.730433550261     0.003403253879     1.007825032230
         H            2.902561488121     1.923597449739     0.003350253879     1.007825032230
         H           -1.541600511879     1.629317449739    -0.012080746121     1.007825032230
         H            3.531085488121    -1.713416550261    -0.861458746121     1.007825032230
         H            4.376675488121    -0.433468550261     0.021277253879     1.007825032230
         H            3.520929488121    -1.706347550261     0.904454253879     1.007825032230
         H           -3.775819511879     1.121759449739    -0.499364746121     1.007825032230
         H           -3.943299511879     0.331973449739     1.081834253879     1.007825032230
         H           -4.303106511879    -0.578346550261    -0.395102746121     1.007825032230

  Basis Set: AUG-CC-PVTZ
    Blend: AUG-CC-PVTZ
  Basis Set: (AUG-CC-PVTZ AUX)
    Blend: AUG-CC-PVTZ-JKFIT
	 Reference Energy          =    -474.6226580077609469 [Eh]
	 Singles Energy            =      -0.0000000000000000 [Eh]
	 Same-Spin Energy          =      -0.4875576606577405 [Eh]
	 Opposite-Spin Energy      =      -1.5234028269332496 [Eh]
	 Correlation Energy        =      -2.0109604875909901 [Eh]
	 Total Energy              =    -476.6336184953519250 [Eh]

	 ================> DF-SCS-MP2 Energies <==================
	-----------------------------------------------------------
	 SCS Same-Spin Scale       =       0.3333333333333333 [-]
	 SCS Opposite-Spin Scale   =       1.2000000000000000 [-]
	 SCS Same-Spin Energy      =      -0.1625192202192468 [Eh]
	 SCS Opposite-Spin Energy  =      -1.8280833923198994 [Eh]
	 SCS Correlation Energy    =      -1.9906026125391463 [Eh]
	 SCS Total Energy          =    -476.6132606203000819 [Eh]
	-----------------------------------------------------------

  Dipole Moment: [D]
     X:    -0.1904      Y:     2.6019      Z:     0.0949     Total:     2.6106

*** Psi4 exiting successfully. Buy a developer a beer!
