                               Psi4 1.4a3.dev225

  ==> Input File <==

--------------------------------------------------------------------------
#psi4
#
memory 32 gb

molecule  {
0 1
  O        0.8291000     1.5489640    -0.0096600
  O       -1.9645320    -1.5272950    -0.0272540
  N       -1.2915850     0.6563530    -0.0190760
  C        2.2179880    -0.2284570     0.0063820
  C        0.0783220     0.4095260    -0.0084780
  C        0.8642630    -0.7082250     0.0006420
  C        2.1440040     1.1342220     0.0001060
  C        3.4596960    -1.0625820     0.0169560
  C       -2.2510390    -0.3310160    -0.0197860
  C       -3.6738340     0.1809440     0.0371730
  H        0.5128620    -1.7280920     0.0016880
  H        2.8921468     1.9406006     0.0016633
  H       -1.5656180     1.6316590    -0.0137960
  H        3.5070680    -1.7110750    -0.8631740
  H        4.3526580    -0.4311270     0.0195620
  H        3.4969120    -1.7040060     0.9027390
  H       -3.7998370     1.1241010    -0.5010800
  H       -3.9673170     0.3343150     1.0801190
  H       -4.3271240    -0.5760050    -0.3968180
units angstrom
no_reorient  #important for SAPT in psi4, default
symmetry c1  #important for SAPT in psi4, default
}

set PROPERTIES_ORIGIN ["COM"]
properties('MP2/aug-cc-pvtz', properties = ['dipole'])
--------------------------------------------------------------------------

    Molecular point group: c1
  Charge       = 0
  Multiplicity = 1
  Basis Set: AUG-CC-PVTZ
    Blend: AUG-CC-PVTZ
  Basis Set: (AUG-CC-PVTZ AUX)
    Blend: AUG-CC-PVTZ-JKFIT

    Orbital Energies [Eh]
    ---------------------

    Doubly Occupied:

       1A    -20.623149     2A    -20.533778     3A    -15.618380
       4A    -11.370214     5A    -11.336683     6A    -11.275611
       7A    -11.249948     8A    -11.236614     9A    -11.226499
      10A    -11.215237    11A     -1.460846    12A     -1.388475
      13A     -1.254531    14A     -1.096862    15A     -1.036732
      16A     -0.986886    17A     -0.943320    18A     -0.839834
      19A     -0.790392    20A     -0.768738    21A     -0.711681
      22A     -0.681816    23A     -0.657127    24A     -0.646467
      25A     -0.620398    26A     -0.599333    27A     -0.580157
      28A     -0.571148    29A     -0.568768    30A     -0.563916
      31A     -0.541550    32A     -0.538795    33A     -0.509696
      34A     -0.453859    35A     -0.438331    36A     -0.381756
      37A     -0.289217

  @DF-RHF Final Energy:  -474.65614596308535

   => Energetics <=

    Nuclear Repulsion Energy =            508.7666311254110951
    One-Electron Energy =               -1655.6320649212518674
    Two-Electron Energy =                 672.2092878327554217
    Total Energy =                       -474.6561459630853506
  Basis Set: (AUG-CC-PVTZ AUX)
    Blend: AUG-CC-PVTZ-RI
    Molecular point group: c1

    Geometry (in Angstrom), charge = 0, multiplicity = 1:

       Center              X                  Y                   Z               Mass
    ------------   -----------------  -----------------  -----------------  -----------------
         O            0.836752097861     1.540751145376    -0.008013924111    15.994914619570
         O           -1.956879902139    -1.535507854624    -0.025607924111    15.994914619570
         N           -1.283932902139     0.648140145376    -0.017429924111    14.003074004430
         C            2.225640097861    -0.236669854624     0.008028075889    12.000000000000
         C            0.085974097861     0.401313145376    -0.006831924111    12.000000000000
         C            0.871915097861    -0.716437854624     0.002288075889    12.000000000000
         C            2.151656097861     1.126009145376     0.001752075889    12.000000000000
         C            3.467348097861    -1.070794854624     0.018602075889    12.000000000000
         C           -2.243386902139    -0.339228854624    -0.018139924111    12.000000000000
         C           -3.666181902139     0.172731145376     0.038819075889    12.000000000000
         H            0.520514097861    -1.736304854624     0.003334075889     1.007825032230
         H            2.899798897861     1.932387745376     0.003309375889     1.007825032230
         H           -1.557965902139     1.623446145376    -0.012149924111     1.007825032230
         H            3.514720097861    -1.719287854624    -0.861527924111     1.007825032230
         H            4.360310097861    -0.439339854624     0.021208075889     1.007825032230
         H            3.504564097861    -1.712218854624     0.904385075889     1.007825032230
         H           -3.792184902139     1.115888145376    -0.499433924111     1.007825032230
         H           -3.959664902139     0.326102145376     1.081765075889     1.007825032230
         H           -4.319471902139    -0.584217854624    -0.395171924111     1.007825032230

  Basis Set: AUG-CC-PVTZ
    Blend: AUG-CC-PVTZ
  Basis Set: (AUG-CC-PVTZ AUX)
    Blend: AUG-CC-PVTZ-JKFIT
	 Reference Energy          =    -474.6561459630853506 [Eh]
	 Singles Energy            =      -0.0000000000000000 [Eh]
	 Same-Spin Energy          =      -0.4897824089809462 [Eh]
	 Opposite-Spin Energy      =      -1.5240307860670308 [Eh]
	 Correlation Energy        =      -2.0138131950479767 [Eh]
	 Total Energy              =    -476.6699591581333380 [Eh]

	 ================> DF-SCS-MP2 Energies <==================
	-----------------------------------------------------------
	 SCS Same-Spin Scale       =       0.3333333333333333 [-]
	 SCS Opposite-Spin Scale   =       1.2000000000000000 [-]
	 SCS Same-Spin Energy      =      -0.1632608029936487 [Eh]
	 SCS Opposite-Spin Energy  =      -1.8288369432804368 [Eh]
	 SCS Correlation Energy    =      -1.9920977462740854 [Eh]
	 SCS Total Energy          =    -476.6482437093594626 [Eh]
	-----------------------------------------------------------

  Dipole Moment: [D]
     X:    -0.3653      Y:     2.6289      Z:     0.0950     Total:     2.6559

*** Psi4 exiting successfully. Buy a developer a beer!
