                               Psi4 1.4a3.dev225

  ==> Input File <==

--------------------------------------------------------------------------
#psi4
#
memory 32 gb

molecule  {
0 1
  O        0.8291000     1.5489640    -0.0096600
  O       -1.9645320    -1.5272950    -0.0272540
  N       -1.2915850     0.6563530    -0.0190760
  C        2.2179880    -0.2284570     0.0063820
  C        0.0783220     0.4095260    -0.0084780
  C        0.9792980    -0.8718256     0.0019769
  C        2.1440040     1.1342220     0.0001060
  C        3.4596960    -1.0625820     0.0169560
  C       -2.2510390    -0.3310160    -0.0197860
  C       -3.6738340     0.1809440     0.0371730
  H        0.5128620    -1.7280920     0.0016880
  H        2.8785440     1.9259390     0.0016350
  H       -1.5656180     1.6316590    -0.0137960
  H        3.5070680    -1.7110750    -0.8631740
  H        4.3526580    -0.4311270     0.0195620
  H        3.4969120    -1.7040060     0.9027390
  H       -3.7998370     1.1241010    -0.5010800
  H       -3.9673170     0.3343150     1.0801190
  H       -4.3271240    -0.5760050    -0.3968180
units angstrom
no_reorient  #important for SAPT in psi4, default
symmetry c1  #important for SAPT in psi4, default
}

set PROPERTIES_ORIGIN ["COM"]
properties('MP2/aug-cc-pvtz', properties = ['dipole'])
--------------------------------------------------------------------------

    Molecular point group: c1
  Charge       = 0
  Multiplicity = 1
  Basis Set: AUG-CC-PVTZ
    Blend: AUG-CC-PVTZ
  Basis Set: (AUG-CC-PVTZ AUX)
    Blend: AUG-CC-PVTZ-JKFIT

    Orbital Energies [Eh]
    ---------------------

    Doubly Occupied:

       1A    -20.637419     2A    -20.539423     3A    -15.627337
       4A    -11.375036     5A    -11.364569     6A    -11.266171
       7A    -11.253580     8A    -11.238230     9A    -11.226699
      10A    -11.220625    11A     -1.464783    12A     -1.393430
      13A     -1.261240    14A     -1.096102    15A     -1.036679
      16A     -0.969283    17A     -0.942810    18A     -0.848302
      19A     -0.791900    20A     -0.786051    21A     -0.704571
      22A     -0.687273    23A     -0.661860    24A     -0.656885
      25A     -0.623238    26A     -0.607844    27A     -0.595272
      28A     -0.573860    29A     -0.567148    30A     -0.565167
      31A     -0.545085    32A     -0.530997    33A     -0.492369
      34A     -0.456589    35A     -0.444550    36A     -0.382767
      37A     -0.267620

  @DF-RHF Final Energy:  -474.60324684189339

   => Energetics <=

    Nuclear Repulsion Energy =            505.9655454807769956
    One-Electron Energy =               -1649.7320548407165006
    Two-Electron Energy =                 669.1632625180460536
    Total Energy =                       -474.6032468418933377
  Basis Set: (AUG-CC-PVTZ AUX)
    Blend: AUG-CC-PVTZ-RI
    Molecular point group: c1

    Geometry (in Angstrom), charge = 0, multiplicity = 1:

       Center              X                  Y                   Z               Mass
    ------------   -----------------  -----------------  -----------------  -----------------
         O            0.826924124001     1.554974762402    -0.008128909698    15.994914619570
         O           -1.966707875999    -1.521284237598    -0.025722909698    15.994914619570
         N           -1.293760875999     0.662363762402    -0.017544909698    14.003074004430
         C            2.215812124001    -0.222446237598     0.007913090302    12.000000000000
         C            0.076146124001     0.415536762402    -0.006946909698    12.000000000000
         C            0.977122124001    -0.865814837598     0.003507990302    12.000000000000
         C            2.141828124001     1.140232762402     0.001637090302    12.000000000000
         C            3.457520124001    -1.056571237598     0.018487090302    12.000000000000
         C           -2.253214875999    -0.325005237598    -0.018254909698    12.000000000000
         C           -3.676009875999     0.186954762402     0.038704090302    12.000000000000
         H            0.510686124001    -1.722081237598     0.003219090302     1.007825032230
         H            2.876368124001     1.931949762402     0.003166090302     1.007825032230
         H           -1.567793875999     1.637669762402    -0.012264909698     1.007825032230
         H            3.504892124001    -1.705064237598    -0.861642909698     1.007825032230
         H            4.350482124001    -0.425116237598     0.021093090302     1.007825032230
         H            3.494736124001    -1.697995237598     0.904270090302     1.007825032230
         H           -3.802012875999     1.130111762402    -0.499548909698     1.007825032230
         H           -3.969492875999     0.340325762402     1.081650090302     1.007825032230
         H           -4.329299875999    -0.569994237598    -0.395286909698     1.007825032230

  Basis Set: AUG-CC-PVTZ
    Blend: AUG-CC-PVTZ
  Basis Set: (AUG-CC-PVTZ AUX)
    Blend: AUG-CC-PVTZ-JKFIT
	 Reference Energy          =    -474.6032468418933945 [Eh]
	 Singles Energy            =      -0.0000000000000000 [Eh]
	 Same-Spin Energy          =      -0.4936818044921755 [Eh]
	 Opposite-Spin Energy      =      -1.5303969336581216 [Eh]
	 Correlation Energy        =      -2.0240787381502972 [Eh]
	 Total Energy              =    -476.6273255800437028 [Eh]

	 ================> DF-SCS-MP2 Energies <==================
	-----------------------------------------------------------
	 SCS Same-Spin Scale       =       0.3333333333333333 [-]
	 SCS Opposite-Spin Scale   =       1.2000000000000000 [-]
	 SCS Same-Spin Energy      =      -0.1645606014973918 [Eh]
	 SCS Opposite-Spin Energy  =      -1.8364763203897458 [Eh]
	 SCS Correlation Energy    =      -2.0010369218871378 [Eh]
	 SCS Total Energy          =    -476.6042837637805292 [Eh]
	-----------------------------------------------------------

  Dipole Moment: [D]
     X:    -0.4898      Y:     2.7842      Z:     0.0927     Total:     2.8284

*** Psi4 exiting successfully. Buy a developer a beer!
