                               Psi4 1.4a3.dev225

  ==> Input File <==

--------------------------------------------------------------------------
#psi4
#
memory 32 gb

molecule  {
0 1
  O        0.8291000     1.5489640    -0.0096600
  O       -1.9645320    -1.5272950    -0.0272540
  N       -1.2915850     0.6563530    -0.0190760
  C        2.2607178    -0.3725879     0.0072234
  C        0.0783220     0.4095260    -0.0084780
  C        0.8642630    -0.7082250     0.0006420
  C        2.1440040     1.1342220     0.0001060
  C        3.4596960    -1.0625820     0.0169560
  C       -2.2510390    -0.3310160    -0.0197860
  C       -3.6738340     0.1809440     0.0371730
  H        0.5128620    -1.7280920     0.0016880
  H        2.8785440     1.9259390     0.0016350
  H       -1.5656180     1.6316590    -0.0137960
  H        3.5070680    -1.7110750    -0.8631740
  H        4.3526580    -0.4311270     0.0195620
  H        3.4969120    -1.7040060     0.9027390
  H       -3.7998370     1.1241010    -0.5010800
  H       -3.9673170     0.3343150     1.0801190
  H       -4.3271240    -0.5760050    -0.3968180
units angstrom
no_reorient  #important for SAPT in psi4, default
symmetry c1  #important for SAPT in psi4, default
}

set PROPERTIES_ORIGIN ["COM"]
properties('MP2/aug-cc-pvtz', properties = ['dipole'])
--------------------------------------------------------------------------

    Molecular point group: c1
  Charge       = 0
  Multiplicity = 1
  Basis Set: AUG-CC-PVTZ
    Blend: AUG-CC-PVTZ
  Basis Set: (AUG-CC-PVTZ AUX)
    Blend: AUG-CC-PVTZ-JKFIT

    Orbital Energies [Eh]
    ---------------------

    Doubly Occupied:

       1A    -20.631531     2A    -20.532884     3A    -15.619065
       4A    -11.369574     5A    -11.336587     6A    -11.286869
       7A    -11.252124     8A    -11.249598     9A    -11.223459
      10A    -11.219941    11A     -1.460888    12A     -1.387869
      13A     -1.254481    14A     -1.100233    15A     -1.037247
      16A     -0.996648    17A     -0.941760    18A     -0.829643
      19A     -0.794942    20A     -0.761186    21A     -0.721741
      22A     -0.681441    23A     -0.656231    24A     -0.645719
      25A     -0.619767    26A     -0.601923    27A     -0.588020
      28A     -0.582317    29A     -0.578925    30A     -0.568842
      31A     -0.561401    32A     -0.541279    33A     -0.481001
      34A     -0.453512    35A     -0.436341    36A     -0.371828
      37A     -0.270820

  @DF-RHF Final Energy:  -474.61686777041638

   => Energetics <=

    Nuclear Repulsion Energy =            507.5262981186294837
    One-Electron Energy =               -1652.9910544582444345
    Two-Electron Energy =                 670.8478885691986306
    Total Energy =                       -474.6168677704163201
  Basis Set: (AUG-CC-PVTZ AUX)
    Blend: AUG-CC-PVTZ-RI
    Molecular point group: c1

    Geometry (in Angstrom), charge = 0, multiplicity = 1:

       Center              X                  Y                   Z               Mass
    ------------   -----------------  -----------------  -----------------  -----------------
         O            0.833163456895     1.553294690435    -0.008086324783    15.994914619570
         O           -1.960468543105    -1.522964309565    -0.025680324783    15.994914619570
         N           -1.287521543105     0.660683690435    -0.017502324783    14.003074004430
         C            2.264781256895    -0.368257209565     0.008797075217    12.000000000000
         C            0.082385456895     0.413856690435    -0.006904324783    12.000000000000
         C            0.868326456895    -0.703894309565     0.002215675217    12.000000000000
         C            2.148067456895     1.138552690435     0.001679675217    12.000000000000
         C            3.463759456895    -1.058251309565     0.018529675217    12.000000000000
         C           -2.246975543105    -0.326685309565    -0.018212324783    12.000000000000
         C           -3.669770543105     0.185274690435     0.038746675217    12.000000000000
         H            0.516925456895    -1.723761309565     0.003261675217     1.007825032230
         H            2.882607456895     1.930269690435     0.003208675217     1.007825032230
         H           -1.561554543105     1.635989690435    -0.012222324783     1.007825032230
         H            3.511131456895    -1.706744309565    -0.861600324783     1.007825032230
         H            4.356721456895    -0.426796309565     0.021135675217     1.007825032230
         H            3.500975456895    -1.699675309565     0.904312675217     1.007825032230
         H           -3.795773543105     1.128431690435    -0.499506324783     1.007825032230
         H           -3.963253543105     0.338645690435     1.081692675217     1.007825032230
         H           -4.323060543105    -0.571674309565    -0.395244324783     1.007825032230

  Basis Set: AUG-CC-PVTZ
    Blend: AUG-CC-PVTZ
  Basis Set: (AUG-CC-PVTZ AUX)
    Blend: AUG-CC-PVTZ-JKFIT
	 Reference Energy          =    -474.6168677704163770 [Eh]
	 Singles Energy            =      -0.0000000000000000 [Eh]
	 Same-Spin Energy          =      -0.4943033336613276 [Eh]
	 Opposite-Spin Energy      =      -1.5313892589910494 [Eh]
	 Correlation Energy        =      -2.0256925926523772 [Eh]
	 Total Energy              =    -476.6425603630687533 [Eh]

	 ================> DF-SCS-MP2 Energies <==================
	-----------------------------------------------------------
	 SCS Same-Spin Scale       =       0.3333333333333333 [-]
	 SCS Opposite-Spin Scale   =       1.2000000000000000 [-]
	 SCS Same-Spin Energy      =      -0.1647677778871092 [Eh]
	 SCS Opposite-Spin Energy  =      -1.8376671107892593 [Eh]
	 SCS Correlation Energy    =      -2.0024348886763685 [Eh]
	 SCS Total Energy          =    -476.6193026590927388 [Eh]
	-----------------------------------------------------------

  Dipole Moment: [D]
     X:    -0.2345      Y:     2.5644      Z:     0.0954     Total:     2.5768

*** Psi4 exiting successfully. Buy a developer a beer!
