                               Psi4 1.4a3.dev225

  ==> Input File <==

--------------------------------------------------------------------------
#psi4
#
memory 32 gb

molecule  {
0 1
  O        0.8291000     1.5489640    -0.0096600
  O       -1.9645320    -1.5272950    -0.0272540
  N       -1.2915850     0.6563530    -0.0190760
  C        2.2179880    -0.2284570     0.0063820
  C        0.0783220     0.4095260    -0.0084780
  C        0.9113904    -0.6915228     0.0008418
  C        2.1440040     1.1342220     0.0001060
  C        3.4596960    -1.0625820     0.0169560
  C       -2.2510390    -0.3310160    -0.0197860
  C       -3.6738340     0.1809440     0.0371730
  H        0.5128620    -1.7280920     0.0016880
  H        2.8785440     1.9259390     0.0016350
  H       -1.5656180     1.6316590    -0.0137960
  H        3.5070680    -1.7110750    -0.8631740
  H        4.3526580    -0.4311270     0.0195620
  H        3.4969120    -1.7040060     0.9027390
  H       -3.7998370     1.1241010    -0.5010800
  H       -3.9673170     0.3343150     1.0801190
  H       -4.3271240    -0.5760050    -0.3968180
units angstrom
no_reorient  #important for SAPT in psi4, default
symmetry c1  #important for SAPT in psi4, default
}

set PROPERTIES_ORIGIN ["COM"]
properties('MP2/aug-cc-pvtz', properties = ['dipole'])
--------------------------------------------------------------------------

    Molecular point group: c1
  Charge       = 0
  Multiplicity = 1
  Basis Set: AUG-CC-PVTZ
    Blend: AUG-CC-PVTZ
  Basis Set: (AUG-CC-PVTZ AUX)
    Blend: AUG-CC-PVTZ-JKFIT

    Orbital Energies [Eh]
    ---------------------

    Doubly Occupied:

       1A    -20.624182     2A    -20.534450     3A    -15.620320
       4A    -11.370931     5A    -11.337455     6A    -11.272044
       7A    -11.250492     8A    -11.232223     9A    -11.226346
      10A    -11.215281    11A     -1.461546    12A     -1.389118
      13A     -1.255464    14A     -1.104428    15A     -1.036353
      16A     -0.985580    17A     -0.944527    18A     -0.839947
      19A     -0.794589    20A     -0.766102    21A     -0.714880
      22A     -0.682870    23A     -0.657489    24A     -0.649458
      25A     -0.620986    26A     -0.600024    27A     -0.582027
      28A     -0.571072    29A     -0.569105    30A     -0.553113
      31A     -0.542054    32A     -0.539802    33A     -0.514769
      34A     -0.454272    35A     -0.439128    36A     -0.387411
      37A     -0.284099

  @DF-RHF Final Energy:  -474.65184028091306

   => Energetics <=

    Nuclear Repulsion Energy =            509.1397842576156449
    One-Electron Energy =               -1656.3353735170621803
    Two-Electron Energy =                 672.5437489785334719
    Total Energy =                       -474.6518402809130066
  Basis Set: (AUG-CC-PVTZ AUX)
    Blend: AUG-CC-PVTZ-RI
    Molecular point group: c1

    Geometry (in Angstrom), charge = 0, multiplicity = 1:

       Center              X                  Y                   Z               Mass
    ------------   -----------------  -----------------  -----------------  -----------------
         O            0.832783980864     1.539416141573    -0.008030960079    15.994914619570
         O           -1.960848019136    -1.536842858427    -0.025624960079    15.994914619570
         N           -1.287901019136     0.646805141573    -0.017446960079    14.003074004430
         C            2.221671980864    -0.238004858427     0.008011039921    12.000000000000
         C            0.082005980864     0.399978141573    -0.006848960079    12.000000000000
         C            0.915074380864    -0.701070658427     0.002470839921    12.000000000000
         C            2.147687980864     1.124674141573     0.001735039921    12.000000000000
         C            3.463379980864    -1.072129858427     0.018585039921    12.000000000000
         C           -2.247355019136    -0.340563858427    -0.018156960079    12.000000000000
         C           -3.670150019136     0.171396141573     0.038802039921    12.000000000000
         H            0.516545980864    -1.737639858427     0.003317039921     1.007825032230
         H            2.882227980864     1.916391141573     0.003264039921     1.007825032230
         H           -1.561934019136     1.622111141573    -0.012166960079     1.007825032230
         H            3.510751980864    -1.720622858427    -0.861544960079     1.007825032230
         H            4.356341980864    -0.440674858427     0.021191039921     1.007825032230
         H            3.500595980864    -1.713553858427     0.904368039921     1.007825032230
         H           -3.796153019136     1.114553141573    -0.499450960079     1.007825032230
         H           -3.963633019136     0.324767141573     1.081748039921     1.007825032230
         H           -4.323440019136    -0.585552858427    -0.395188960079     1.007825032230

  Basis Set: AUG-CC-PVTZ
    Blend: AUG-CC-PVTZ
  Basis Set: (AUG-CC-PVTZ AUX)
    Blend: AUG-CC-PVTZ-JKFIT
	 Reference Energy          =    -474.6518402809130635 [Eh]
	 Singles Energy            =      -0.0000000000000000 [Eh]
	 Same-Spin Energy          =      -0.4909001149606292 [Eh]
	 Opposite-Spin Energy      =      -1.5250497572668114 [Eh]
	 Correlation Energy        =      -2.0159498722274405 [Eh]
	 Total Energy              =    -476.6677901531405155 [Eh]

	 ================> DF-SCS-MP2 Energies <==================
	-----------------------------------------------------------
	 SCS Same-Spin Scale       =       0.3333333333333333 [-]
	 SCS Opposite-Spin Scale   =       1.2000000000000000 [-]
	 SCS Same-Spin Energy      =      -0.1636333716535431 [Eh]
	 SCS Opposite-Spin Energy  =      -1.8300597087201735 [Eh]
	 SCS Correlation Energy    =      -1.9936930803737165 [Eh]
	 SCS Total Energy          =    -476.6455333612867662 [Eh]
	-----------------------------------------------------------

  Dipole Moment: [D]
     X:    -0.3968      Y:     2.6381      Z:     0.0949     Total:     2.6695

*** Psi4 exiting successfully. Buy a developer a beer!
