                               Psi4 1.4a3.dev225

  ==> Input File <==

--------------------------------------------------------------------------
#psi4
#
memory 32 gb

molecule  {
0 1
  O        0.8291000     1.5489640    -0.0096600
  O       -1.9645320    -1.5272950    -0.0272540
  N       -1.2915850     0.6563530    -0.0190760
  C        2.2179880    -0.2284570     0.0063820
  C        0.0783220     0.4095260    -0.0084780
  C        0.8642630    -0.7082250     0.0006420
  C        2.1440040     1.1342220     0.0001060
  C        3.4596960    -1.0625820     0.0169560
  C       -2.2510390    -0.3310160    -0.0197860
  C       -3.6738340     0.1809440     0.0371730
  H        0.5128620    -1.7280920     0.0016880
  H        2.8785440     1.9259390     0.0016350
  H       -1.5710279     1.6509132    -0.0136918
  H        3.5070680    -1.7110750    -0.8631740
  H        4.3526580    -0.4311270     0.0195620
  H        3.4969120    -1.7040060     0.9027390
  H       -3.7998370     1.1241010    -0.5010800
  H       -3.9673170     0.3343150     1.0801190
  H       -4.3271240    -0.5760050    -0.3968180
units angstrom
no_reorient  #important for SAPT in psi4, default
symmetry c1  #important for SAPT in psi4, default
}

set PROPERTIES_ORIGIN ["COM"]
properties('MP2/aug-cc-pvtz', properties = ['dipole'])
--------------------------------------------------------------------------

    Molecular point group: c1
  Charge       = 0
  Multiplicity = 1
  Basis Set: AUG-CC-PVTZ
    Blend: AUG-CC-PVTZ
  Basis Set: (AUG-CC-PVTZ AUX)
    Blend: AUG-CC-PVTZ-JKFIT

    Orbital Energies [Eh]
    ---------------------

    Doubly Occupied:

       1A    -20.622856     2A    -20.533632     3A    -15.619977
       4A    -11.370073     5A    -11.336595     6A    -11.273289
       7A    -11.249811     8A    -11.236439     9A    -11.226466
      10A    -11.215042    11A     -1.460545    12A     -1.388186
      13A     -1.252176    14A     -1.096701    15A     -1.036690
      16A     -0.986709    17A     -0.943708    18A     -0.839235
      19A     -0.789486    20A     -0.766958    21A     -0.710332
      22A     -0.682156    23A     -0.656869    24A     -0.647991
      25A     -0.620217    26A     -0.598865    27A     -0.581396
      28A     -0.571309    29A     -0.568717    30A     -0.563777
      31A     -0.541310    32A     -0.538551    33A     -0.509894
      34A     -0.453559    35A     -0.438111    36A     -0.381576
      37A     -0.289025

  @DF-RHF Final Energy:  -474.65569926930129

   => Energetics <=

    Nuclear Repulsion Energy =            508.7516888903256813
    One-Electron Energy =               -1655.6183157821776604
    Two-Electron Energy =                 672.2109276225505710
    Total Energy =                       -474.6556992693012944
  Basis Set: (AUG-CC-PVTZ AUX)
    Blend: AUG-CC-PVTZ-RI
    Molecular point group: c1

    Geometry (in Angstrom), charge = 0, multiplicity = 1:

       Center              X                  Y                   Z               Mass
    ------------   -----------------  -----------------  -----------------  -----------------
         O            0.836889887422     1.540717861711    -0.008014474176    15.994914619570
         O           -1.956742112578    -1.535541138289    -0.025608474176    15.994914619570
         N           -1.283795112578     0.648106861711    -0.017430474176    14.003074004430
         C            2.225777887422    -0.236703138289     0.008027525824    12.000000000000
         C            0.086111887422     0.401279861711    -0.006832474176    12.000000000000
         C            0.872052887422    -0.716471138289     0.002287525824    12.000000000000
         C            2.151793887422     1.125975861711     0.001751525824    12.000000000000
         C            3.467485887422    -1.070828138289     0.018601525824    12.000000000000
         C           -2.243249112578    -0.339262138289    -0.018140474176    12.000000000000
         C           -3.666044112578     0.172697861711     0.038818525824    12.000000000000
         H            0.520651887422    -1.736338138289     0.003333525824     1.007825032230
         H            2.886333887422     1.917692861711     0.003280525824     1.007825032230
         H           -1.563238012578     1.642667061711    -0.012046274176     1.007825032230
         H            3.514857887422    -1.719321138289    -0.861528474176     1.007825032230
         H            4.360447887422    -0.439373138289     0.021207525824     1.007825032230
         H            3.504701887422    -1.712252138289     0.904384525824     1.007825032230
         H           -3.792047112578     1.115854861711    -0.499434474176     1.007825032230
         H           -3.959527112578     0.326068861711     1.081764525824     1.007825032230
         H           -4.319334112578    -0.584251138289    -0.395172474176     1.007825032230

  Basis Set: AUG-CC-PVTZ
    Blend: AUG-CC-PVTZ
  Basis Set: (AUG-CC-PVTZ AUX)
    Blend: AUG-CC-PVTZ-JKFIT
	 Reference Energy          =    -474.6556992693012944 [Eh]
	 Singles Energy            =      -0.0000000000000000 [Eh]
	 Same-Spin Energy          =      -0.4899038743874362 [Eh]
	 Opposite-Spin Energy      =      -1.5242463891127500 [Eh]
	 Correlation Energy        =      -2.0141502635001860 [Eh]
	 Total Energy              =    -476.6698495328014928 [Eh]

	 ================> DF-SCS-MP2 Energies <==================
	-----------------------------------------------------------
	 SCS Same-Spin Scale       =       0.3333333333333333 [-]
	 SCS Opposite-Spin Scale   =       1.2000000000000000 [-]
	 SCS Same-Spin Energy      =      -0.1633012914624787 [Eh]
	 SCS Opposite-Spin Energy  =      -1.8290956669353000 [Eh]
	 SCS Correlation Energy    =      -1.9923969583977788 [Eh]
	 SCS Total Energy          =    -476.6480962276990567 [Eh]
	-----------------------------------------------------------

  Dipole Moment: [D]
     X:    -0.3683      Y:     2.6473      Z:     0.0951     Total:     2.6745

*** Psi4 exiting successfully. Buy a developer a beer!
