                               Psi4 1.4a3.dev225

  ==> Input File <==

--------------------------------------------------------------------------
#psi4
#
memory 32 gb

molecule  {
0 1
  O        0.8291000     1.5489640    -0.0096600
  O       -1.9645320    -1.5272950    -0.0272540
  N       -1.2915850     0.6563530    -0.0190760
  C        2.1703867    -0.2302103     0.0060726
  C        0.0783220     0.4095260    -0.0084780
  C        0.8642630    -0.7082250     0.0006420
  C        2.1440040     1.1342220     0.0001060
  C        3.4596960    -1.0625820     0.0169560
  C       -2.2510390    -0.3310160    -0.0197860
  C       -3.6738340     0.1809440     0.0371730
  H        0.5128620    -1.7280920     0.0016880
  H        2.8785440     1.9259390     0.0016350
  H       -1.5656180     1.6316590    -0.0137960
  H        3.5070680    -1.7110750    -0.8631740
  H        4.3526580    -0.4311270     0.0195620
  H        3.4969120    -1.7040060     0.9027390
  H       -3.7998370     1.1241010    -0.5010800
  H       -3.9673170     0.3343150     1.0801190
  H       -4.3271240    -0.5760050    -0.3968180
units angstrom
no_reorient  #important for SAPT in psi4, default
symmetry c1  #important for SAPT in psi4, default
}

set PROPERTIES_ORIGIN ["COM"]
properties('MP2/aug-cc-pvtz', properties = ['dipole'])
--------------------------------------------------------------------------

    Molecular point group: c1
  Charge       = 0
  Multiplicity = 1
  Basis Set: AUG-CC-PVTZ
    Blend: AUG-CC-PVTZ
  Basis Set: (AUG-CC-PVTZ AUX)
    Blend: AUG-CC-PVTZ-JKFIT

    Orbital Energies [Eh]
    ---------------------

    Doubly Occupied:

       1A    -20.623154     2A    -20.534159     3A    -15.618756
       4A    -11.370608     5A    -11.337468     6A    -11.270775
       7A    -11.250224     8A    -11.234151     9A    -11.227317
      10A    -11.212489    11A     -1.461639    12A     -1.388925
      13A     -1.254954    14A     -1.101549    15A     -1.036738
      16A     -0.985930    17A     -0.940104    18A     -0.839674
      19A     -0.794854    20A     -0.770183    21A     -0.712614
      22A     -0.683057    23A     -0.657693    24A     -0.648088
      25A     -0.620632    26A     -0.599679    27A     -0.581465
      28A     -0.571586    29A     -0.566362    30A     -0.565150
      31A     -0.541683    32A     -0.526220    33A     -0.517165
      34A     -0.454114    35A     -0.438992    36A     -0.388506
      37A     -0.286393

  @DF-RHF Final Energy:  -474.65347176904334

   => Energetics <=

    Nuclear Repulsion Energy =            509.4741793540543426
    One-Electron Energy =               -1657.0292034153778786
    Two-Electron Energy =                 672.9015522922802575
    Total Energy =                       -474.6534717690433354
  Basis Set: (AUG-CC-PVTZ AUX)
    Blend: AUG-CC-PVTZ-RI
    Molecular point group: c1

    Geometry (in Angstrom), charge = 0, multiplicity = 1:

       Center              X                  Y                   Z               Mass
    ------------   -----------------  -----------------  -----------------  -----------------
         O            0.840958273914     1.541008696579    -0.007987020386    15.994914619570
         O           -1.952673726086    -1.535250303421    -0.025581020386    15.994914619570
         N           -1.279726726086     0.648397696579    -0.017403020386    14.003074004430
         C            2.182244973914    -0.238165603421     0.007745579614    12.000000000000
         C            0.090180273914     0.401570696579    -0.006805020386    12.000000000000
         C            0.876121273914    -0.716180303421     0.002314979614    12.000000000000
         C            2.155862273914     1.126266696579     0.001778979614    12.000000000000
         C            3.471554273914    -1.070537303421     0.018628979614    12.000000000000
         C           -2.239180726086    -0.338971303421    -0.018113020386    12.000000000000
         C           -3.661975726086     0.172988696579     0.038845979614    12.000000000000
         H            0.524720273914    -1.736047303421     0.003360979614     1.007825032230
         H            2.890402273914     1.917983696579     0.003307979614     1.007825032230
         H           -1.553759726086     1.623703696579    -0.012123020386     1.007825032230
         H            3.518926273914    -1.719030303421    -0.861501020386     1.007825032230
         H            4.364516273914    -0.439082303421     0.021234979614     1.007825032230
         H            3.508770273914    -1.711961303421     0.904411979614     1.007825032230
         H           -3.787978726086     1.116145696579    -0.499407020386     1.007825032230
         H           -3.955458726086     0.326359696579     1.081791979614     1.007825032230
         H           -4.315265726086    -0.583960303421    -0.395145020386     1.007825032230

  Basis Set: AUG-CC-PVTZ
    Blend: AUG-CC-PVTZ
  Basis Set: (AUG-CC-PVTZ AUX)
    Blend: AUG-CC-PVTZ-JKFIT
	 Reference Energy          =    -474.6534717690433354 [Eh]
	 Singles Energy            =      -0.0000000000000000 [Eh]
	 Same-Spin Energy          =      -0.4902493398635310 [Eh]
	 Opposite-Spin Energy      =      -1.5242471499262558 [Eh]
	 Correlation Energy        =      -2.0144964897897868 [Eh]
	 Total Energy              =    -476.6679682588331275 [Eh]

	 ================> DF-SCS-MP2 Energies <==================
	-----------------------------------------------------------
	 SCS Same-Spin Scale       =       0.3333333333333333 [-]
	 SCS Opposite-Spin Scale   =       1.2000000000000000 [-]
	 SCS Same-Spin Energy      =      -0.1634164466211770 [Eh]
	 SCS Opposite-Spin Energy  =      -1.8290965799115069 [Eh]
	 SCS Correlation Energy    =      -1.9925130265326838 [Eh]
	 SCS Total Energy          =    -476.6459847955759983 [Eh]
	-----------------------------------------------------------

  Dipole Moment: [D]
     X:    -0.4154      Y:     2.6530      Z:     0.0947     Total:     2.6870

*** Psi4 exiting successfully. Buy a developer a beer!
