                               Psi4 1.4a3.dev225

  ==> Input File <==

--------------------------------------------------------------------------
#psi4
#
memory 32 gb

molecule  {
0 1
  O        0.8291000     1.5489640    -0.0096600
  O       -1.9645320    -1.5272950    -0.0272540
  N       -1.2915850     0.6563530    -0.0190760
  C        2.1941950    -0.2295413     0.0062282
  C        0.0783220     0.4095260    -0.0084780
  C        0.8642630    -0.7082250     0.0006420
  C        2.1440040     1.1342220     0.0001060
  C        3.4596960    -1.0625820     0.0169560
  C       -2.2510390    -0.3310160    -0.0197860
  C       -3.6738340     0.1809440     0.0371730
  H        0.5128620    -1.7280920     0.0016880
  H        2.8785440     1.9259390     0.0016350
  H       -1.5656180     1.6316590    -0.0137960
  H        3.5070680    -1.7110750    -0.8631740
  H        4.3526580    -0.4311270     0.0195620
  H        3.4969120    -1.7040060     0.9027390
  H       -3.7998370     1.1241010    -0.5010800
  H       -3.9673170     0.3343150     1.0801190
  H       -4.3271240    -0.5760050    -0.3968180
units angstrom
no_reorient  #important for SAPT in psi4, default
symmetry c1  #important for SAPT in psi4, default
}

set PROPERTIES_ORIGIN ["COM"]
properties('MP2/aug-cc-pvtz', properties = ['dipole'])
--------------------------------------------------------------------------

    Molecular point group: c1
  Charge       = 0
  Multiplicity = 1
  Basis Set: AUG-CC-PVTZ
    Blend: AUG-CC-PVTZ
  Basis Set: (AUG-CC-PVTZ AUX)
    Blend: AUG-CC-PVTZ-JKFIT

    Orbital Energies [Eh]
    ---------------------

    Doubly Occupied:

       1A    -20.623044     2A    -20.533947     3A    -15.618539
       4A    -11.370389     5A    -11.337021     6A    -11.272078
       7A    -11.250071     8A    -11.235327     9A    -11.226939
      10A    -11.213845    11A     -1.461145    12A     -1.388677
      13A     -1.254718    14A     -1.098915    15A     -1.036799
      16A     -0.986576    17A     -0.941981    18A     -0.839873
      19A     -0.793211    20A     -0.769498    21A     -0.712117
      22A     -0.682811    23A     -0.657340    24A     -0.648102
      25A     -0.620477    26A     -0.599556    27A     -0.581337
      28A     -0.571454    29A     -0.566950    30A     -0.565007
      31A     -0.541591    32A     -0.532200    33A     -0.514428
      34A     -0.453958    35A     -0.438652    36A     -0.385006
      37A     -0.287800

  @DF-RHF Final Energy:  -474.65588401961941

   => Energetics <=

    Nuclear Repulsion Energy =            509.1681354376557920
    One-Electron Energy =               -1656.4252833138066308
    Two-Electron Energy =                 672.6012638565314319
    Total Energy =                       -474.6558840196194069
  Basis Set: (AUG-CC-PVTZ AUX)
    Blend: AUG-CC-PVTZ-RI
    Molecular point group: c1

    Geometry (in Angstrom), charge = 0, multiplicity = 1:

       Center              X                  Y                   Z               Mass
    ------------   -----------------  -----------------  -----------------  -----------------
         O            0.838903817121     1.540950967484    -0.008000447362    15.994914619570
         O           -1.954728182879    -1.535308032516    -0.025594447362    15.994914619570
         N           -1.281781182879     0.648339967484    -0.017416447362    14.003074004430
         C            2.203998817121    -0.237554332516     0.007887752638    12.000000000000
         C            0.088125817121     0.401512967484    -0.006818447362    12.000000000000
         C            0.874066817121    -0.716238032516     0.002301552638    12.000000000000
         C            2.153807817121     1.126208967484     0.001765552638    12.000000000000
         C            3.469499817121    -1.070595032516     0.018615552638    12.000000000000
         C           -2.241235182879    -0.339029032516    -0.018126447362    12.000000000000
         C           -3.664030182879     0.172930967484     0.038832552638    12.000000000000
         H            0.522665817121    -1.736105032516     0.003347552638     1.007825032230
         H            2.888347817121     1.917925967484     0.003294552638     1.007825032230
         H           -1.555814182879     1.623645967484    -0.012136447362     1.007825032230
         H            3.516871817121    -1.719088032516    -0.861514447362     1.007825032230
         H            4.362461817121    -0.439140032516     0.021221552638     1.007825032230
         H            3.506715817121    -1.712019032516     0.904398552638     1.007825032230
         H           -3.790033182879     1.116087967484    -0.499420447362     1.007825032230
         H           -3.957513182879     0.326301967484     1.081778552638     1.007825032230
         H           -4.317320182879    -0.584018032516    -0.395158447362     1.007825032230

  Basis Set: AUG-CC-PVTZ
    Blend: AUG-CC-PVTZ
  Basis Set: (AUG-CC-PVTZ AUX)
    Blend: AUG-CC-PVTZ-JKFIT
	 Reference Energy          =    -474.6558840196194069 [Eh]
	 Singles Energy            =      -0.0000000000000000 [Eh]
	 Same-Spin Energy          =      -0.4899673931994382 [Eh]
	 Opposite-Spin Energy      =      -1.5240061071750695 [Eh]
	 Correlation Energy        =      -2.0139735003745076 [Eh]
	 Total Energy              =    -476.6698575199939114 [Eh]

	 ================> DF-SCS-MP2 Energies <==================
	-----------------------------------------------------------
	 SCS Same-Spin Scale       =       0.3333333333333333 [-]
	 SCS Opposite-Spin Scale   =       1.2000000000000000 [-]
	 SCS Same-Spin Energy      =      -0.1633224643998127 [Eh]
	 SCS Opposite-Spin Energy  =      -1.8288073286100832 [Eh]
	 SCS Correlation Energy    =      -1.9921297930098960 [Eh]
	 SCS Total Energy          =    -476.6480138126293014 [Eh]
	-----------------------------------------------------------

  Dipole Moment: [D]
     X:    -0.3897      Y:     2.6402      Z:     0.0948     Total:     2.6705

*** Psi4 exiting successfully. Buy a developer a beer!
