                               Psi4 1.4a3.dev225

  ==> Input File <==

--------------------------------------------------------------------------
#psi4
#
memory 32 gb

molecule  {
0 1
  O        0.8291000     1.5489640    -0.0096600
  O       -1.9645320    -1.5272950    -0.0272540
  N       -1.2915850     0.6563530    -0.0190760
  C        2.1227532    -0.2303012     0.0057559
  C        0.0783220     0.4095260    -0.0084780
  C        0.8642630    -0.7082250     0.0006420
  C        2.1440040     1.1342220     0.0001060
  C        3.4596960    -1.0625820     0.0169560
  C       -2.2510390    -0.3310160    -0.0197860
  C       -3.6738340     0.1809440     0.0371730
  H        0.5128620    -1.7280920     0.0016880
  H        2.8785440     1.9259390     0.0016350
  H       -1.5656180     1.6316590    -0.0137960
  H        3.5070680    -1.7110750    -0.8631740
  H        4.3526580    -0.4311270     0.0195620
  H        3.4969120    -1.7040060     0.9027390
  H       -3.7998370     1.1241010    -0.5010800
  H       -3.9673170     0.3343150     1.0801190
  H       -4.3271240    -0.5760050    -0.3968180
units angstrom
no_reorient  #important for SAPT in psi4, default
symmetry c1  #important for SAPT in psi4, default
}

set PROPERTIES_ORIGIN ["COM"]
properties('MP2/aug-cc-pvtz', properties = ['dipole'])
--------------------------------------------------------------------------

    Molecular point group: c1
  Charge       = 0
  Multiplicity = 1
  Basis Set: AUG-CC-PVTZ
    Blend: AUG-CC-PVTZ
  Basis Set: (AUG-CC-PVTZ AUX)
    Blend: AUG-CC-PVTZ-JKFIT

    Orbital Energies [Eh]
    ---------------------

    Doubly Occupied:

       1A    -20.623436     2A    -20.534651     3A    -15.619279
       4A    -11.371113     5A    -11.338550     6A    -11.268177
       7A    -11.250577     8A    -11.231802     9A    -11.227888
      10A    -11.209622    11A     -1.462819    12A     -1.389493
      13A     -1.255509    14A     -1.108286    15A     -1.036638
      16A     -0.984491    17A     -0.936252    18A     -0.839452
      19A     -0.798278    20A     -0.771706    21A     -0.713564
      22A     -0.683576    23A     -0.658570    24A     -0.648074
      25A     -0.621036    26A     -0.600035    27A     -0.583389
      28A     -0.571960    29A     -0.569057    30A     -0.561652
      31A     -0.541905    32A     -0.526703    33A     -0.507190
      34A     -0.454496    35A     -0.439678    36A     -0.395986
      37A     -0.283555

  @DF-RHF Final Energy:  -474.64397728720729

   => Energetics <=

    Nuclear Repulsion Energy =            510.1229982628161110
    One-Electron Energy =               -1658.2970667885547300
    Two-Electron Energy =                 673.5300912385314405
    Total Energy =                       -474.6439772872072353
  Basis Set: (AUG-CC-PVTZ AUX)
    Blend: AUG-CC-PVTZ-RI
    Molecular point group: c1

    Geometry (in Angstrom), charge = 0, multiplicity = 1:

       Center              X                  Y                   Z               Mass
    ------------   -----------------  -----------------  -----------------  -----------------
         O            0.845068645829     1.541016540487    -0.007959691830    15.994914619570
         O           -1.948563354171    -1.535242459513    -0.025553691830    15.994914619570
         N           -1.275616354171     0.648405540487    -0.017375691830    14.003074004430
         C            2.138721845829    -0.238248659513     0.007456208170    12.000000000000
         C            0.094290645829     0.401578540487    -0.006777691830    12.000000000000
         C            0.880231645829    -0.716172459513     0.002342308170    12.000000000000
         C            2.159972645829     1.126274540487     0.001806308170    12.000000000000
         C            3.475664645829    -1.070529459513     0.018656308170    12.000000000000
         C           -2.235070354171    -0.338963459513    -0.018085691830    12.000000000000
         C           -3.657865354171     0.172996540487     0.038873308170    12.000000000000
         H            0.528830645829    -1.736039459513     0.003388308170     1.007825032230
         H            2.894512645829     1.917991540487     0.003335308170     1.007825032230
         H           -1.549649354171     1.623711540487    -0.012095691830     1.007825032230
         H            3.523036645829    -1.719022459513    -0.861473691830     1.007825032230
         H            4.368626645829    -0.439074459513     0.021262308170     1.007825032230
         H            3.512880645829    -1.711953459513     0.904439308170     1.007825032230
         H           -3.783868354171     1.116153540487    -0.499379691830     1.007825032230
         H           -3.951348354171     0.326367540487     1.081819308170     1.007825032230
         H           -4.311155354171    -0.583952459513    -0.395117691830     1.007825032230

  Basis Set: AUG-CC-PVTZ
    Blend: AUG-CC-PVTZ
  Basis Set: (AUG-CC-PVTZ AUX)
    Blend: AUG-CC-PVTZ-JKFIT
	 Reference Energy          =    -474.6439772872072922 [Eh]
	 Singles Energy            =      -0.0000000000000000 [Eh]
	 Same-Spin Energy          =      -0.4909525260623656 [Eh]
	 Opposite-Spin Energy      =      -1.5249982038357195 [Eh]
	 Correlation Energy        =      -2.0159507298980852 [Eh]
	 Total Energy              =    -476.6599280171053579 [Eh]

	 ================> DF-SCS-MP2 Energies <==================
	-----------------------------------------------------------
	 SCS Same-Spin Scale       =       0.3333333333333333 [-]
	 SCS Opposite-Spin Scale   =       1.2000000000000000 [-]
	 SCS Same-Spin Energy      =      -0.1636508420207885 [Eh]
	 SCS Opposite-Spin Energy  =      -1.8299978446028633 [Eh]
	 SCS Correlation Energy    =      -1.9936486866236518 [Eh]
	 SCS Total Energy          =    -476.6376259738309500 [Eh]
	-----------------------------------------------------------

  Dipole Moment: [D]
     X:    -0.4696      Y:     2.6776      Z:     0.0944     Total:     2.7201

*** Psi4 exiting successfully. Buy a developer a beer!
