                               Psi4 1.4a3.dev225

  ==> Input File <==

--------------------------------------------------------------------------
#psi4
#
memory 32 gb

molecule  {
0 1
  O        0.8291000     1.5489640    -0.0096600
  O       -1.9645320    -1.5272950    -0.0272540
  N       -1.2915850     0.6563530    -0.0190760
  C        2.2179880    -0.2284570     0.0063820
  C        0.0783220     0.4095260    -0.0084780
  C        0.8642630    -0.7082250     0.0006420
  C        2.1440040     1.1342220     0.0001060
  C        3.4596960    -1.0625820     0.0169560
  C       -2.2510390    -0.3310160    -0.0197860
  C       -3.6738340     0.1809440     0.0371730
  H        0.5128620    -1.7280920     0.0016880
  H        2.8785440     1.9259390     0.0016350
  H       -1.5926673     1.7279298    -0.0132748
  H        3.5070680    -1.7110750    -0.8631740
  H        4.3526580    -0.4311270     0.0195620
  H        3.4969120    -1.7040060     0.9027390
  H       -3.7998370     1.1241010    -0.5010800
  H       -3.9673170     0.3343150     1.0801190
  H       -4.3271240    -0.5760050    -0.3968180
units angstrom
no_reorient  #important for SAPT in psi4, default
symmetry c1  #important for SAPT in psi4, default
}

set PROPERTIES_ORIGIN ["COM"]
properties('MP2/aug-cc-pvtz', properties = ['dipole'])
--------------------------------------------------------------------------

    Molecular point group: c1
  Charge       = 0
  Multiplicity = 1
  Basis Set: AUG-CC-PVTZ
    Blend: AUG-CC-PVTZ
  Basis Set: (AUG-CC-PVTZ AUX)
    Blend: AUG-CC-PVTZ-JKFIT

    Orbital Energies [Eh]
    ---------------------

    Doubly Occupied:

       1A    -20.622445     2A    -20.533187     3A    -15.625813
       4A    -11.369642     5A    -11.336481     6A    -11.272898
       7A    -11.249310     8A    -11.236183     9A    -11.226255
      10A    -11.214701    11A     -1.459917    12A     -1.387274
      13A     -1.244155    14A     -1.096318    15A     -1.036024
      16A     -0.985173    17A     -0.943270    18A     -0.836599
      19A     -0.784183    20A     -0.757913    21A     -0.704315
      22A     -0.679901    23A     -0.656209    24A     -0.647462
      25A     -0.619672    26A     -0.596173    27A     -0.580763
      28A     -0.570960    29A     -0.568462    30A     -0.562948
      31A     -0.540519    32A     -0.537773    33A     -0.509314
      34A     -0.452571    35A     -0.437323    36A     -0.381230
      37A     -0.288384

  @DF-RHF Final Energy:  -474.64598636212895

   => Energetics <=

    Nuclear Repulsion Energy =            508.2908318512075425
    One-Electron Energy =               -1654.7701999853113648
    Two-Electron Energy =                 671.8333817719749277
    Total Energy =                       -474.6459863621289514
  Basis Set: (AUG-CC-PVTZ AUX)
    Blend: AUG-CC-PVTZ-RI
    Molecular point group: c1

    Geometry (in Angstrom), charge = 0, multiplicity = 1:

       Center              X                  Y                   Z               Mass
    ------------   -----------------  -----------------  -----------------  -----------------
         O            0.837046713303     1.540159704085    -0.008017496274    15.994914619570
         O           -1.956585286697    -1.536099295915    -0.025611496274    15.994914619570
         N           -1.283638286697     0.647548704085    -0.017433496274    14.003074004430
         C            2.225934713303    -0.237261295915     0.008024503726    12.000000000000
         C            0.086268713303     0.400721704085    -0.006835496274    12.000000000000
         C            0.872209713303    -0.717029295915     0.002284503726    12.000000000000
         C            2.151950713303     1.125417704085     0.001748503726    12.000000000000
         C            3.467642713303    -1.071386295915     0.018598503726    12.000000000000
         C           -2.243092286697    -0.339820295915    -0.018143496274    12.000000000000
         C           -3.665887286697     0.172139704085     0.038815503726    12.000000000000
         H            0.520808713303    -1.736896295915     0.003330503726     1.007825032230
         H            2.886490713303     1.917134704085     0.003277503726     1.007825032230
         H           -1.584720586697     1.719125504085    -0.011632296274     1.007825032230
         H            3.515014713303    -1.719879295915    -0.861531496274     1.007825032230
         H            4.360604713303    -0.439931295915     0.021204503726     1.007825032230
         H            3.504858713303    -1.712810295915     0.904381503726     1.007825032230
         H           -3.791890286697     1.115296704085    -0.499437496274     1.007825032230
         H           -3.959370286697     0.325510704085     1.081761503726     1.007825032230
         H           -4.319177286697    -0.584809295915    -0.395175496274     1.007825032230

  Basis Set: AUG-CC-PVTZ
    Blend: AUG-CC-PVTZ
  Basis Set: (AUG-CC-PVTZ AUX)
    Blend: AUG-CC-PVTZ-JKFIT
	 Reference Energy          =    -474.6459863621289514 [Eh]
	 Singles Energy            =      -0.0000000000000000 [Eh]
	 Same-Spin Energy          =      -0.4906108117358839 [Eh]
	 Opposite-Spin Energy      =      -1.5259561047638284 [Eh]
	 Correlation Energy        =      -2.0165669164997122 [Eh]
	 Total Energy              =    -476.6625532786286499 [Eh]

	 ================> DF-SCS-MP2 Energies <==================
	-----------------------------------------------------------
	 SCS Same-Spin Scale       =       0.3333333333333333 [-]
	 SCS Opposite-Spin Scale   =       1.2000000000000000 [-]
	 SCS Same-Spin Energy      =      -0.1635369372452946 [Eh]
	 SCS Opposite-Spin Energy  =      -1.8311473257165940 [Eh]
	 SCS Correlation Energy    =      -1.9946842629618886 [Eh]
	 SCS Total Energy          =    -476.6406706250908201 [Eh]
	-----------------------------------------------------------

  Dipole Moment: [D]
     X:    -0.3835      Y:     2.7289      Z:     0.0956     Total:     2.7574

*** Psi4 exiting successfully. Buy a developer a beer!
