                               Psi4 1.4a3.dev225

  ==> Input File <==

--------------------------------------------------------------------------
#psi4
#
memory 32 gb

molecule  {
0 1
  O        0.8291000     1.5489640    -0.0096600
  O       -1.9645320    -1.5272950    -0.0272540
  N       -1.2915850     0.6563530    -0.0190760
  C        2.2179880    -0.2284570     0.0063820
  C        0.0783220     0.4095260    -0.0084780
  C        0.8642630    -0.7082250     0.0006420
  C        2.1440040     1.1342220     0.0001060
  C        3.4596960    -1.0625820     0.0169560
  C       -2.2510390    -0.3310160    -0.0197860
  C       -3.6738340     0.1809440     0.0371730
  H        0.5128620    -1.7280920     0.0016880
  H        2.8785440     1.9259390     0.0016350
  H       -1.6197167     1.8242006    -0.0127536
  H        3.5070680    -1.7110750    -0.8631740
  H        4.3526580    -0.4311270     0.0195620
  H        3.4969120    -1.7040060     0.9027390
  H       -3.7998370     1.1241010    -0.5010800
  H       -3.9673170     0.3343150     1.0801190
  H       -4.3271240    -0.5760050    -0.3968180
units angstrom
no_reorient  #important for SAPT in psi4, default
symmetry c1  #important for SAPT in psi4, default
}

set PROPERTIES_ORIGIN ["COM"]
properties('MP2/aug-cc-pvtz', properties = ['dipole'])
--------------------------------------------------------------------------

    Molecular point group: c1
  Charge       = 0
  Multiplicity = 1
  Basis Set: AUG-CC-PVTZ
    Blend: AUG-CC-PVTZ
  Basis Set: (AUG-CC-PVTZ AUX)
    Blend: AUG-CC-PVTZ-JKFIT

    Orbital Energies [Eh]
    ---------------------

    Doubly Occupied:

       1A    -20.621910     2A    -20.532728     3A    -15.631597
       4A    -11.369166     5A    -11.336360     6A    -11.272398
       7A    -11.248645     8A    -11.235853     9A    -11.225988
      10A    -11.214300    11A     -1.459165    12A     -1.386373
      13A     -1.236486    14A     -1.095846    15A     -1.035173
      16A     -0.983670    17A     -0.942734    18A     -0.834444
      19A     -0.781396    20A     -0.747979    21A     -0.696331
      22A     -0.674663    23A     -0.655398    24A     -0.646765
      25A     -0.618974    26A     -0.592269    27A     -0.579668
      28A     -0.570475    29A     -0.568142    30A     -0.561647
      31A     -0.539601    32A     -0.536564    33A     -0.508414
      34A     -0.451469    35A     -0.436305    36A     -0.380792
      37A     -0.287620

  @DF-RHF Final Energy:  -474.62617714106688

   => Energetics <=

    Nuclear Repulsion Energy =            507.7678255574664377
    One-Electron Energy =               -1653.7933964312856006
    Two-Electron Energy =                 671.3993937327521735
    Total Energy =                       -474.6261771410669326
  Basis Set: (AUG-CC-PVTZ AUX)
    Blend: AUG-CC-PVTZ-RI
    Molecular point group: c1

    Geometry (in Angstrom), charge = 0, multiplicity = 1:

       Center              X                  Y                   Z               Mass
    ------------   -----------------  -----------------  -----------------  -----------------
         O            0.837242746741     1.539462006689    -0.008021273535    15.994914619570
         O           -1.956389253259    -1.536796993311    -0.025615273535    15.994914619570
         N           -1.283442253259     0.646851006689    -0.017437273535    14.003074004430
         C            2.226130746741    -0.237958993311     0.008020726465    12.000000000000
         C            0.086464746741     0.400024006689    -0.006839273535    12.000000000000
         C            0.872405746741    -0.717726993311     0.002280726465    12.000000000000
         C            2.152146746741     1.124720006689     0.001744726465    12.000000000000
         C            3.467838746741    -1.072083993311     0.018594726465    12.000000000000
         C           -2.242896253259    -0.340517993311    -0.018147273535    12.000000000000
         C           -3.665691253259     0.171442006689     0.038811726465    12.000000000000
         H            0.521004746741    -1.737593993311     0.003326726465     1.007825032230
         H            2.886686746741     1.916437006689     0.003273726465     1.007825032230
         H           -1.611573953259     1.814698606689    -0.011114873535     1.007825032230
         H            3.515210746741    -1.720576993311    -0.861535273535     1.007825032230
         H            4.360800746741    -0.440628993311     0.021200726465     1.007825032230
         H            3.505054746741    -1.713507993311     0.904377726465     1.007825032230
         H           -3.791694253259     1.114599006689    -0.499441273535     1.007825032230
         H           -3.959174253259     0.324813006689     1.081757726465     1.007825032230
         H           -4.318981253259    -0.585506993311    -0.395179273535     1.007825032230

  Basis Set: AUG-CC-PVTZ
    Blend: AUG-CC-PVTZ
  Basis Set: (AUG-CC-PVTZ AUX)
    Blend: AUG-CC-PVTZ-JKFIT
	 Reference Energy          =    -474.6261771410668757 [Eh]
	 Singles Energy            =      -0.0000000000000000 [Eh]
	 Same-Spin Energy          =      -0.4915368172045066 [Eh]
	 Opposite-Spin Energy      =      -1.5283709803260790 [Eh]
	 Correlation Energy        =      -2.0199077975305855 [Eh]
	 Total Energy              =    -476.6460849385974825 [Eh]

	 ================> DF-SCS-MP2 Energies <==================
	-----------------------------------------------------------
	 SCS Same-Spin Scale       =       0.3333333333333333 [-]
	 SCS Opposite-Spin Scale   =       1.2000000000000000 [-]
	 SCS Same-Spin Energy      =      -0.1638456057348355 [Eh]
	 SCS Opposite-Spin Energy  =      -1.8340451763912946 [Eh]
	 SCS Correlation Energy    =      -1.9978907821261300 [Eh]
	 SCS Total Energy          =    -476.6240679231930244 [Eh]
	-----------------------------------------------------------

  Dipole Moment: [D]
     X:    -0.4024      Y:     2.8284      Z:     0.0962     Total:     2.8585

*** Psi4 exiting successfully. Buy a developer a beer!
