                               Psi4 1.4a3.dev225

  ==> Input File <==

--------------------------------------------------------------------------
#psi4
#
memory 32 gb

molecule  {
0 1
  O        0.8291000     1.5489640    -0.0096600
  O       -1.9645320    -1.5272950    -0.0272540
  N       -1.2915850     0.6563530    -0.0190760
  C        2.2179880    -0.2284570     0.0063820
  C        0.0783220     0.4095260    -0.0084780
  C        0.8642630    -0.7082250     0.0006420
  C        2.1440040     1.1342220     0.0001060
  C        3.4596960    -1.0625820     0.0169560
  C       -2.2510390    -0.3310160    -0.0197860
  C       -3.6738340     0.1809440     0.0371730
  H        0.5128620    -1.7280920     0.0016880
  H        2.8785440     1.9259390     0.0016350
  H       -1.5656180     1.6316590    -0.0137960
  H        3.5070680    -1.7110750    -0.8631740
  H        4.3526580    -0.4311270     0.0195620
  H        3.5037140    -1.8212395     1.0646342
  H       -3.7998370     1.1241010    -0.5010800
  H       -3.9673170     0.3343150     1.0801190
  H       -4.3271240    -0.5760050    -0.3968180
units angstrom
no_reorient  #important for SAPT in psi4, default
symmetry c1  #important for SAPT in psi4, default
}

set PROPERTIES_ORIGIN ["COM"]
properties('MP2/aug-cc-pvtz', properties = ['dipole'])
--------------------------------------------------------------------------

    Molecular point group: c1
  Charge       = 0
  Multiplicity = 1
  Basis Set: AUG-CC-PVTZ
    Blend: AUG-CC-PVTZ
  Basis Set: (AUG-CC-PVTZ AUX)
    Blend: AUG-CC-PVTZ-JKFIT

    Orbital Energies [Eh]
    ---------------------

    Doubly Occupied:

       1A    -20.624384     2A    -20.534163     3A    -15.618910
       4A    -11.370610     5A    -11.337498     6A    -11.275852
       7A    -11.250245     8A    -11.249074     9A    -11.238711
      10A    -11.215899    11A     -1.462098    12A     -1.388876
      13A     -1.255115    14A     -1.096929    15A     -1.037277
      16A     -0.985680    17A     -0.935970    18A     -0.839737
      19A     -0.791818    20A     -0.769523    21A     -0.710658
      22A     -0.683143    23A     -0.657826    24A     -0.648818
      25A     -0.620690    26A     -0.599970    27A     -0.582764
      28A     -0.571919    29A     -0.564782    30A     -0.551448
      31A     -0.542167    32A     -0.529492    33A     -0.502382
      34A     -0.454342    35A     -0.438700    36A     -0.379958
      37A     -0.290147

  @DF-RHF Final Energy:  -474.63703377679280

   => Energetics <=

    Nuclear Repulsion Energy =            508.1118452291508447
    One-Electron Energy =               -1654.2826032196128381
    Two-Electron Energy =                 671.5337242136690747
    Total Energy =                       -474.6370337767928049
  Basis Set: (AUG-CC-PVTZ AUX)
    Blend: AUG-CC-PVTZ-RI
    Molecular point group: c1

    Geometry (in Angstrom), charge = 0, multiplicity = 1:

       Center              X                  Y                   Z               Mass
    ------------   -----------------  -----------------  -----------------  -----------------
         O            0.836801384877     1.541707020550    -0.009187012051    15.994914619570
         O           -1.956830615123    -1.534551979450    -0.026781012051    15.994914619570
         N           -1.283883615123     0.649096020550    -0.018603012051    14.003074004430
         C            2.225689384877    -0.235713979450     0.006854987949    12.000000000000
         C            0.086023384877     0.402269020550    -0.008005012051    12.000000000000
         C            0.871964384877    -0.715481979450     0.001114987949    12.000000000000
         C            2.151705384877     1.126965020550     0.000578987949    12.000000000000
         C            3.467397384877    -1.069838979450     0.017428987949    12.000000000000
         C           -2.243337615123    -0.338272979450    -0.019313012051    12.000000000000
         C           -3.666132615123     0.173687020550     0.037645987949    12.000000000000
         H            0.520563384877    -1.735348979450     0.002160987949     1.007825032230
         H            2.886245384877     1.918682020550     0.002107987949     1.007825032230
         H           -1.557916615123     1.624402020550    -0.013323012051     1.007825032230
         H            3.514769384877    -1.718331979450    -0.862701012051     1.007825032230
         H            4.360359384877    -0.438383979450     0.020034987949     1.007825032230
         H            3.511415384877    -1.828496479450     1.065107187949     1.007825032230
         H           -3.792135615123     1.116844020550    -0.500607012051     1.007825032230
         H           -3.959615615123     0.327058020550     1.080591987949     1.007825032230
         H           -4.319422615123    -0.583261979450    -0.396345012051     1.007825032230

  Basis Set: AUG-CC-PVTZ
    Blend: AUG-CC-PVTZ
  Basis Set: (AUG-CC-PVTZ AUX)
    Blend: AUG-CC-PVTZ-JKFIT
	 Reference Energy          =    -474.6370337767928049 [Eh]
	 Singles Energy            =      -0.0000000000000000 [Eh]
	 Same-Spin Energy          =      -0.4896613742997215 [Eh]
	 Opposite-Spin Energy      =      -1.5253029198199699 [Eh]
	 Correlation Energy        =      -2.0149642941196912 [Eh]
	 Total Energy              =    -476.6519980709124980 [Eh]

	 ================> DF-SCS-MP2 Energies <==================
	-----------------------------------------------------------
	 SCS Same-Spin Scale       =       0.3333333333333333 [-]
	 SCS Opposite-Spin Scale   =       1.2000000000000000 [-]
	 SCS Same-Spin Energy      =      -0.1632204580999072 [Eh]
	 SCS Opposite-Spin Energy  =      -1.8303635037839638 [Eh]
	 SCS Correlation Energy    =      -1.9935839618838709 [Eh]
	 SCS Total Energy          =    -476.6306177386766763 [Eh]
	-----------------------------------------------------------

  Dipole Moment: [D]
     X:    -0.4483      Y:     2.7364      Z:     0.0107     Total:     2.7729

*** Psi4 exiting successfully. Buy a developer a beer!
