                               Psi4 1.4a3.dev225

  ==> Input File <==

--------------------------------------------------------------------------
#psi4
#
memory 32 gb

molecule  {
0 1
  O        0.8291000     1.5489640    -0.0096600
  O       -1.9645320    -1.5272950    -0.0272540
  N       -1.2915850     0.6563530    -0.0190760
  C        2.2179880    -0.2284570     0.0063820
  C        0.0783220     0.4095260    -0.0084780
  C        0.8642630    -0.7082250     0.0006420
  C        2.1440040     1.1342220     0.0001060
  C        3.4596960    -1.0625820     0.0169560
  C       -2.2510390    -0.3310160    -0.0197860
  C       -3.6738340     0.1809440     0.0371730
  H        0.5128620    -1.7280920     0.0016880
  H        2.8785440     1.9259390     0.0016350
  H       -1.5656180     1.6316590    -0.0137960
  H        3.5070680    -1.7110750    -0.8631740
  H        4.3526580    -0.4311270     0.0195620
  H        3.4952115    -1.6746976     0.8622652
  H       -3.7998370     1.1241010    -0.5010800
  H       -3.9673170     0.3343150     1.0801190
  H       -4.3271240    -0.5760050    -0.3968180
units angstrom
no_reorient  #important for SAPT in psi4, default
symmetry c1  #important for SAPT in psi4, default
}

set PROPERTIES_ORIGIN ["COM"]
properties('MP2/aug-cc-pvtz', properties = ['dipole'])
--------------------------------------------------------------------------

    Molecular point group: c1
  Charge       = 0
  Multiplicity = 1
  Basis Set: AUG-CC-PVTZ
    Blend: AUG-CC-PVTZ
  Basis Set: (AUG-CC-PVTZ AUX)
    Blend: AUG-CC-PVTZ-JKFIT

    Orbital Energies [Eh]
    ---------------------

    Doubly Occupied:

       1A    -20.622737     2A    -20.533690     3A    -15.618255
       4A    -11.370122     5A    -11.336488     6A    -11.272992
       7A    -11.249882     8A    -11.236084     9A    -11.220436
      10A    -11.215026    11A     -1.460490    12A     -1.388382
      13A     -1.254407    14A     -1.097130    15A     -1.036850
      16A     -0.988224    17A     -0.946797    18A     -0.840401
      19A     -0.791758    20A     -0.768808    21A     -0.712295
      22A     -0.682483    23A     -0.656968    24A     -0.648166
      25A     -0.620392    26A     -0.599401    27A     -0.583591
      28A     -0.574749    29A     -0.571087    30A     -0.563850
      31A     -0.541583    32A     -0.539148    33A     -0.510448
      34A     -0.453738    35A     -0.438244    36A     -0.382009
      37A     -0.289037

  @DF-RHF Final Energy:  -474.65581876102897

   => Energetics <=

    Nuclear Repulsion Energy =            509.0935969004305548
    One-Electron Energy =               -1656.2665380806645317
    Two-Electron Energy =                 672.5171224192049522
    Total Energy =                       -474.6558187610289679
  Basis Set: (AUG-CC-PVTZ AUX)
    Blend: AUG-CC-PVTZ-RI
    Molecular point group: c1

    Geometry (in Angstrom), charge = 0, multiplicity = 1:

       Center              X                  Y                   Z               Mass
    ------------   -----------------  -----------------  -----------------  -----------------
         O            0.836863004518     1.540644996531    -0.007720395754    15.994914619570
         O           -1.956768995482    -1.535614003469    -0.025314395754    15.994914619570
         N           -1.283821995482     0.648033996531    -0.017136395754    14.003074004430
         C            2.225751004518    -0.236776003469     0.008321604246    12.000000000000
         C            0.086085004518     0.401206996531    -0.006538395754    12.000000000000
         C            0.872026004518    -0.716544003469     0.002581604246    12.000000000000
         C            2.151767004518     1.125902996531     0.002045604246    12.000000000000
         C            3.467459004518    -1.070901003469     0.018895604246    12.000000000000
         C           -2.243275995482    -0.339335003469    -0.017846395754    12.000000000000
         C           -3.666070995482     0.172624996531     0.039112604246    12.000000000000
         H            0.520625004518    -1.736411003469     0.003627604246     1.007825032230
         H            2.886307004518     1.917619996531     0.003574604246     1.007825032230
         H           -1.557854995482     1.623339996531    -0.011856395754     1.007825032230
         H            3.514831004518    -1.719394003469    -0.861234395754     1.007825032230
         H            4.360421004518    -0.439446003469     0.021501604246     1.007825032230
         H            3.502974504518    -1.683016603469     0.864204804246     1.007825032230
         H           -3.792073995482     1.115781996531    -0.499140395754     1.007825032230
         H           -3.959553995482     0.325995996531     1.082058604246     1.007825032230
         H           -4.319360995482    -0.584324003469    -0.394878395754     1.007825032230

  Basis Set: AUG-CC-PVTZ
    Blend: AUG-CC-PVTZ
  Basis Set: (AUG-CC-PVTZ AUX)
    Blend: AUG-CC-PVTZ-JKFIT
	 Reference Energy          =    -474.6558187610289679 [Eh]
	 Singles Energy            =      -0.0000000000000000 [Eh]
	 Same-Spin Energy          =      -0.4897605557295274 [Eh]
	 Opposite-Spin Energy      =      -1.5236085399634653 [Eh]
	 Correlation Energy        =      -2.0133690956929926 [Eh]
	 Total Energy              =    -476.6691878567219760 [Eh]

	 ================> DF-SCS-MP2 Energies <==================
	-----------------------------------------------------------
	 SCS Same-Spin Scale       =       0.3333333333333333 [-]
	 SCS Opposite-Spin Scale   =       1.2000000000000000 [-]
	 SCS Same-Spin Energy      =      -0.1632535185765091 [Eh]
	 SCS Opposite-Spin Energy  =      -1.8283302479561583 [Eh]
	 SCS Correlation Energy    =      -1.9915837665326674 [Eh]
	 SCS Total Energy          =    -476.6474025275616100 [Eh]
	-----------------------------------------------------------

  Dipole Moment: [D]
     X:    -0.3503      Y:     2.6085      Z:     0.1085     Total:     2.6341

*** Psi4 exiting successfully. Buy a developer a beer!
