                               Psi4 1.4a3.dev225

  ==> Input File <==

--------------------------------------------------------------------------
#psi4
#
memory 32 gb

molecule  {
0 1
  O        0.8291000     1.5489640    -0.0096600
  O       -1.9645320    -1.5272950    -0.0272540
  N       -1.2915850     0.6563530    -0.0190760
  C        2.2179880    -0.2284570     0.0063820
  C        0.0783220     0.4095260    -0.0084780
  C        0.8642630    -0.7082250     0.0006420
  C        2.1440040     1.1342220     0.0001060
  C        3.4596960    -1.0625820     0.0169560
  C       -2.2510390    -0.3310160    -0.0197860
  C       -3.6738340     0.1809440     0.0371730
  H        0.5128620    -1.7280920     0.0016880
  H        2.8785440     1.9259390     0.0016350
  H       -1.5656180     1.6316590    -0.0137960
  H        3.5070680    -1.7110750    -0.8631740
  H        4.3526580    -0.4311270     0.0195620
  H        3.4969120    -1.7040060     0.9027390
  H       -3.7998370     1.1241010    -0.5010800
  H       -3.9673170     0.3343150     1.0801190
  H       -4.3151371    -0.5621161    -0.3888549
units angstrom
no_reorient  #important for SAPT in psi4, default
symmetry c1  #important for SAPT in psi4, default
}

set PROPERTIES_ORIGIN ["COM"]
properties('MP2/aug-cc-pvtz', properties = ['dipole'])
--------------------------------------------------------------------------

    Molecular point group: c1
  Charge       = 0
  Multiplicity = 1
  Basis Set: AUG-CC-PVTZ
    Blend: AUG-CC-PVTZ
  Basis Set: (AUG-CC-PVTZ AUX)
    Blend: AUG-CC-PVTZ-JKFIT

    Orbital Energies [Eh]
    ---------------------

    Doubly Occupied:

       1A    -20.622913     2A    -20.533790     3A    -15.618234
       4A    -11.370085     5A    -11.336575     6A    -11.273347
       7A    -11.247697     8A    -11.236471     9A    -11.226496
      10A    -11.215086    11A     -1.460666    12A     -1.388468
      13A     -1.254430    14A     -1.096765    15A     -1.037736
      16A     -0.987768    17A     -0.943993    18A     -0.840508
      19A     -0.791718    20A     -0.768860    21A     -0.711620
      22A     -0.682553    23A     -0.657035    24A     -0.648479
      25A     -0.620701    26A     -0.599449    27A     -0.581919
      28A     -0.573973    29A     -0.568798    30A     -0.564319
      31A     -0.541849    32A     -0.538694    33A     -0.509998
      34A     -0.453829    35A     -0.438262    36A     -0.381629
      37A     -0.289147

  @DF-RHF Final Energy:  -474.65686188809980

   => Energetics <=

    Nuclear Repulsion Energy =            508.9646534890434850
    One-Electron Energy =               -1656.0153116030583078
    Two-Electron Energy =                 672.3937962259150254
    Total Energy =                       -474.6568618880997974
  Basis Set: (AUG-CC-PVTZ AUX)
    Blend: AUG-CC-PVTZ-RI
    Molecular point group: c1

    Geometry (in Angstrom), charge = 0, multiplicity = 1:

       Center              X                  Y                   Z               Mass
    ------------   -----------------  -----------------  -----------------  -----------------
         O            0.836763808673     1.540756745317    -0.008071429494    15.994914619570
         O           -1.956868191327    -1.535502254683    -0.025665429494    15.994914619570
         N           -1.283921191327     0.648145745317    -0.017487429494    14.003074004430
         C            2.225651808673    -0.236664254683     0.007970570506    12.000000000000
         C            0.085985808673     0.401318745317    -0.006889429494    12.000000000000
         C            0.871926808673    -0.716432254683     0.002230570506    12.000000000000
         C            2.151667808673     1.126014745317     0.001694570506    12.000000000000
         C            3.467359808673    -1.070789254683     0.018544570506    12.000000000000
         C           -2.243375191327    -0.339223254683    -0.018197429494    12.000000000000
         C           -3.666170191327     0.172736745317     0.038761570506    12.000000000000
         H            0.520525808673    -1.736299254683     0.003276570506     1.007825032230
         H            2.886207808673     1.917731745317     0.003223570506     1.007825032230
         H           -1.557954191327     1.623451745317    -0.012207429494     1.007825032230
         H            3.514731808673    -1.719282254683    -0.861585429494     1.007825032230
         H            4.360321808673    -0.439334254683     0.021150570506     1.007825032230
         H            3.504575808673    -1.712213254683     0.904327570506     1.007825032230
         H           -3.792173191327     1.115893745317    -0.499491429494     1.007825032230
         H           -3.959653191327     0.326107745317     1.081707570506     1.007825032230
         H           -4.307473291327    -0.570323354683    -0.387266329494     1.007825032230

  Basis Set: AUG-CC-PVTZ
    Blend: AUG-CC-PVTZ
  Basis Set: (AUG-CC-PVTZ AUX)
    Blend: AUG-CC-PVTZ-JKFIT
	 Reference Energy          =    -474.6568618880997974 [Eh]
	 Singles Energy            =      -0.0000000000000000 [Eh]
	 Same-Spin Energy          =      -0.4897301026319363 [Eh]
	 Opposite-Spin Energy      =      -1.5237328791529106 [Eh]
	 Correlation Energy        =      -2.0134629817848468 [Eh]
	 Total Energy              =    -476.6703248698846664 [Eh]

	 ================> DF-SCS-MP2 Energies <==================
	-----------------------------------------------------------
	 SCS Same-Spin Scale       =       0.3333333333333333 [-]
	 SCS Opposite-Spin Scale   =       1.2000000000000000 [-]
	 SCS Same-Spin Energy      =      -0.1632433675439788 [Eh]
	 SCS Opposite-Spin Energy  =      -1.8284794549834926 [Eh]
	 SCS Correlation Energy    =      -1.9917228225274715 [Eh]
	 SCS Total Energy          =    -476.6485847106272900 [Eh]
	-----------------------------------------------------------

  Dipole Moment: [D]
     X:    -0.3696      Y:     2.6268      Z:     0.0942     Total:     2.6544

*** Psi4 exiting successfully. Buy a developer a beer!
