                               Psi4 1.4a3.dev225

  ==> Input File <==

--------------------------------------------------------------------------
#psi4
#
memory 32 gb

molecule  {
0 1
  O        0.8291000     1.5489640    -0.0096600
  O       -1.9645320    -1.5272950    -0.0272540
  N       -1.2915850     0.6563530    -0.0190760
  C        2.2179880    -0.2284570     0.0063820
  C        0.0783220     0.4095260    -0.0084780
  C        0.8454120    -0.7149059     0.0005621
  C        2.1440040     1.1342220     0.0001060
  C        3.4596960    -1.0625820     0.0169560
  C       -2.2510390    -0.3310160    -0.0197860
  C       -3.6738340     0.1809440     0.0371730
  H        0.5128620    -1.7280920     0.0016880
  H        2.8785440     1.9259390     0.0016350
  H       -1.5656180     1.6316590    -0.0137960
  H        3.5070680    -1.7110750    -0.8631740
  H        4.3526580    -0.4311270     0.0195620
  H        3.4969120    -1.7040060     0.9027390
  H       -3.7998370     1.1241010    -0.5010800
  H       -3.9673170     0.3343150     1.0801190
  H       -4.3271240    -0.5760050    -0.3968180
units angstrom
no_reorient  #important for SAPT in psi4, default
symmetry c1  #important for SAPT in psi4, default
}

set PROPERTIES_ORIGIN ["COM"]
properties('MP2/aug-cc-pvtz', properties = ['dipole'])
--------------------------------------------------------------------------

    Molecular point group: c1
  Charge       = 0
  Multiplicity = 1
  Basis Set: AUG-CC-PVTZ
    Blend: AUG-CC-PVTZ
  Basis Set: (AUG-CC-PVTZ AUX)
    Blend: AUG-CC-PVTZ-JKFIT

    Orbital Energies [Eh]
    ---------------------

    Doubly Occupied:

       1A    -20.622575     2A    -20.533487     3A    -15.617564
       4A    -11.369895     5A    -11.336397     6A    -11.273917
       7A    -11.249711     8A    -11.238067     9A    -11.226587
      10A    -11.215132    11A     -1.460434    12A     -1.388199
      13A     -1.254147    14A     -1.094080    15A     -1.037083
      16A     -0.987715    17A     -0.943568    18A     -0.840219
      19A     -0.790637    20A     -0.769925    21A     -0.710645
      22A     -0.682432    23A     -0.656894    24A     -0.647555
      25A     -0.620119    26A     -0.599303    27A     -0.581473
      28A     -0.572850    29A     -0.568683    30A     -0.567338
      31A     -0.541315    32A     -0.537669    33A     -0.507587
      34A     -0.453660    35A     -0.437930    36A     -0.379594
      37A     -0.291148

  @DF-RHF Final Energy:  -474.65705968313381

   => Energetics <=

    Nuclear Repulsion Energy =            508.7766427691426543
    One-Electron Energy =               -1655.6563359625290559
    Two-Electron Energy =                 672.2226335102525354
    Total Energy =                       -474.6570596831338662
  Basis Set: (AUG-CC-PVTZ AUX)
    Blend: AUG-CC-PVTZ-RI
    Molecular point group: c1

    Geometry (in Angstrom), charge = 0, multiplicity = 1:

       Center              X                  Y                   Z               Mass
    ------------   -----------------  -----------------  -----------------  -----------------
         O            0.838477363931     1.541433907169    -0.008006824313    15.994914619570
         O           -1.955154636069    -1.534825092831    -0.025600824313    15.994914619570
         N           -1.282207636069     0.648822907169    -0.017422824313    14.003074004430
         C            2.227365363931    -0.235987092831     0.008035175687    12.000000000000
         C            0.087699363931     0.401995907169    -0.006824824313    12.000000000000
         C            0.854789363931    -0.722435992831     0.002215275687    12.000000000000
         C            2.153381363931     1.126691907169     0.001759175687    12.000000000000
         C            3.469073363931    -1.070112092831     0.018609175687    12.000000000000
         C           -2.241661636069    -0.338546092831    -0.018132824313    12.000000000000
         C           -3.664456636069     0.173413907169     0.038826175687    12.000000000000
         H            0.522239363931    -1.735622092831     0.003341175687     1.007825032230
         H            2.887921363931     1.918408907169     0.003288175687     1.007825032230
         H           -1.556240636069     1.624128907169    -0.012142824313     1.007825032230
         H            3.516445363931    -1.718605092831    -0.861520824313     1.007825032230
         H            4.362035363931    -0.438657092831     0.021215175687     1.007825032230
         H            3.506289363931    -1.711536092831     0.904392175687     1.007825032230
         H           -3.790459636069     1.116570907169    -0.499426824313     1.007825032230
         H           -3.957939636069     0.326784907169     1.081772175687     1.007825032230
         H           -4.317746636069    -0.583535092831    -0.395164824313     1.007825032230

  Basis Set: AUG-CC-PVTZ
    Blend: AUG-CC-PVTZ
  Basis Set: (AUG-CC-PVTZ AUX)
    Blend: AUG-CC-PVTZ-JKFIT
	 Reference Energy          =    -474.6570596831338094 [Eh]
	 Singles Energy            =      -0.0000000000000000 [Eh]
	 Same-Spin Energy          =      -0.4893343212452864 [Eh]
	 Opposite-Spin Energy      =      -1.5234985338775824 [Eh]
	 Correlation Energy        =      -2.0128328551228689 [Eh]
	 Total Energy              =    -476.6698925382567040 [Eh]

	 ================> DF-SCS-MP2 Energies <==================
	-----------------------------------------------------------
	 SCS Same-Spin Scale       =       0.3333333333333333 [-]
	 SCS Opposite-Spin Scale   =       1.2000000000000000 [-]
	 SCS Same-Spin Energy      =      -0.1631114404150955 [Eh]
	 SCS Opposite-Spin Energy  =      -1.8281982406530988 [Eh]
	 SCS Correlation Energy    =      -1.9913096810681943 [Eh]
	 SCS Total Energy          =    -476.6483693642019830 [Eh]
	-----------------------------------------------------------

  Dipole Moment: [D]
     X:    -0.3491      Y:     2.6231      Z:     0.0950     Total:     2.6479

*** Psi4 exiting successfully. Buy a developer a beer!
