                               Psi4 1.4a3.dev225

  ==> Input File <==

--------------------------------------------------------------------------
#psi4
#
memory 32 gb

molecule  {
0 1
  O        0.8291000     1.5489640    -0.0096600
  O       -1.9645320    -1.5272950    -0.0272540
  N       -1.2915850     0.6563530    -0.0190760
  C        2.2179880    -0.2284570     0.0063820
  C        0.0783220     0.4095260    -0.0084780
  C        0.8642630    -0.7082250     0.0006420
  C        2.1440040     1.1342220     0.0001060
  C        3.4596960    -1.0625820     0.0169560
  C       -2.2510390    -0.3310160    -0.0197860
  C       -3.6738340     0.1809440     0.0371730
  H        0.5128620    -1.7280920     0.0016880
  H        2.8785440     1.9259390     0.0016350
  H       -1.5656180     1.6316590    -0.0137960
  H        3.5070680    -1.7110750    -0.8631740
  H        4.3526580    -0.4311270     0.0195620
  H        3.4969120    -1.7040060     0.9027390
  H       -3.7998370     1.1241010    -0.5010800
  H       -3.9673170     0.3343150     1.0801190
  H       -4.3391109    -0.5898939    -0.4047811
units angstrom
no_reorient  #important for SAPT in psi4, default
symmetry c1  #important for SAPT in psi4, default
}

set PROPERTIES_ORIGIN ["COM"]
properties('MP2/aug-cc-pvtz', properties = ['dipole'])
--------------------------------------------------------------------------

    Molecular point group: c1
  Charge       = 0
  Multiplicity = 1
  Basis Set: AUG-CC-PVTZ
    Blend: AUG-CC-PVTZ
  Basis Set: (AUG-CC-PVTZ AUX)
    Blend: AUG-CC-PVTZ-JKFIT

    Orbital Energies [Eh]
    ---------------------

    Doubly Occupied:

       1A    -20.623000     2A    -20.533722     3A    -15.618461
       4A    -11.370300     5A    -11.336682     6A    -11.273425
       7A    -11.252139     8A    -11.236535     9A    -11.226542
      10A    -11.215176    11A     -1.460753    12A     -1.388434
      13A     -1.254583    14A     -1.096833    15A     -1.036068
      16A     -0.986572    17A     -0.943652    18A     -0.839759
      19A     -0.791535    20A     -0.768870    21A     -0.711609
      22A     -0.682604    23A     -0.657048    24A     -0.647807
      25A     -0.620064    26A     -0.599510    27A     -0.581330
      28A     -0.569378    29A     -0.568457    30A     -0.563189
      31A     -0.541063    32A     -0.538755    33A     -0.510051
      34A     -0.453814    35A     -0.438355    36A     -0.381698
      37A     -0.289235

  @DF-RHF Final Energy:  -474.65628121018415

   => Energetics <=

    Nuclear Repulsion Energy =            508.7851696673867536
    One-Electron Energy =               -1655.6688888235530612
    Two-Electron Energy =                 672.2274379459821603
    Total Energy =                       -474.6562812101841473
  Basis Set: (AUG-CC-PVTZ AUX)
    Blend: AUG-CC-PVTZ-RI
    Molecular point group: c1

    Geometry (in Angstrom), charge = 0, multiplicity = 1:

       Center              X                  Y                   Z               Mass
    ------------   -----------------  -----------------  -----------------  -----------------
         O            0.836937552506     1.540958057643    -0.007956008533    15.994914619570
         O           -1.956694447494    -1.535300942357    -0.025550008533    15.994914619570
         N           -1.283747447494     0.648347057643    -0.017372008533    14.003074004430
         C            2.225825552506    -0.236462942357     0.008085991467    12.000000000000
         C            0.086159552506     0.401520057643    -0.006774008533    12.000000000000
         C            0.872100552506    -0.716230942357     0.002345991467    12.000000000000
         C            2.151841552506     1.126216057643     0.001809991467    12.000000000000
         C            3.467533552506    -1.070587942357     0.018659991467    12.000000000000
         C           -2.243201447494    -0.339021942357    -0.018082008533    12.000000000000
         C           -3.665996447494     0.172938057643     0.038876991467    12.000000000000
         H            0.520699552506    -1.736097942357     0.003391991467     1.007825032230
         H            2.886381552506     1.917933057643     0.003338991467     1.007825032230
         H           -1.557780447494     1.623653057643    -0.012092008533     1.007825032230
         H            3.514905552506    -1.719080942357    -0.861470008533     1.007825032230
         H            4.360495552506    -0.439132942357     0.021265991467     1.007825032230
         H            3.504749552506    -1.712011942357     0.904442991467     1.007825032230
         H           -3.791999447494     1.116095057643    -0.499376008533     1.007825032230
         H           -3.959479447494     0.326309057643     1.081822991467     1.007825032230
         H           -4.331273347494    -0.597899842357    -0.403077108533     1.007825032230

  Basis Set: AUG-CC-PVTZ
    Blend: AUG-CC-PVTZ
  Basis Set: (AUG-CC-PVTZ AUX)
    Blend: AUG-CC-PVTZ-JKFIT
	 Reference Energy          =    -474.6562812101841473 [Eh]
	 Singles Energy            =      -0.0000000000000000 [Eh]
	 Same-Spin Energy          =      -0.4897386548667578 [Eh]
	 Opposite-Spin Energy      =      -1.5239895566498411 [Eh]
	 Correlation Energy        =      -2.0137282115165989 [Eh]
	 Total Energy              =    -476.6700094217007404 [Eh]

	 ================> DF-SCS-MP2 Energies <==================
	-----------------------------------------------------------
	 SCS Same-Spin Scale       =       0.3333333333333333 [-]
	 SCS Opposite-Spin Scale   =       1.2000000000000000 [-]
	 SCS Same-Spin Energy      =      -0.1632462182889192 [Eh]
	 SCS Opposite-Spin Energy  =      -1.8287874679798093 [Eh]
	 SCS Correlation Energy    =      -1.9920336862687285 [Eh]
	 SCS Total Energy          =    -476.6483148964528596 [Eh]
	-----------------------------------------------------------

  Dipole Moment: [D]
     X:    -0.3592      Y:     2.6271      Z:     0.0959     Total:     2.6532

*** Psi4 exiting successfully. Buy a developer a beer!
