                               Psi4 1.4a3.dev225

  ==> Input File <==

--------------------------------------------------------------------------
#psi4
#
memory 32 gb

molecule  {
0 1
  O        0.8291000     1.5489640    -0.0096600
  O       -1.9645320    -1.5272950    -0.0272540
  N       -1.2915850     0.6563530    -0.0190760
  C        2.2179880    -0.2284570     0.0063820
  C        0.0783220     0.4095260    -0.0084780
  C        0.8642630    -0.7082250     0.0006420
  C        2.1440040     1.1342220     0.0001060
  C        3.4596960    -1.0625820     0.0169560
  C       -2.2510390    -0.3310160    -0.0197860
  C       -3.6738340     0.1809440     0.0371730
  H        0.5128620    -1.7280920     0.0016880
  H        2.7425162     1.7793227     0.0013518
  H       -1.5656180     1.6316590    -0.0137960
  H        3.5070680    -1.7110750    -0.8631740
  H        4.3526580    -0.4311270     0.0195620
  H        3.4969120    -1.7040060     0.9027390
  H       -3.7998370     1.1241010    -0.5010800
  H       -3.9673170     0.3343150     1.0801190
  H       -4.3271240    -0.5760050    -0.3968180
units angstrom
no_reorient  #important for SAPT in psi4, default
symmetry c1  #important for SAPT in psi4, default
}

set PROPERTIES_ORIGIN ["COM"]
properties('MP2/aug-cc-pvtz', properties = ['dipole'])
--------------------------------------------------------------------------

    Molecular point group: c1
  Charge       = 0
  Multiplicity = 1
  Basis Set: AUG-CC-PVTZ
    Blend: AUG-CC-PVTZ
  Basis Set: (AUG-CC-PVTZ AUX)
    Blend: AUG-CC-PVTZ-JKFIT

    Orbital Energies [Eh]
    ---------------------

    Doubly Occupied:

       1A    -20.621468     2A    -20.533692     3A    -15.618196
       4A    -11.370113     5A    -11.336476     6A    -11.250308
       7A    -11.249888     8A    -11.236042     9A    -11.226794
      10A    -11.214362    11A     -1.459715    12A     -1.388370
      13A     -1.254507    14A     -1.096693    15A     -1.039498
      16A     -0.992360    17A     -0.951491    18A     -0.846935
      19A     -0.808145    20A     -0.769870    21A     -0.711144
      22A     -0.695741    23A     -0.661525    24A     -0.656372
      25A     -0.620070    26A     -0.601809    27A     -0.591119
      28A     -0.572160    29A     -0.569001    30A     -0.563714
      31A     -0.541344    32A     -0.538263    33A     -0.512188
      34A     -0.453650    35A     -0.438229    36A     -0.381042
      37A     -0.289433

  @DF-RHF Final Energy:  -474.62026593155019

   => Energetics <=

    Nuclear Repulsion Energy =            510.1092517007550100
    One-Electron Energy =               -1658.1355832429137536
    Two-Electron Energy =                 673.4060656106084934
    Total Energy =                       -474.6202659315501933
  Basis Set: (AUG-CC-PVTZ AUX)
    Blend: AUG-CC-PVTZ-RI
    Molecular point group: c1

    Geometry (in Angstrom), charge = 0, multiplicity = 1:

       Center              X                  Y                   Z               Mass
    ------------   -----------------  -----------------  -----------------  -----------------
         O            0.837836506424     1.541919964694    -0.008011666596    15.994914619570
         O           -1.955795493576    -1.534339035306    -0.025605666596    15.994914619570
         N           -1.282848493576     0.649308964694    -0.017427666596    14.003074004430
         C            2.226724506424    -0.235501035306     0.008030333404    12.000000000000
         C            0.087058506424     0.402481964694    -0.006829666596    12.000000000000
         C            0.872999506424    -0.715269035306     0.002290333404    12.000000000000
         C            2.152740506424     1.127177964694     0.001754333404    12.000000000000
         C            3.468432506424    -1.069626035306     0.018604333404    12.000000000000
         C           -2.242302493576    -0.338060035306    -0.018137666596    12.000000000000
         C           -3.665097493576     0.173899964694     0.038821333404    12.000000000000
         H            0.521598506424    -1.735136035306     0.003336333404     1.007825032230
         H            2.751252706424     1.772278664694     0.003000133404     1.007825032230
         H           -1.556881493576     1.624614964694    -0.012147666596     1.007825032230
         H            3.515804506424    -1.718119035306    -0.861525666596     1.007825032230
         H            4.361394506424    -0.438171035306     0.021210333404     1.007825032230
         H            3.505648506424    -1.711050035306     0.904387333404     1.007825032230
         H           -3.791100493576     1.117056964694    -0.499431666596     1.007825032230
         H           -3.958580493576     0.327270964694     1.081767333404     1.007825032230
         H           -4.318387493576    -0.583049035306    -0.395169666596     1.007825032230

  Basis Set: AUG-CC-PVTZ
    Blend: AUG-CC-PVTZ
  Basis Set: (AUG-CC-PVTZ AUX)
    Blend: AUG-CC-PVTZ-JKFIT
	 Reference Energy          =    -474.6202659315501933 [Eh]
	 Singles Energy            =      -0.0000000000000000 [Eh]
	 Same-Spin Energy          =      -0.4894634207620128 [Eh]
	 Opposite-Spin Energy      =      -1.5231488869521783 [Eh]
	 Correlation Energy        =      -2.0126123077141909 [Eh]
	 Total Energy              =    -476.6328782392643575 [Eh]

	 ================> DF-SCS-MP2 Energies <==================
	-----------------------------------------------------------
	 SCS Same-Spin Scale       =       0.3333333333333333 [-]
	 SCS Opposite-Spin Scale   =       1.2000000000000000 [-]
	 SCS Same-Spin Energy      =      -0.1631544735873376 [Eh]
	 SCS Opposite-Spin Energy  =      -1.8277786643426139 [Eh]
	 SCS Correlation Energy    =      -1.9909331379299515 [Eh]
	 SCS Total Energy          =    -476.6111990694801648 [Eh]
	-----------------------------------------------------------

  Dipole Moment: [D]
     X:    -0.3754      Y:     2.5913      Z:     0.0951     Total:     2.6201

*** Psi4 exiting successfully. Buy a developer a beer!
