                               Psi4 1.4a3.dev225

  ==> Input File <==

--------------------------------------------------------------------------
#psi4
#
memory 32 gb

molecule  {
0 1
  O        0.8291000     1.5489640    -0.0096600
  O       -1.9645320    -1.5272950    -0.0272540
  N       -1.2915850     0.6563530    -0.0190760
  C        2.2094093    -0.2049043     0.0062354
  C        0.0783220     0.4095260    -0.0084780
  C        0.8642630    -0.7082250     0.0006420
  C        2.1440040     1.1342220     0.0001060
  C        3.4596960    -1.0625820     0.0169560
  C       -2.2510390    -0.3310160    -0.0197860
  C       -3.6738340     0.1809440     0.0371730
  H        0.5128620    -1.7280920     0.0016880
  H        2.8785440     1.9259390     0.0016350
  H       -1.5656180     1.6316590    -0.0137960
  H        3.5070680    -1.7110750    -0.8631740
  H        4.3526580    -0.4311270     0.0195620
  H        3.4969120    -1.7040060     0.9027390
  H       -3.7998370     1.1241010    -0.5010800
  H       -3.9673170     0.3343150     1.0801190
  H       -4.3271240    -0.5760050    -0.3968180
units angstrom
no_reorient  #important for SAPT in psi4, default
symmetry c1  #important for SAPT in psi4, default
}

set PROPERTIES_ORIGIN ["COM"]
properties('MP2/aug-cc-pvtz', properties = ['dipole'])
--------------------------------------------------------------------------

    Molecular point group: c1
  Charge       = 0
  Multiplicity = 1
  Basis Set: AUG-CC-PVTZ
    Blend: AUG-CC-PVTZ
  Basis Set: (AUG-CC-PVTZ AUX)
    Blend: AUG-CC-PVTZ-JKFIT

    Orbital Energies [Eh]
    ---------------------

    Doubly Occupied:

       1A    -20.621400     2A    -20.533869     3A    -15.618194
       4A    -11.370262     5A    -11.336613     6A    -11.270509
       7A    -11.249966     8A    -11.233829     9A    -11.227111
      10A    -11.214558    11A     -1.460795    12A     -1.388522
      13A     -1.254496    14A     -1.097434    15A     -1.037075
      16A     -0.986402    17A     -0.943384    18A     -0.841988
      19A     -0.791137    20A     -0.769838    21A     -0.709736
      22A     -0.682757    23A     -0.657259    24A     -0.648543
      25A     -0.620501    26A     -0.599357    27A     -0.581260
      28A     -0.571180    29A     -0.566909    30A     -0.564641
      31A     -0.541523    32A     -0.533619    33A     -0.511148
      34A     -0.453889    35A     -0.438496    36A     -0.383878
      37A     -0.292024

  @DF-RHF Final Energy:  -474.65748145824512

   => Energetics <=

    Nuclear Repulsion Energy =            509.1445898904360661
    One-Electron Energy =               -1656.3959369625715681
    Two-Electron Energy =                 672.5938656138904435
    Total Energy =                       -474.6574814582451154
  Basis Set: (AUG-CC-PVTZ AUX)
    Blend: AUG-CC-PVTZ-RI
    Molecular point group: c1

    Geometry (in Angstrom), charge = 0, multiplicity = 1:

       Center              X                  Y                   Z               Mass
    ------------   -----------------  -----------------  -----------------  -----------------
         O            0.837590950516     1.538825000825    -0.008001068662    15.994914619570
         O           -1.956041049484    -1.537433999175    -0.025595068662    15.994914619570
         N           -1.283094049484     0.646214000825    -0.017417068662    14.003074004430
         C            2.217900250516    -0.215043299175     0.007894331338    12.000000000000
         C            0.086812950516     0.399387000825    -0.006819068662    12.000000000000
         C            0.872753950516    -0.718363999175     0.002300931338    12.000000000000
         C            2.152494950516     1.124083000825     0.001764931338    12.000000000000
         C            3.468186950516    -1.072720999175     0.018614931338    12.000000000000
         C           -2.242548049484    -0.341154999175    -0.018127068662    12.000000000000
         C           -3.665343049484     0.170805000825     0.038831931338    12.000000000000
         H            0.521352950516    -1.738230999175     0.003346931338     1.007825032230
         H            2.887034950516     1.915800000825     0.003293931338     1.007825032230
         H           -1.557127049484     1.621520000825    -0.012137068662     1.007825032230
         H            3.515558950516    -1.721213999175    -0.861515068662     1.007825032230
         H            4.361148950516    -0.441265999175     0.021220931338     1.007825032230
         H            3.505402950516    -1.714144999175     0.904397931338     1.007825032230
         H           -3.791346049484     1.113962000825    -0.499421068662     1.007825032230
         H           -3.958826049484     0.324176000825     1.081777931338     1.007825032230
         H           -4.318633049484    -0.586143999175    -0.395159068662     1.007825032230

  Basis Set: AUG-CC-PVTZ
    Blend: AUG-CC-PVTZ
  Basis Set: (AUG-CC-PVTZ AUX)
    Blend: AUG-CC-PVTZ-JKFIT
	 Reference Energy          =    -474.6574814582451154 [Eh]
	 Singles Energy            =      -0.0000000000000000 [Eh]
	 Same-Spin Energy          =      -0.4891832729938647 [Eh]
	 Opposite-Spin Energy      =      -1.5229729065547974 [Eh]
	 Correlation Energy        =      -2.0121561795486622 [Eh]
	 Total Energy              =    -476.6696376377937554 [Eh]

	 ================> DF-SCS-MP2 Energies <==================
	-----------------------------------------------------------
	 SCS Same-Spin Scale       =       0.3333333333333333 [-]
	 SCS Opposite-Spin Scale   =       1.2000000000000000 [-]
	 SCS Same-Spin Energy      =      -0.1630610909979549 [Eh]
	 SCS Opposite-Spin Energy  =      -1.8275674878657568 [Eh]
	 SCS Correlation Energy    =      -1.9906285788637117 [Eh]
	 SCS Total Energy          =    -476.6481100371088360 [Eh]
	-----------------------------------------------------------

  Dipole Moment: [D]
     X:    -0.3809      Y:     2.6339      Z:     0.0949     Total:     2.6630

*** Psi4 exiting successfully. Buy a developer a beer!
