                               Psi4 1.4a3.dev225

  ==> Input File <==

--------------------------------------------------------------------------
#psi4
#
memory 32 gb

molecule  {
0 1
  O        0.8291000     1.5489640    -0.0096600
  O       -1.9645320    -1.5272950    -0.0272540
  N       -1.2915850     0.6563530    -0.0190760
  C        2.2339058    -0.2759936     0.0066699
  C        0.0783220     0.4095260    -0.0084780
  C        0.8642630    -0.7082250     0.0006420
  C        2.1440040     1.1342220     0.0001060
  C        3.4596960    -1.0625820     0.0169560
  C       -2.2510390    -0.3310160    -0.0197860
  C       -3.6738340     0.1809440     0.0371730
  H        0.5128620    -1.7280920     0.0016880
  H        2.8785440     1.9259390     0.0016350
  H       -1.5656180     1.6316590    -0.0137960
  H        3.5070680    -1.7110750    -0.8631740
  H        4.3526580    -0.4311270     0.0195620
  H        3.4969120    -1.7040060     0.9027390
  H       -3.7998370     1.1241010    -0.5010800
  H       -3.9673170     0.3343150     1.0801190
  H       -4.3271240    -0.5760050    -0.3968180
units angstrom
no_reorient  #important for SAPT in psi4, default
symmetry c1  #important for SAPT in psi4, default
}

set PROPERTIES_ORIGIN ["COM"]
properties('MP2/aug-cc-pvtz', properties = ['dipole'])
--------------------------------------------------------------------------

    Molecular point group: c1
  Charge       = 0
  Multiplicity = 1
  Basis Set: AUG-CC-PVTZ
    Blend: AUG-CC-PVTZ
  Basis Set: (AUG-CC-PVTZ AUX)
    Blend: AUG-CC-PVTZ-JKFIT

    Orbital Energies [Eh]
    ---------------------

    Doubly Occupied:

       1A    -20.625981     2A    -20.533503     3A    -15.618628
       4A    -11.370023     5A    -11.336653     6A    -11.278642
       7A    -11.249848     8A    -11.241802     9A    -11.225350
      10A    -11.216476    11A     -1.460677    12A     -1.388289
      13A     -1.254521    14A     -1.096517    15A     -1.036654
      16A     -0.989666    17A     -0.943847    18A     -0.836427
      19A     -0.792649    20A     -0.766635    21A     -0.715230
      22A     -0.682194    23A     -0.656691    24A     -0.647297
      25A     -0.620105    26A     -0.599826    27A     -0.583022
      28A     -0.572910    29A     -0.571801    30A     -0.562882
      31A     -0.551163    32A     -0.541452    33A     -0.502992
      34A     -0.453716    35A     -0.437846    36A     -0.377753
      37A     -0.283285

  @DF-RHF Final Energy:  -474.64995781376427

   => Energetics <=

    Nuclear Repulsion Energy =            508.3745433652816814
    One-Electron Energy =               -1654.8030986414855761
    Two-Electron Energy =                 671.7785974624396204
    Total Energy =                       -474.6499578137643311
  Basis Set: (AUG-CC-PVTZ AUX)
    Blend: AUG-CC-PVTZ-RI
    Molecular point group: c1

    Geometry (in Angstrom), charge = 0, multiplicity = 1:

       Center              X                  Y                   Z               Mass
    ------------   -----------------  -----------------  -----------------  -----------------
         O            0.835477107829     1.544959411737    -0.008038562371    15.994914619570
         O           -1.958154892171    -1.531299588263    -0.025632562371    15.994914619570
         N           -1.285207892171     0.652348411737    -0.017454562371    14.003074004430
         C            2.240282907829    -0.279998188263     0.008291337629    12.000000000000
         C            0.084699107829     0.405521411737    -0.006856562371    12.000000000000
         C            0.870640107829    -0.712229588263     0.002263437629    12.000000000000
         C            2.150381107829     1.130217411737     0.001727437629    12.000000000000
         C            3.466073107829    -1.066586588263     0.018577437629    12.000000000000
         C           -2.244661892171    -0.335020588263    -0.018164562371    12.000000000000
         C           -3.667456892171     0.176939411737     0.038794437629    12.000000000000
         H            0.519239107829    -1.732096588263     0.003309437629     1.007825032230
         H            2.884921107829     1.921934411737     0.003256437629     1.007825032230
         H           -1.559240892171     1.627654411737    -0.012174562371     1.007825032230
         H            3.513445107829    -1.715079588263    -0.861552562371     1.007825032230
         H            4.359035107829    -0.435131588263     0.021183437629     1.007825032230
         H            3.503289107829    -1.708010588263     0.904360437629     1.007825032230
         H           -3.793459892171     1.120096411737    -0.499458562371     1.007825032230
         H           -3.960939892171     0.330310411737     1.081740437629     1.007825032230
         H           -4.320746892171    -0.580009588263    -0.395196562371     1.007825032230

  Basis Set: AUG-CC-PVTZ
    Blend: AUG-CC-PVTZ
  Basis Set: (AUG-CC-PVTZ AUX)
    Blend: AUG-CC-PVTZ-JKFIT
	 Reference Energy          =    -474.6499578137642743 [Eh]
	 Singles Energy            =      -0.0000000000000000 [Eh]
	 Same-Spin Energy          =      -0.4910237765992663 [Eh]
	 Opposite-Spin Energy      =      -1.5259497952040482 [Eh]
	 Correlation Energy        =      -2.0169735718033146 [Eh]
	 Total Energy              =    -476.6669313855675796 [Eh]

	 ================> DF-SCS-MP2 Energies <==================
	-----------------------------------------------------------
	 SCS Same-Spin Scale       =       0.3333333333333333 [-]
	 SCS Opposite-Spin Scale   =       1.2000000000000000 [-]
	 SCS Same-Spin Energy      =      -0.1636745921997554 [Eh]
	 SCS Opposite-Spin Energy  =      -1.8311397542448578 [Eh]
	 SCS Correlation Energy    =      -1.9948143464446131 [Eh]
	 SCS Total Energy          =    -476.6447721602089018 [Eh]
	-----------------------------------------------------------

  Dipole Moment: [D]
     X:    -0.3280      Y:     2.6105      Z:     0.0951     Total:     2.6328

*** Psi4 exiting successfully. Buy a developer a beer!
