                               Psi4 1.4a3.dev225

  ==> Input File <==

--------------------------------------------------------------------------
#psi4
#
memory 32 gb

molecule  {
0 1
  O        0.8291000     1.5489640    -0.0096600
  O       -1.9645320    -1.5272950    -0.0272540
  N       -1.2915850     0.6563530    -0.0190760
  C        2.2179880    -0.2284570     0.0063820
  C        0.0783220     0.4095260    -0.0084780
  C        0.9217805    -0.7900253     0.0013094
  C        2.1440040     1.1342220     0.0001060
  C        3.4596960    -1.0625820     0.0169560
  C       -2.2510390    -0.3310160    -0.0197860
  C       -3.6738340     0.1809440     0.0371730
  H        0.5128620    -1.7280920     0.0016880
  H        2.8785440     1.9259390     0.0016350
  H       -1.5656180     1.6316590    -0.0137960
  H        3.5070680    -1.7110750    -0.8631740
  H        4.3526580    -0.4311270     0.0195620
  H        3.4969120    -1.7040060     0.9027390
  H       -3.7998370     1.1241010    -0.5010800
  H       -3.9673170     0.3343150     1.0801190
  H       -4.3271240    -0.5760050    -0.3968180
units angstrom
no_reorient  #important for SAPT in psi4, default
symmetry c1  #important for SAPT in psi4, default
}

set PROPERTIES_ORIGIN ["COM"]
properties('MP2/aug-cc-pvtz', properties = ['dipole'])
--------------------------------------------------------------------------

    Molecular point group: c1
  Charge       = 0
  Multiplicity = 1
  Basis Set: AUG-CC-PVTZ
    Blend: AUG-CC-PVTZ
  Basis Set: (AUG-CC-PVTZ AUX)
    Blend: AUG-CC-PVTZ-JKFIT

    Orbital Energies [Eh]
    ---------------------

    Doubly Occupied:

       1A    -20.630568     2A    -20.536510     3A    -15.622912
       4A    -11.372476     5A    -11.351957     6A    -11.270054
       7A    -11.251681     8A    -11.236716     9A    -11.223493
      10A    -11.221083    11A     -1.462594    12A     -1.390859
      13A     -1.257786    14A     -1.096197    15A     -1.036024
      16A     -0.977068    17A     -0.943682    18A     -0.843592
      19A     -0.790730    20A     -0.778334    21A     -0.707517
      22A     -0.684465    23A     -0.656663    24A     -0.653544
      25A     -0.621757    26A     -0.602766    27A     -0.588778
      28A     -0.572556    29A     -0.567841    30A     -0.567046
      31A     -0.543264    32A     -0.533576    33A     -0.506876
      34A     -0.454949    35A     -0.441644    36A     -0.381756
      37A     -0.277460

  @DF-RHF Final Energy:  -474.63940667801290

   => Energetics <=

    Nuclear Repulsion Energy =            507.3732338209079558
    One-Electron Energy =               -1652.7117296536998765
    Two-Electron Energy =                 670.6990891547791307
    Total Energy =                       -474.6394066780128469
  Basis Set: (AUG-CC-PVTZ AUX)
    Blend: AUG-CC-PVTZ-RI
    Molecular point group: c1

    Geometry (in Angstrom), charge = 0, multiplicity = 1:

       Center              X                  Y                   Z               Mass
    ------------   -----------------  -----------------  -----------------  -----------------
         O            0.831887402295     1.547916081941    -0.008071310041    15.994914619570
         O           -1.961744597705    -1.528342918059    -0.025665310041    15.994914619570
         N           -1.288797597705     0.655305081941    -0.017487310041    14.003074004430
         C            2.220775402295    -0.229504918059     0.007970689959    12.000000000000
         C            0.081109402295     0.408478081941    -0.006889310041    12.000000000000
         C            0.924567902295    -0.791073218059     0.002898089959    12.000000000000
         C            2.146791402295     1.133174081941     0.001694689959    12.000000000000
         C            3.462483402295    -1.063629918059     0.018544689959    12.000000000000
         C           -2.248251597705    -0.332063918059    -0.018197310041    12.000000000000
         C           -3.671046597705     0.179896081941     0.038761689959    12.000000000000
         H            0.515649402295    -1.729139918059     0.003276689959     1.007825032230
         H            2.881331402295     1.924891081941     0.003223689959     1.007825032230
         H           -1.562830597705     1.630611081941    -0.012207310041     1.007825032230
         H            3.509855402295    -1.712122918059    -0.861585310041     1.007825032230
         H            4.355445402295    -0.432174918059     0.021150689959     1.007825032230
         H            3.499699402295    -1.705053918059     0.904327689959     1.007825032230
         H           -3.797049597705     1.123053081941    -0.499491310041     1.007825032230
         H           -3.964529597705     0.333267081941     1.081707689959     1.007825032230
         H           -4.324336597705    -0.577052918059    -0.395229310041     1.007825032230

  Basis Set: AUG-CC-PVTZ
    Blend: AUG-CC-PVTZ
  Basis Set: (AUG-CC-PVTZ AUX)
    Blend: AUG-CC-PVTZ-JKFIT
	 Reference Energy          =    -474.6394066780129037 [Eh]
	 Singles Energy            =      -0.0000000000000000 [Eh]
	 Same-Spin Energy          =      -0.4916920278914811 [Eh]
	 Opposite-Spin Energy      =      -1.5269453583346213 [Eh]
	 Correlation Energy        =      -2.0186373862261022 [Eh]
	 Total Energy              =    -476.6580440642389931 [Eh]

	 ================> DF-SCS-MP2 Energies <==================
	-----------------------------------------------------------
	 SCS Same-Spin Scale       =       0.3333333333333333 [-]
	 SCS Opposite-Spin Scale   =       1.2000000000000000 [-]
	 SCS Same-Spin Energy      =      -0.1638973426304937 [Eh]
	 SCS Opposite-Spin Energy  =      -1.8323344300015454 [Eh]
	 SCS Correlation Energy    =      -1.9962317726320391 [Eh]
	 SCS Total Energy          =    -476.6356384506449331 [Eh]
	-----------------------------------------------------------

  Dipole Moment: [D]
     X:    -0.4588      Y:     2.7142      Z:     0.0937     Total:     2.7543

*** Psi4 exiting successfully. Buy a developer a beer!
