                               Psi4 1.4a3.dev225

  ==> Input File <==

--------------------------------------------------------------------------
#psi4
#
memory 32 gb

molecule  {
0 1
  O        0.8291000     1.5489640    -0.0096600
  O       -1.9645320    -1.5272950    -0.0272540
  N       -1.2915850     0.6563530    -0.0190760
  C        2.2179880    -0.2284570     0.0063820
  C        0.0783220     0.4095260    -0.0084780
  C        0.8642630    -0.7082250     0.0006420
  C        2.1440040     1.1342220     0.0001060
  C        3.4596960    -1.0625820     0.0169560
  C       -2.2510390    -0.3310160    -0.0197860
  C       -3.6738340     0.1809440     0.0371730
  H        0.5128620    -1.7280920     0.0016880
  H        2.8445370     1.8892849     0.0015642
  H       -1.5656180     1.6316590    -0.0137960
  H        3.5070680    -1.7110750    -0.8631740
  H        4.3526580    -0.4311270     0.0195620
  H        3.4969120    -1.7040060     0.9027390
  H       -3.7998370     1.1241010    -0.5010800
  H       -3.9673170     0.3343150     1.0801190
  H       -4.3271240    -0.5760050    -0.3968180
units angstrom
no_reorient  #important for SAPT in psi4, default
symmetry c1  #important for SAPT in psi4, default
}

set PROPERTIES_ORIGIN ["COM"]
properties('MP2/aug-cc-pvtz', properties = ['dipole'])
--------------------------------------------------------------------------

    Molecular point group: c1
  Charge       = 0
  Multiplicity = 1
  Basis Set: AUG-CC-PVTZ
    Blend: AUG-CC-PVTZ
  Basis Set: (AUG-CC-PVTZ AUX)
    Blend: AUG-CC-PVTZ-JKFIT

    Orbital Energies [Eh]
    ---------------------

    Doubly Occupied:

       1A    -20.622504     2A    -20.533709     3A    -15.618272
       4A    -11.370139     5A    -11.336520     6A    -11.267684
       7A    -11.249900     8A    -11.236271     9A    -11.226574
      10A    -11.214886    11A     -1.460393    12A     -1.388398
      13A     -1.254458    14A     -1.096675    15A     -1.037242
      16A     -0.987974    17A     -0.945262    18A     -0.841055
      19A     -0.795115    20A     -0.769152    21A     -0.711454
      22A     -0.684913    23A     -0.656829    24A     -0.652200
      25A     -0.620249    26A     -0.599902    27A     -0.584772
      28A     -0.571753    29A     -0.568817    30A     -0.563966
      31A     -0.541443    32A     -0.538565    33A     -0.510722
      34A     -0.453742    35A     -0.438257    36A     -0.381453
      37A     -0.289160

  @DF-RHF Final Energy:  -474.65599288089038

   => Energetics <=

    Nuclear Repulsion Energy =            509.1532491017036932
    One-Electron Energy =               -1656.3777285870926335
    Two-Electron Energy =                 672.5684866044985029
    Total Energy =                       -474.6559928808903805
  Basis Set: (AUG-CC-PVTZ AUX)
    Blend: AUG-CC-PVTZ-RI
    Molecular point group: c1

    Geometry (in Angstrom), charge = 0, multiplicity = 1:

       Center              X                  Y                   Z               Mass
    ------------   -----------------  -----------------  -----------------  -----------------
         O            0.837097137410     1.541123042465    -0.008013205909    15.994914619570
         O           -1.956534862590    -1.535135957535    -0.025607205909    15.994914619570
         N           -1.283587862590     0.648512042465    -0.017429205909    14.003074004430
         C            2.225985137410    -0.236297957535     0.008028794091    12.000000000000
         C            0.086319137410     0.401685042465    -0.006831205909    12.000000000000
         C            0.872260137410    -0.716065957535     0.002288794091    12.000000000000
         C            2.152001137410     1.126381042465     0.001752794091    12.000000000000
         C            3.467693137410    -1.070422957535     0.018602794091    12.000000000000
         C           -2.243041862590    -0.338856957535    -0.018139205909    12.000000000000
         C           -3.665836862590     0.173103042465     0.038819794091    12.000000000000
         H            0.520859137410    -1.735932957535     0.003334794091     1.007825032230
         H            2.852534137410     1.881443942465     0.003210994091     1.007825032230
         H           -1.557620862590     1.623818042465    -0.012149205909     1.007825032230
         H            3.515065137410    -1.718915957535    -0.861527205909     1.007825032230
         H            4.360655137410    -0.438967957535     0.021208794091     1.007825032230
         H            3.504909137410    -1.711846957535     0.904385794091     1.007825032230
         H           -3.791839862590     1.116260042465    -0.499433205909     1.007825032230
         H           -3.959319862590     0.326474042465     1.081765794091     1.007825032230
         H           -4.319126862590    -0.583845957535    -0.395171205909     1.007825032230

  Basis Set: AUG-CC-PVTZ
    Blend: AUG-CC-PVTZ
  Basis Set: (AUG-CC-PVTZ AUX)
    Blend: AUG-CC-PVTZ-JKFIT
	 Reference Energy          =    -474.6559928808903805 [Eh]
	 Singles Energy            =      -0.0000000000000000 [Eh]
	 Same-Spin Energy          =      -0.4896254818216829 [Eh]
	 Opposite-Spin Energy      =      -1.5234944332019811 [Eh]
	 Correlation Energy        =      -2.0131199150236641 [Eh]
	 Total Energy              =    -476.6691127959140317 [Eh]

	 ================> DF-SCS-MP2 Energies <==================
	-----------------------------------------------------------
	 SCS Same-Spin Scale       =       0.3333333333333333 [-]
	 SCS Opposite-Spin Scale   =       1.2000000000000000 [-]
	 SCS Same-Spin Energy      =      -0.1632084939405609 [Eh]
	 SCS Opposite-Spin Energy  =      -1.8281933198423772 [Eh]
	 SCS Correlation Energy    =      -1.9914018137829381 [Eh]
	 SCS Total Energy          =    -476.6473946946733236 [Eh]
	-----------------------------------------------------------

  Dipole Moment: [D]
     X:    -0.3643      Y:     2.6205      Z:     0.0950     Total:     2.6474

*** Psi4 exiting successfully. Buy a developer a beer!
