                               Psi4 1.4a3.dev225

  ==> Input File <==

--------------------------------------------------------------------------
#psi4
#
memory 32 gb

molecule  {
0 1
  O        0.8291000     1.5489640    -0.0096600
  O       -1.9645320    -1.5272950    -0.0272540
  N       -1.2915850     0.6563530    -0.0190760
  C        2.1812260    -0.1351947     0.0057856
  C        0.0783220     0.4095260    -0.0084780
  C        0.8642630    -0.7082250     0.0006420
  C        2.1440040     1.1342220     0.0001060
  C        3.4596960    -1.0625820     0.0169560
  C       -2.2510390    -0.3310160    -0.0197860
  C       -3.6738340     0.1809440     0.0371730
  H        0.5128620    -1.7280920     0.0016880
  H        2.8785440     1.9259390     0.0016350
  H       -1.5656180     1.6316590    -0.0137960
  H        3.5070680    -1.7110750    -0.8631740
  H        4.3526580    -0.4311270     0.0195620
  H        3.4969120    -1.7040060     0.9027390
  H       -3.7998370     1.1241010    -0.5010800
  H       -3.9673170     0.3343150     1.0801190
  H       -4.3271240    -0.5760050    -0.3968180
units angstrom
no_reorient  #important for SAPT in psi4, default
symmetry c1  #important for SAPT in psi4, default
}

set PROPERTIES_ORIGIN ["COM"]
properties('MP2/aug-cc-pvtz', properties = ['dipole'])
--------------------------------------------------------------------------

    Molecular point group: c1
  Charge       = 0
  Multiplicity = 1
  Basis Set: AUG-CC-PVTZ
    Blend: AUG-CC-PVTZ
  Basis Set: (AUG-CC-PVTZ AUX)
    Blend: AUG-CC-PVTZ-JKFIT

    Orbital Energies [Eh]
    ---------------------

    Doubly Occupied:

       1A    -20.616662     2A    -20.534193     3A    -15.617731
       4A    -11.370465     5A    -11.336617     6A    -11.261100
       7A    -11.250060     8A    -11.228813     9A    -11.225766
      10A    -11.213273    11A     -1.461503    12A     -1.388737
      13A     -1.254519    14A     -1.101156    15A     -1.038183
      16A     -0.986518    17A     -0.940244    18A     -0.847473
      19A     -0.789818    20A     -0.772242    21A     -0.704018
      22A     -0.683249    23A     -0.658258    24A     -0.649847
      25A     -0.621090    26A     -0.599165    27A     -0.583499
      28A     -0.570743    29A     -0.565930    30A     -0.561864
      31A     -0.541581    32A     -0.530054    33A     -0.497824
      34A     -0.454230    35A     -0.438966    36A     -0.391607
      37A     -0.299966

  @DF-RHF Final Energy:  -474.64695901396362

   => Energetics <=

    Nuclear Repulsion Energy =            510.0477454023913992
    One-Electron Energy =               -1658.2154839167444607
    Two-Electron Energy =                 673.5207795003893807
    Total Energy =                       -474.6469590139636239
  Basis Set: (AUG-CC-PVTZ AUX)
    Blend: AUG-CC-PVTZ-RI
    Molecular point group: c1

    Geometry (in Angstrom), charge = 0, multiplicity = 1:

       Center              X                  Y                   Z               Mass
    ------------   -----------------  -----------------  -----------------  -----------------
         O            0.840022933150     1.532809646462    -0.007962254691    15.994914619570
         O           -1.953609066850    -1.543449353538    -0.025556254691    15.994914619570
         N           -1.280662066850     0.640198646462    -0.017378254691    14.003074004430
         C            2.192148933150    -0.151349053538     0.007483345309    12.000000000000
         C            0.089244933150     0.393371646462    -0.006780254691    12.000000000000
         C            0.875185933150    -0.724379353538     0.002339745309    12.000000000000
         C            2.154926933150     1.118067646462     0.001803745309    12.000000000000
         C            3.470618933150    -1.078736353538     0.018653745309    12.000000000000
         C           -2.240116066850    -0.347170353538    -0.018088254691    12.000000000000
         C           -3.662911066850     0.164789646462     0.038870745309    12.000000000000
         H            0.523784933150    -1.744246353538     0.003385745309     1.007825032230
         H            2.889466933150     1.909784646462     0.003332745309     1.007825032230
         H           -1.554695066850     1.615504646462    -0.012098254691     1.007825032230
         H            3.517990933150    -1.727229353538    -0.861476254691     1.007825032230
         H            4.363580933150    -0.447281353538     0.021259745309     1.007825032230
         H            3.507834933150    -1.720160353538     0.904436745309     1.007825032230
         H           -3.788914066850     1.107946646462    -0.499382254691     1.007825032230
         H           -3.956394066850     0.318160646462     1.081816745309     1.007825032230
         H           -4.316201066850    -0.592159353538    -0.395120254691     1.007825032230

  Basis Set: AUG-CC-PVTZ
    Blend: AUG-CC-PVTZ
  Basis Set: (AUG-CC-PVTZ AUX)
    Blend: AUG-CC-PVTZ-JKFIT
	 Reference Energy          =    -474.6469590139636239 [Eh]
	 Singles Energy            =      -0.0000000000000000 [Eh]
	 Same-Spin Energy          =      -0.4879369042184976 [Eh]
	 Opposite-Spin Energy      =      -1.5209949206772864 [Eh]
	 Correlation Energy        =      -2.0089318248957841 [Eh]
	 Total Energy              =    -476.6558908388594205 [Eh]

	 ================> DF-SCS-MP2 Energies <==================
	-----------------------------------------------------------
	 SCS Same-Spin Scale       =       0.3333333333333333 [-]
	 SCS Opposite-Spin Scale   =       1.2000000000000000 [-]
	 SCS Same-Spin Energy      =      -0.1626456347394992 [Eh]
	 SCS Opposite-Spin Energy  =      -1.8251939048127435 [Eh]
	 SCS Correlation Energy    =      -1.9878395395522426 [Eh]
	 SCS Total Energy          =    -476.6347985535158500 [Eh]
	-----------------------------------------------------------

  Dipole Moment: [D]
     X:    -0.4246      Y:     2.6531      Z:     0.0949     Total:     2.6886

*** Psi4 exiting successfully. Buy a developer a beer!
