                               Psi4 1.4a3.dev225

  ==> Input File <==

--------------------------------------------------------------------------
#psi4
#
memory 32 gb

molecule  {
0 1
  O        0.8291000     1.5489640    -0.0096600
  O       -1.9645320    -1.5272950    -0.0272540
  N       -1.2915850     0.6563530    -0.0190760
  C        2.2179880    -0.2284570     0.0063820
  C        0.0783220     0.4095260    -0.0084780
  C        0.8642630    -0.7082250     0.0006420
  C        2.1440040     1.1342220     0.0001060
  C        3.4596960    -1.0625820     0.0169560
  C       -2.2510390    -0.3310160    -0.0197860
  C       -3.6738340     0.1809440     0.0371730
  H        0.5128620    -1.7280920     0.0016880
  H        2.8785440     1.9259390     0.0016350
  H       -1.5656180     1.6316590    -0.0137960
  H        3.5070680    -1.7110750    -0.8631740
  H        4.3526580    -0.4311270     0.0195620
  H        3.4986125    -1.7333144     0.9432128
  H       -3.7998370     1.1241010    -0.5010800
  H       -3.9673170     0.3343150     1.0801190
  H       -4.3271240    -0.5760050    -0.3968180
units angstrom
no_reorient  #important for SAPT in psi4, default
symmetry c1  #important for SAPT in psi4, default
}

set PROPERTIES_ORIGIN ["COM"]
properties('MP2/aug-cc-pvtz', properties = ['dipole'])
--------------------------------------------------------------------------

    Molecular point group: c1
  Charge       = 0
  Multiplicity = 1
  Basis Set: AUG-CC-PVTZ
    Blend: AUG-CC-PVTZ
  Basis Set: (AUG-CC-PVTZ AUX)
    Blend: AUG-CC-PVTZ-JKFIT

    Orbital Energies [Eh]
    ---------------------

    Doubly Occupied:

       1A    -20.623227     2A    -20.533833     3A    -15.618454
       4A    -11.370270     5A    -11.336796     6A    -11.273865
       7A    -11.249992     8A    -11.236987     9A    -11.232433
      10A    -11.215267    11A     -1.460976    12A     -1.388531
      13A     -1.254622    14A     -1.096630    15A     -1.036903
      16A     -0.986441    17A     -0.941240    18A     -0.839912
      19A     -0.791561    20A     -0.768959    21A     -0.711124
      22A     -0.682682    23A     -0.657157    24A     -0.648171
      25A     -0.620372    26A     -0.599567    27A     -0.581287
      28A     -0.571430    29A     -0.564146    30A     -0.562204
      31A     -0.541541    32A     -0.537676    33A     -0.509302
      34A     -0.453922    35A     -0.438382    36A     -0.381296
      37A     -0.289376

  @DF-RHF Final Energy:  -474.65476637282251

   => Energetics <=

    Nuclear Repulsion Energy =            508.6671777818532973
    One-Electron Energy =               -1655.4308219686313350
    Two-Electron Energy =                 672.1088778139555870
    Total Energy =                       -474.6547663728224506
  Basis Set: (AUG-CC-PVTZ AUX)
    Blend: AUG-CC-PVTZ-RI
    Molecular point group: c1

    Geometry (in Angstrom), charge = 0, multiplicity = 1:

       Center              X                  Y                   Z               Mass
    ------------   -----------------  -----------------  -----------------  -----------------
         O            0.836838356661     1.541069806429    -0.008307042273    15.994914619570
         O           -1.956793643339    -1.535189193571    -0.025901042273    15.994914619570
         N           -1.283846643339     0.648458806429    -0.017723042273    14.003074004430
         C            2.225726356661    -0.236351193571     0.007734957727    12.000000000000
         C            0.086060356661     0.401631806429    -0.007125042273    12.000000000000
         C            0.872001356661    -0.716119193571     0.001994957727    12.000000000000
         C            2.151742356661     1.126327806429     0.001458957727    12.000000000000
         C            3.467434356661    -1.070476193571     0.018308957727    12.000000000000
         C           -2.243300643339    -0.338910193571    -0.018433042273    12.000000000000
         C           -3.666095643339     0.173049806429     0.038525957727    12.000000000000
         H            0.520600356661    -1.735986193571     0.003040957727     1.007825032230
         H            2.886282356661     1.918044806429     0.002987957727     1.007825032230
         H           -1.557879643339     1.623764806429    -0.012443042273     1.007825032230
         H            3.514806356661    -1.718969193571    -0.861821042273     1.007825032230
         H            4.360396356661    -0.439021193571     0.020914957727     1.007825032230
         H            3.506350856661    -1.741208593571     0.944565757727     1.007825032230
         H           -3.792098643339     1.116206806429    -0.499727042273     1.007825032230
         H           -3.959578643339     0.326420806429     1.081471957727     1.007825032230
         H           -4.319385643339    -0.583899193571    -0.395465042273     1.007825032230

  Basis Set: AUG-CC-PVTZ
    Blend: AUG-CC-PVTZ
  Basis Set: (AUG-CC-PVTZ AUX)
    Blend: AUG-CC-PVTZ-JKFIT
	 Reference Energy          =    -474.6547663728225075 [Eh]
	 Singles Energy            =      -0.0000000000000000 [Eh]
	 Same-Spin Energy          =      -0.4897133026388565 [Eh]
	 Opposite-Spin Energy      =      -1.5241577779288893 [Eh]
	 Correlation Energy        =      -2.0138710805677458 [Eh]
	 Total Energy              =    -476.6686374533902608 [Eh]

	 ================> DF-SCS-MP2 Energies <==================
	-----------------------------------------------------------
	 SCS Same-Spin Scale       =       0.3333333333333333 [-]
	 SCS Opposite-Spin Scale   =       1.2000000000000000 [-]
	 SCS Same-Spin Energy      =      -0.1632377675462855 [Eh]
	 SCS Opposite-Spin Energy  =      -1.8289893335146670 [Eh]
	 SCS Correlation Energy    =      -1.9922271010609525 [Eh]
	 SCS Total Energy          =    -476.6469934738834695 [Eh]
	-----------------------------------------------------------

  Dipole Moment: [D]
     X:    -0.3815      Y:     2.6488      Z:     0.0784     Total:     2.6773

*** Psi4 exiting successfully. Buy a developer a beer!
