                               Psi4 1.4a3.dev225

  ==> Input File <==

--------------------------------------------------------------------------
#psi4
#
memory 32 gb

molecule  {
0 1
  O        0.8291000     1.5489640    -0.0096600
  O       -1.9645320    -1.5272950    -0.0272540
  N       -1.2915850     0.6563530    -0.0190760
  C        2.2179880    -0.2284570     0.0063820
  C        0.0783220     0.4095260    -0.0084780
  C        0.8215332    -0.5640941    -0.0002028
  C        2.1440040     1.1342220     0.0001060
  C        3.4596960    -1.0625820     0.0169560
  C       -2.2510390    -0.3310160    -0.0197860
  C       -3.6738340     0.1809440     0.0371730
  H        0.5128620    -1.7280920     0.0016880
  H        2.8785440     1.9259390     0.0016350
  H       -1.5656180     1.6316590    -0.0137960
  H        3.5070680    -1.7110750    -0.8631740
  H        4.3526580    -0.4311270     0.0195620
  H        3.4969120    -1.7040060     0.9027390
  H       -3.7998370     1.1241010    -0.5010800
  H       -3.9673170     0.3343150     1.0801190
  H       -4.3271240    -0.5760050    -0.3968180
units angstrom
no_reorient  #important for SAPT in psi4, default
symmetry c1  #important for SAPT in psi4, default
}

set PROPERTIES_ORIGIN ["COM"]
properties('MP2/aug-cc-pvtz', properties = ['dipole'])
--------------------------------------------------------------------------

    Molecular point group: c1
  Charge       = 0
  Multiplicity = 1
  Basis Set: AUG-CC-PVTZ
    Blend: AUG-CC-PVTZ
  Basis Set: (AUG-CC-PVTZ AUX)
    Blend: AUG-CC-PVTZ-JKFIT

    Orbital Energies [Eh]
    ---------------------

    Doubly Occupied:

       1A    -20.611941     2A    -20.530326     3A    -15.613460
       4A    -11.367771     5A    -11.310218     6A    -11.277282
       7A    -11.248025     8A    -11.235157     9A    -11.231222
      10A    -11.205482    11A     -1.461009    12A     -1.385542
      13A     -1.250907    14A     -1.106946    15A     -1.042608
      16A     -1.001625    17A     -0.944749    18A     -0.838191
      19A     -0.798008    20A     -0.752930    21A     -0.718847
      22A     -0.679828    23A     -0.660816    24A     -0.646111
      25A     -0.619202    26A     -0.596757    27A     -0.582611
      28A     -0.570905    29A     -0.568545    30A     -0.556287
      31A     -0.539549    32A     -0.532044    33A     -0.498160
      34A     -0.454191    35A     -0.432092    36A     -0.389166
      37A     -0.304811

  @DF-RHF Final Energy:  -474.62470311830361

   => Energetics <=

    Nuclear Repulsion Energy =            511.7063493830983134
    One-Electron Energy =               -1661.5354652188013915
    Two-Electron Energy =                 675.2044127173994639
    Total Energy =                       -474.6247031183036142
  Basis Set: (AUG-CC-PVTZ AUX)
    Blend: AUG-CC-PVTZ-RI
    Molecular point group: c1

    Geometry (in Angstrom), charge = 0, multiplicity = 1:

       Center              X                  Y                   Z               Mass
    ------------   -----------------  -----------------  -----------------  -----------------
         O            0.840537904284     1.528420112525    -0.007940819853    15.994914619570
         O           -1.953094095716    -1.547838887475    -0.025534819853    15.994914619570
         N           -1.280147095716     0.635809112525    -0.017356819853    14.003074004430
         C            2.229425904284    -0.249000887475     0.008101180147    12.000000000000
         C            0.089759904284     0.388982112525    -0.006758819853    12.000000000000
         C            0.832971104284    -0.584637987475     0.001516380147    12.000000000000
         C            2.155441904284     1.113678112525     0.001825180147    12.000000000000
         C            3.471133904284    -1.083125887475     0.018675180147    12.000000000000
         C           -2.239601095716    -0.351559887475    -0.018066819853    12.000000000000
         C           -3.662396095716     0.160400112525     0.038892180147    12.000000000000
         H            0.524299904284    -1.748635887475     0.003407180147     1.007825032230
         H            2.889981904284     1.905395112525     0.003354180147     1.007825032230
         H           -1.554180095716     1.611115112525    -0.012076819853     1.007825032230
         H            3.518505904284    -1.731618887475    -0.861454819853     1.007825032230
         H            4.364095904284    -0.451670887475     0.021281180147     1.007825032230
         H            3.508349904284    -1.724549887475     0.904458180147     1.007825032230
         H           -3.788399095716     1.103557112525    -0.499360819853     1.007825032230
         H           -3.955879095716     0.313771112525     1.081838180147     1.007825032230
         H           -4.315686095716    -0.596548887475    -0.395098819853     1.007825032230

  Basis Set: AUG-CC-PVTZ
    Blend: AUG-CC-PVTZ
  Basis Set: (AUG-CC-PVTZ AUX)
    Blend: AUG-CC-PVTZ-JKFIT
	 Reference Energy          =    -474.6247031183036142 [Eh]
	 Singles Energy            =      -0.0000000000000000 [Eh]
	 Same-Spin Energy          =      -0.4884667665555616 [Eh]
	 Opposite-Spin Energy      =      -1.5218267124786877 [Eh]
	 Correlation Energy        =      -2.0102934790342495 [Eh]
	 Total Energy              =    -476.6349965973378744 [Eh]

	 ================> DF-SCS-MP2 Energies <==================
	-----------------------------------------------------------
	 SCS Same-Spin Scale       =       0.3333333333333333 [-]
	 SCS Opposite-Spin Scale   =       1.2000000000000000 [-]
	 SCS Same-Spin Energy      =      -0.1628222555185205 [Eh]
	 SCS Opposite-Spin Energy  =      -1.8261920549744253 [Eh]
	 SCS Correlation Energy    =      -1.9890143104929459 [Eh]
	 SCS Total Energy          =    -476.6137174287965763 [Eh]
	-----------------------------------------------------------

  Dipole Moment: [D]
     X:    -0.1673      Y:     2.4980      Z:     0.0973     Total:     2.5055

*** Psi4 exiting successfully. Buy a developer a beer!
