                               Psi4 1.4a3.dev225

  ==> Input File <==

--------------------------------------------------------------------------
#psi4
#
memory 32 gb

molecule  {
0 1
  O        0.8291000     1.5489640    -0.0096600
  O       -1.9645320    -1.5272950    -0.0272540
  N       -1.2915850     0.6563530    -0.0190760
  C        2.2179880    -0.2284570     0.0063820
  C        0.0783220     0.4095260    -0.0084780
  C        0.8642630    -0.7082250     0.0006420
  C        2.1440040     1.1342220     0.0001060
  C        3.4596960    -1.0625820     0.0169560
  C       -2.2510390    -0.3310160    -0.0197860
  C       -3.6738340     0.1809440     0.0371730
  H        0.5128620    -1.7280920     0.0016880
  H        2.8785440     1.9259390     0.0016350
  H       -1.5656180     1.6316590    -0.0137960
  H        3.5070680    -1.7110750    -0.8631740
  H        4.3526580    -0.4311270     0.0195620
  H        3.4969120    -1.7040060     0.9027390
  H       -3.7998370     1.1241010    -0.5010800
  H       -3.9673170     0.3343150     1.0801190
  H       -4.4469933    -0.7148943    -0.4764491
units angstrom
no_reorient  #important for SAPT in psi4, default
symmetry c1  #important for SAPT in psi4, default
}

set PROPERTIES_ORIGIN ["COM"]
properties('MP2/aug-cc-pvtz', properties = ['dipole'])
--------------------------------------------------------------------------

    Molecular point group: c1
  Charge       = 0
  Multiplicity = 1
  Basis Set: AUG-CC-PVTZ
    Blend: AUG-CC-PVTZ
  Basis Set: (AUG-CC-PVTZ AUX)
    Blend: AUG-CC-PVTZ-JKFIT

    Orbital Energies [Eh]
    ---------------------

    Doubly Occupied:

       1A    -20.623527     2A    -20.533678     3A    -15.619758
       4A    -11.371646     5A    -11.337320     6A    -11.273903
       7A    -11.270552     8A    -11.236935     9A    -11.226827
      10A    -11.215732    11A     -1.461283    12A     -1.388534
      13A     -1.255508    14A     -1.097266    15A     -1.032107
      16A     -0.982820    17A     -0.942547    18A     -0.837602
      19A     -0.791227    20A     -0.769186    21A     -0.711862
      22A     -0.683399    23A     -0.657563    24A     -0.646394
      25A     -0.619358    26A     -0.600251    27A     -0.581189
      28A     -0.569304    29A     -0.565998    30A     -0.549739
      31A     -0.539178    32A     -0.521925    33A     -0.510246
      34A     -0.453823    35A     -0.439032    36A     -0.382125
      37A     -0.289772

  @DF-RHF Final Energy:  -474.63591577505360

   => Energetics <=

    Nuclear Repulsion Energy =            508.0686338675549791
    One-Electron Energy =               -1654.2308632123354073
    Two-Electron Energy =                 671.5263135697267671
    Total Energy =                       -474.6359157750536042
  Basis Set: (AUG-CC-PVTZ AUX)
    Blend: AUG-CC-PVTZ-RI
    Molecular point group: c1

    Geometry (in Angstrom), charge = 0, multiplicity = 1:

       Center              X                  Y                   Z               Mass
    ------------   -----------------  -----------------  -----------------  -----------------
         O            0.837719401930     1.541863965286    -0.007436613484    15.994914619570
         O           -1.955912598070    -1.534395034714    -0.025030613484    15.994914619570
         N           -1.282965598070     0.649252965286    -0.016852613484    14.003074004430
         C            2.226607401930    -0.235557034714     0.008605386516    12.000000000000
         C            0.086941401930     0.402425965286    -0.006254613484    12.000000000000
         C            0.872882401930    -0.715325034714     0.002865386516    12.000000000000
         C            2.152623401930     1.127121965286     0.002329386516    12.000000000000
         C            3.468315401930    -1.069682034714     0.019179386516    12.000000000000
         C           -2.242419598070    -0.338116034714    -0.017562613484    12.000000000000
         C           -3.665214598070     0.173843965286     0.039396386516    12.000000000000
         H            0.521481401930    -1.735192034714     0.003911386516     1.007825032230
         H            2.887163401930     1.918838965286     0.003858386516     1.007825032230
         H           -1.556998598070     1.624558965286    -0.011572613484     1.007825032230
         H            3.515687401930    -1.718175034714    -0.860950613484     1.007825032230
         H            4.361277401930    -0.438227034714     0.021785386516     1.007825032230
         H            3.505531401930    -1.711106034714     0.904962386516     1.007825032230
         H           -3.791217598070     1.117000965286    -0.498856613484     1.007825032230
         H           -3.958697598070     0.327214965286     1.082342386516     1.007825032230
         H           -4.438373898070    -0.721994334714    -0.474225713484     1.007825032230

  Basis Set: AUG-CC-PVTZ
    Blend: AUG-CC-PVTZ
  Basis Set: (AUG-CC-PVTZ AUX)
    Blend: AUG-CC-PVTZ-JKFIT
	 Reference Energy          =    -474.6359157750536042 [Eh]
	 Singles Energy            =      -0.0000000000000000 [Eh]
	 Same-Spin Energy          =      -0.4898288914080124 [Eh]
	 Opposite-Spin Energy      =      -1.5255907617683593 [Eh]
	 Correlation Energy        =      -2.0154196531763717 [Eh]
	 Total Energy              =    -476.6513354282299701 [Eh]

	 ================> DF-SCS-MP2 Energies <==================
	-----------------------------------------------------------
	 SCS Same-Spin Scale       =       0.3333333333333333 [-]
	 SCS Opposite-Spin Scale   =       1.2000000000000000 [-]
	 SCS Same-Spin Energy      =      -0.1632762971360041 [Eh]
	 SCS Opposite-Spin Energy  =      -1.8307089141220310 [Eh]
	 SCS Correlation Energy    =      -1.9939852112580352 [Eh]
	 SCS Total Energy          =    -476.6299009863116112 [Eh]
	-----------------------------------------------------------

  Dipole Moment: [D]
     X:    -0.2914      Y:     2.6363      Z:     0.1098     Total:     2.6546

*** Psi4 exiting successfully. Buy a developer a beer!
