                               Psi4 1.4a3.dev225

  ==> Input File <==

--------------------------------------------------------------------------
#psi4
#
memory 32 gb

molecule  {
0 1
  O        0.8291000     1.5489640    -0.0096600
  O       -1.9645320    -1.5272950    -0.0272540
  N       -1.2915850     0.6563530    -0.0190760
  C        2.2179880    -0.2284570     0.0063820
  C        0.0783220     0.4095260    -0.0084780
  C        0.8642630    -0.7082250     0.0006420
  C        2.1440040     1.1342220     0.0001060
  C        3.4596960    -1.0625820     0.0169560
  C       -2.2510390    -0.3310160    -0.0197860
  C       -3.6738340     0.1809440     0.0371730
  H        0.5128620    -1.7280920     0.0016880
  H        2.8785440     1.9259390     0.0016350
  H       -1.5656180     1.6316590    -0.0137960
  H        3.5070680    -1.7110750    -0.8631740
  H        4.3526580    -0.4311270     0.0195620
  H        3.4969120    -1.7040060     0.9027390
  H       -3.7998370     1.1241010    -0.5010800
  H       -3.9673170     0.3343150     1.0801190
  H       -4.2971567    -0.5412827    -0.3769102
units angstrom
no_reorient  #important for SAPT in psi4, default
symmetry c1  #important for SAPT in psi4, default
}

set PROPERTIES_ORIGIN ["COM"]
properties('MP2/aug-cc-pvtz', properties = ['dipole'])
--------------------------------------------------------------------------

    Molecular point group: c1
  Charge       = 0
  Multiplicity = 1
  Basis Set: AUG-CC-PVTZ
    Blend: AUG-CC-PVTZ
  Basis Set: (AUG-CC-PVTZ AUX)
    Blend: AUG-CC-PVTZ-JKFIT

    Orbital Energies [Eh]
    ---------------------

    Doubly Occupied:

       1A    -20.622856     2A    -20.533853     3A    -15.618080
       4A    -11.369944     5A    -11.336502     6A    -11.273296
       7A    -11.244302     8A    -11.236429     9A    -11.226466
      10A    -11.215027    11A     -1.460608    12A     -1.388507
      13A     -1.254328    14A     -1.096720    15A     -1.039257
      16A     -0.988741    17A     -0.944266    18A     -0.841141
      19A     -0.791884    20A     -0.768867    21A     -0.711647
      22A     -0.682549    23A     -0.657069    24A     -0.649113
      25A     -0.621355    26A     -0.599439    27A     -0.583318
      28A     -0.577283    29A     -0.568780    30A     -0.564550
      31A     -0.542202    32A     -0.538652    33A     -0.509963
      34A     -0.453846    35A     -0.438206    36A     -0.381584
      37A     -0.289089

  @DF-RHF Final Energy:  -474.65583342840921

   => Energetics <=

    Nuclear Repulsion Energy =            509.1051309828366129
    One-Electron Energy =               -1656.2824886608616453
    Two-Electron Energy =                 672.5215242496159362
    Total Energy =                       -474.6558334284092098
  Basis Set: (AUG-CC-PVTZ AUX)
    Blend: AUG-CC-PVTZ-RI
    Molecular point group: c1

    Geometry (in Angstrom), charge = 0, multiplicity = 1:

       Center              X                  Y                   Z               Mass
    ------------   -----------------  -----------------  -----------------  -----------------
         O            0.836633500436     1.540605760710    -0.008157995577    15.994914619570
         O           -1.956998499564    -1.535653239290    -0.025751995577    15.994914619570
         N           -1.284051499564     0.647994760710    -0.017573995577    14.003074004430
         C            2.225521500436    -0.236815239290     0.007884004423    12.000000000000
         C            0.085855500436     0.401167760710    -0.006975995577    12.000000000000
         C            0.871796500436    -0.716583239290     0.002144004423    12.000000000000
         C            2.151537500436     1.125863760710     0.001608004423    12.000000000000
         C            3.467229500436    -1.070940239290     0.018458004423    12.000000000000
         C           -2.243505499564    -0.339374239290    -0.018283995577    12.000000000000
         C           -3.666300499564     0.172585760710     0.038675004423    12.000000000000
         H            0.520395500436    -1.736450239290     0.003190004423     1.007825032230
         H            2.886077500436     1.917580760710     0.003137004423     1.007825032230
         H           -1.558084499564     1.623300760710    -0.012293995577     1.007825032230
         H            3.514601500436    -1.719433239290    -0.861671995577     1.007825032230
         H            4.360191500436    -0.439485239290     0.021064004423     1.007825032230
         H            3.504445500436    -1.712364239290     0.904241004423     1.007825032230
         H           -3.792303499564     1.115742760710    -0.499577995577     1.007825032230
         H           -3.959783499564     0.325956760710     1.081621004423     1.007825032230
         H           -4.289623199564    -0.549640939290    -0.375408195577     1.007825032230

  Basis Set: AUG-CC-PVTZ
    Blend: AUG-CC-PVTZ
  Basis Set: (AUG-CC-PVTZ AUX)
    Blend: AUG-CC-PVTZ-JKFIT
	 Reference Energy          =    -474.6558334284092098 [Eh]
	 Singles Energy            =      -0.0000000000000000 [Eh]
	 Same-Spin Energy          =      -0.4897290804608488 [Eh]
	 Opposite-Spin Energy      =      -1.5235724343575154 [Eh]
	 Correlation Energy        =      -2.0133015148183642 [Eh]
	 Total Energy              =    -476.6691349432275615 [Eh]

	 ================> DF-SCS-MP2 Energies <==================
	-----------------------------------------------------------
	 SCS Same-Spin Scale       =       0.3333333333333333 [-]
	 SCS Opposite-Spin Scale   =       1.2000000000000000 [-]
	 SCS Same-Spin Energy      =      -0.1632430268202829 [Eh]
	 SCS Opposite-Spin Energy  =      -1.8282869212290185 [Eh]
	 SCS Correlation Energy    =      -1.9915299480493014 [Eh]
	 SCS Total Energy          =    -476.6473633764584861 [Eh]
	-----------------------------------------------------------

  Dipole Moment: [D]
     X:    -0.3762      Y:     2.6271      Z:     0.0934     Total:     2.6555

*** Psi4 exiting successfully. Buy a developer a beer!
