                               Psi4 1.4a3.dev225

  ==> Input File <==

--------------------------------------------------------------------------
#psi4
#
memory 32 gb

molecule  {
0 1
  O        0.8291000     1.5489640    -0.0096600
  O       -1.9645320    -1.5272950    -0.0272540
  N       -1.2915850     0.6563530    -0.0190760
  C        2.2179880    -0.2284570     0.0063820
  C        0.0783220     0.4095260    -0.0084780
  C        0.8340962    -0.6126253     0.0000712
  C        2.1440040     1.1342220     0.0001060
  C        3.4596960    -1.0625820     0.0169560
  C       -2.2510390    -0.3310160    -0.0197860
  C       -3.6738340     0.1809440     0.0371730
  H        0.5128620    -1.7280920     0.0016880
  H        2.8785440     1.9259390     0.0016350
  H       -1.5656180     1.6316590    -0.0137960
  H        3.5070680    -1.7110750    -0.8631740
  H        4.3526580    -0.4311270     0.0195620
  H        3.4969120    -1.7040060     0.9027390
  H       -3.7998370     1.1241010    -0.5010800
  H       -3.9673170     0.3343150     1.0801190
  H       -4.3271240    -0.5760050    -0.3968180
units angstrom
no_reorient  #important for SAPT in psi4, default
symmetry c1  #important for SAPT in psi4, default
}

set PROPERTIES_ORIGIN ["COM"]
properties('MP2/aug-cc-pvtz', properties = ['dipole'])
--------------------------------------------------------------------------

    Molecular point group: c1
  Charge       = 0
  Multiplicity = 1
  Basis Set: AUG-CC-PVTZ
    Blend: AUG-CC-PVTZ
  Basis Set: (AUG-CC-PVTZ AUX)
    Blend: AUG-CC-PVTZ-JKFIT

    Orbital Energies [Eh]
    ---------------------

    Doubly Occupied:

       1A    -20.615496     2A    -20.531420     3A    -15.614929
       4A    -11.368500     5A    -11.319158     6A    -11.275929
       7A    -11.248604     8A    -11.235286     9A    -11.229639
      10A    -11.208639    11A     -1.460351    12A     -1.386464
      13A     -1.251976    14A     -1.103020    15A     -1.039902
      16A     -0.997263    17A     -0.944297    18A     -0.838283
      19A     -0.795611    20A     -0.757672    21A     -0.716879
      22A     -0.680790    23A     -0.659003    24A     -0.646261
      25A     -0.619482    26A     -0.597519    27A     -0.581627
      28A     -0.570186    29A     -0.569180    30A     -0.554706
      31A     -0.540128    32A     -0.537724    33A     -0.505423
      34A     -0.453765    35A     -0.434551    36A     -0.386191
      37A     -0.299590

  @DF-RHF Final Energy:  -474.64472347951721

   => Energetics <=

    Nuclear Repulsion Energy =            510.7202365515201450
    One-Electron Energy =               -1659.5790328499037969
    Two-Electron Energy =                 674.2140728188663843
    Total Energy =                       -474.6447234795172108
  Basis Set: (AUG-CC-PVTZ AUX)
    Blend: AUG-CC-PVTZ-RI
    Molecular point group: c1

    Geometry (in Angstrom), charge = 0, multiplicity = 1:

       Center              X                  Y                   Z               Mass
    ------------   -----------------  -----------------  -----------------  -----------------
         O            0.839453822653     1.532607948428    -0.007964463757    15.994914619570
         O           -1.954178177347    -1.543651051572    -0.025558463757    15.994914619570
         N           -1.281231177347     0.639996948428    -0.017380463757    14.003074004430
         C            2.228341822653    -0.244813051572     0.008077536243    12.000000000000
         C            0.088675822653     0.393169948428    -0.006782463757    12.000000000000
         C            0.844450022653    -0.628981351572     0.001766736243    12.000000000000
         C            2.154357822653     1.117865948428     0.001801536243    12.000000000000
         C            3.470049822653    -1.078938051572     0.018651536243    12.000000000000
         C           -2.240685177347    -0.347372051572    -0.018090463757    12.000000000000
         C           -3.663480177347     0.164587948428     0.038868536243    12.000000000000
         H            0.523215822653    -1.744448051572     0.003383536243     1.007825032230
         H            2.888897822653     1.909582948428     0.003330536243     1.007825032230
         H           -1.555264177347     1.615302948428    -0.012100463757     1.007825032230
         H            3.517421822653    -1.727431051572    -0.861478463757     1.007825032230
         H            4.363011822653    -0.447483051572     0.021257536243     1.007825032230
         H            3.507265822653    -1.720362051572     0.904434536243     1.007825032230
         H           -3.789483177347     1.107744948428    -0.499384463757     1.007825032230
         H           -3.956963177347     0.317958948428     1.081814536243     1.007825032230
         H           -4.316770177347    -0.592361051572    -0.395122463757     1.007825032230

  Basis Set: AUG-CC-PVTZ
    Blend: AUG-CC-PVTZ
  Basis Set: (AUG-CC-PVTZ AUX)
    Blend: AUG-CC-PVTZ-JKFIT
	 Reference Energy          =    -474.6447234795172108 [Eh]
	 Singles Energy            =      -0.0000000000000000 [Eh]
	 Same-Spin Energy          =      -0.4887183491550007 [Eh]
	 Opposite-Spin Energy      =      -1.5221757498425719 [Eh]
	 Correlation Energy        =      -2.0108940989975723 [Eh]
	 Total Energy              =    -476.6556175785148071 [Eh]

	 ================> DF-SCS-MP2 Energies <==================
	-----------------------------------------------------------
	 SCS Same-Spin Scale       =       0.3333333333333333 [-]
	 SCS Opposite-Spin Scale   =       1.2000000000000000 [-]
	 SCS Same-Spin Energy      =      -0.1629061163850002 [Eh]
	 SCS Opposite-Spin Energy  =      -1.8266108998110862 [Eh]
	 SCS Correlation Energy    =      -1.9895170161960865 [Eh]
	 SCS Total Energy          =    -476.6342404957132999 [Eh]
	-----------------------------------------------------------

  Dipole Moment: [D]
     X:    -0.2393      Y:     2.5366      Z:     0.0965     Total:     2.5497

*** Psi4 exiting successfully. Buy a developer a beer!
