                               Psi4 1.4a3.dev225

  ==> Input File <==

--------------------------------------------------------------------------
#psi4
#
memory 32 gb

molecule  {
0 1
  O        0.8291000     1.5489640    -0.0096600
  O       -1.9645320    -1.5272950    -0.0272540
  N       -1.2915850     0.6563530    -0.0190760
  C        2.2179880    -0.2284570     0.0063820
  C        0.0783220     0.4095260    -0.0084780
  C        0.8483452    -0.6606885     0.0003529
  C        2.1440040     1.1342220     0.0001060
  C        3.4596960    -1.0625820     0.0169560
  C       -2.2510390    -0.3310160    -0.0197860
  C       -3.6738340     0.1809440     0.0371730
  H        0.5128620    -1.7280920     0.0016880
  H        2.8785440     1.9259390     0.0016350
  H       -1.5656180     1.6316590    -0.0137960
  H        3.5070680    -1.7110750    -0.8631740
  H        4.3526580    -0.4311270     0.0195620
  H        3.4969120    -1.7040060     0.9027390
  H       -3.7998370     1.1241010    -0.5010800
  H       -3.9673170     0.3343150     1.0801190
  H       -4.3271240    -0.5760050    -0.3968180
units angstrom
no_reorient  #important for SAPT in psi4, default
symmetry c1  #important for SAPT in psi4, default
}

set PROPERTIES_ORIGIN ["COM"]
properties('MP2/aug-cc-pvtz', properties = ['dipole'])
--------------------------------------------------------------------------

    Molecular point group: c1
  Charge       = 0
  Multiplicity = 1
  Basis Set: AUG-CC-PVTZ
    Blend: AUG-CC-PVTZ
  Basis Set: (AUG-CC-PVTZ AUX)
    Blend: AUG-CC-PVTZ-JKFIT

    Orbital Energies [Eh]
    ---------------------

    Doubly Occupied:

       1A    -20.619196     2A    -20.532564     3A    -15.616565
       4A    -11.369306     5A    -11.328019     6A    -11.274639
       7A    -11.249240     8A    -11.235737     9A    -11.228068
      10A    -11.211892    11A     -1.460293    12A     -1.387434
      13A     -1.253178    14A     -1.099642    15A     -1.038020
      16A     -0.992329    17A     -0.944007    18A     -0.838927
      19A     -0.793440    20A     -0.763064    21A     -0.714386
      22A     -0.681705    23A     -0.657783    24A     -0.646882
      25A     -0.619867    26A     -0.598401    27A     -0.581002
      28A     -0.570159    29A     -0.569385    30A     -0.557579
      31A     -0.540848    32A     -0.540376    33A     -0.509146
      34A     -0.453663    35A     -0.436566    36A     -0.383690
      37A     -0.294355

  @DF-RHF Final Energy:  -474.65508301198611

   => Energetics <=

    Nuclear Repulsion Energy =            509.7764163240875064
    One-Electron Energy =               -1657.6802907974213213
    Two-Electron Energy =                 673.2487914613477642
    Total Energy =                       -474.6550830119861075
  Basis Set: (AUG-CC-PVTZ AUX)
    Blend: AUG-CC-PVTZ-RI
    Molecular point group: c1

    Geometry (in Angstrom), charge = 0, multiplicity = 1:

       Center              X                  Y                   Z               Mass
    ------------   -----------------  -----------------  -----------------  -----------------
         O            0.838224253350     1.536755399852    -0.007988772106    15.994914619570
         O           -1.955407746650    -1.539503600148    -0.025582772106    15.994914619570
         N           -1.282460746650     0.644144399852    -0.017404772106    14.003074004430
         C            2.227112253350    -0.240665600148     0.008053227894    12.000000000000
         C            0.087446253350     0.397317399852    -0.006806772106    12.000000000000
         C            0.857469453350    -0.672897100148     0.002024127894    12.000000000000
         C            2.153128253350     1.122013399852     0.001777227894    12.000000000000
         C            3.468820253350    -1.074790600148     0.018627227894    12.000000000000
         C           -2.241914746650    -0.343224600148    -0.018114772106    12.000000000000
         C           -3.664709746650     0.168735399852     0.038844227894    12.000000000000
         H            0.521986253350    -1.740300600148     0.003359227894     1.007825032230
         H            2.887668253350     1.913730399852     0.003306227894     1.007825032230
         H           -1.556493746650     1.619450399852    -0.012124772106     1.007825032230
         H            3.516192253350    -1.723283600148    -0.861502772106     1.007825032230
         H            4.361782253350    -0.443335600148     0.021233227894     1.007825032230
         H            3.506036253350    -1.716214600148     0.904410227894     1.007825032230
         H           -3.790712746650     1.111892399852    -0.499408772106     1.007825032230
         H           -3.958192746650     0.322106399852     1.081790227894     1.007825032230
         H           -4.317999746650    -0.588213600148    -0.395146772106     1.007825032230

  Basis Set: AUG-CC-PVTZ
    Blend: AUG-CC-PVTZ
  Basis Set: (AUG-CC-PVTZ AUX)
    Blend: AUG-CC-PVTZ-JKFIT
	 Reference Energy          =    -474.6550830119861075 [Eh]
	 Singles Energy            =      -0.0000000000000000 [Eh]
	 Same-Spin Energy          =      -0.4891487758849041 [Eh]
	 Opposite-Spin Energy      =      -1.5228594224311245 [Eh]
	 Correlation Energy        =      -2.0120081983160287 [Eh]
	 Total Energy              =    -476.6670912103021465 [Eh]

	 ================> DF-SCS-MP2 Energies <==================
	-----------------------------------------------------------
	 SCS Same-Spin Scale       =       0.3333333333333333 [-]
	 SCS Opposite-Spin Scale   =       1.2000000000000000 [-]
	 SCS Same-Spin Energy      =      -0.1630495919616347 [Eh]
	 SCS Opposite-Spin Energy  =      -1.8274313069173493 [Eh]
	 SCS Correlation Energy    =      -1.9904808988789839 [Eh]
	 SCS Total Energy          =    -476.6455639108650644 [Eh]
	-----------------------------------------------------------

  Dipole Moment: [D]
     X:    -0.3057      Y:     2.5803      Z:     0.0957     Total:     2.6002

*** Psi4 exiting successfully. Buy a developer a beer!
