                               Psi4 1.4a3.dev225

  ==> Input File <==

--------------------------------------------------------------------------
#psi4
#
memory 32 gb

molecule  {
0 1
  O        0.8291000     1.5489640    -0.0096600
  O       -1.9645320    -1.5272950    -0.0272540
  N       -1.2915850     0.6563530    -0.0190760
  C        2.2179880    -0.2284570     0.0063820
  C        0.0783220     0.4095260    -0.0084780
  C        0.8642630    -0.7082250     0.0006420
  C        2.1440040     1.1342220     0.0001060
  C        3.4596960    -1.0625820     0.0169560
  C       -2.2510390    -0.3310160    -0.0197860
  C       -3.6738340     0.1809440     0.0371730
  H        0.5128620    -1.7280920     0.0016880
  H        2.8785440     1.9259390     0.0016350
  H       -1.5656180     1.6316590    -0.0137960
  H        3.5070680    -1.7110750    -0.8631740
  H        4.3526580    -0.4311270     0.0195620
  H        3.4969120    -1.7040060     0.9027390
  H       -3.7998370     1.1241010    -0.5010800
  H       -3.9673170     0.3343150     1.0801190
  H       -4.3870587    -0.6454496    -0.4366336
units angstrom
no_reorient  #important for SAPT in psi4, default
symmetry c1  #important for SAPT in psi4, default
}

set PROPERTIES_ORIGIN ["COM"]
properties('MP2/aug-cc-pvtz', properties = ['dipole'])
--------------------------------------------------------------------------

    Molecular point group: c1
  Charge       = 0
  Multiplicity = 1
  Basis Set: AUG-CC-PVTZ
    Blend: AUG-CC-PVTZ
  Basis Set: (AUG-CC-PVTZ AUX)
    Blend: AUG-CC-PVTZ-JKFIT

    Orbital Energies [Eh]
    ---------------------

    Doubly Occupied:

       1A    -20.623207     2A    -20.533647     3A    -15.618982
       4A    -11.370824     5A    -11.336936     6A    -11.273612
       7A    -11.260661     8A    -11.236690     9A    -11.226652
      10A    -11.215392    11A     -1.460961    12A     -1.388425
      13A     -1.254947    14A     -1.097001    15A     -1.033717
      16A     -0.984572    17A     -0.943066    18A     -0.838569
      19A     -0.791298    20A     -0.768956    21A     -0.711667
      22A     -0.682851    23A     -0.657204    24A     -0.646922
      25A     -0.619404    26A     -0.599756    27A     -0.581103
      28A     -0.569082    29A     -0.566040    30A     -0.554902
      31A     -0.538946    32A     -0.536624    33A     -0.510169
      34A     -0.453807    35A     -0.438605    36A     -0.381864
      37A     -0.289445

  @DF-RHF Final Energy:  -474.65003227175850

   => Energetics <=

    Nuclear Repulsion Energy =            508.4499452515973417
    One-Electron Energy =               -1655.0069477291797284
    Two-Electron Energy =                 671.9069702058239955
    Total Energy =                       -474.6500322717585050
  Basis Set: (AUG-CC-PVTZ AUX)
    Blend: AUG-CC-PVTZ-RI
    Molecular point group: c1

    Geometry (in Angstrom), charge = 0, multiplicity = 1:

       Center              X                  Y                   Z               Mass
    ------------   -----------------  -----------------  -----------------  -----------------
         O            0.837285041622     1.541360683021    -0.007725165886    15.994914619570
         O           -1.956346958378    -1.534898316979    -0.025319165886    15.994914619570
         N           -1.283399958378     0.648749683021    -0.017141165886    14.003074004430
         C            2.226173041622    -0.236060316979     0.008316834114    12.000000000000
         C            0.086507041622     0.401922683021    -0.006543165886    12.000000000000
         C            0.872448041622    -0.715828316979     0.002576834114    12.000000000000
         C            2.152189041622     1.126618683021     0.002040834114    12.000000000000
         C            3.467881041622    -1.070185316979     0.018890834114    12.000000000000
         C           -2.242853958378    -0.338619316979    -0.017851165886    12.000000000000
         C           -3.665648958378     0.173340683021     0.039107834114    12.000000000000
         H            0.521047041622    -1.735695316979     0.003622834114     1.007825032230
         H            2.886729041622     1.918335683021     0.003569834114     1.007825032230
         H           -1.557432958378     1.624055683021    -0.011861165886     1.007825032230
         H            3.515253041622    -1.718678316979    -0.861239165886     1.007825032230
         H            4.360843041622    -0.438730316979     0.021496834114     1.007825032230
         H            3.505097041622    -1.711609316979     0.904673834114     1.007825032230
         H           -3.791651958378     1.116497683021    -0.499145165886     1.007825032230
         H           -3.959131958378     0.326711683021     1.082053834114     1.007825032230
         H           -4.378873658378    -0.653052916979    -0.434698765886     1.007825032230

  Basis Set: AUG-CC-PVTZ
    Blend: AUG-CC-PVTZ
  Basis Set: (AUG-CC-PVTZ AUX)
    Blend: AUG-CC-PVTZ-JKFIT
	 Reference Energy          =    -474.6500322717585050 [Eh]
	 Singles Energy            =      -0.0000000000000000 [Eh]
	 Same-Spin Energy          =      -0.4897721634845685 [Eh]
	 Opposite-Spin Energy      =      -1.5246228801765180 [Eh]
	 Correlation Energy        =      -2.0143950436610867 [Eh]
	 Total Energy              =    -476.6644273154195730 [Eh]

	 ================> DF-SCS-MP2 Energies <==================
	-----------------------------------------------------------
	 SCS Same-Spin Scale       =       0.3333333333333333 [-]
	 SCS Opposite-Spin Scale   =       1.2000000000000000 [-]
	 SCS Same-Spin Energy      =      -0.1632573878281895 [Eh]
	 SCS Opposite-Spin Energy  =      -1.8295474562118215 [Eh]
	 SCS Correlation Energy    =      -1.9928048440400110 [Eh]
	 SCS Total Energy          =    -476.6428371157984998 [Eh]
	-----------------------------------------------------------

  Dipole Moment: [D]
     X:    -0.3331      Y:     2.6296      Z:     0.1008     Total:     2.6525

*** Psi4 exiting successfully. Buy a developer a beer!
