                               Psi4 1.4a3.dev225

  ==> Input File <==

--------------------------------------------------------------------------
#psi4
#
memory 32 gb

molecule  {
0 1
  O        0.8291000     1.5489640    -0.0096600
  O       -1.9645320    -1.5272950    -0.0272540
  N       -1.2915850     0.6563530    -0.0190760
  C        2.3128624    -0.2199740     0.0069775
  C        0.0783220     0.4095260    -0.0084780
  C        0.8642630    -0.7082250     0.0006420
  C        2.1440040     1.1342220     0.0001060
  C        3.4596960    -1.0625820     0.0169560
  C       -2.2510390    -0.3310160    -0.0197860
  C       -3.6738340     0.1809440     0.0371730
  H        0.5128620    -1.7280920     0.0016880
  H        2.8785440     1.9259390     0.0016350
  H       -1.5656180     1.6316590    -0.0137960
  H        3.5070680    -1.7110750    -0.8631740
  H        4.3526580    -0.4311270     0.0195620
  H        3.4969120    -1.7040060     0.9027390
  H       -3.7998370     1.1241010    -0.5010800
  H       -3.9673170     0.3343150     1.0801190
  H       -4.3271240    -0.5760050    -0.3968180
units angstrom
no_reorient  #important for SAPT in psi4, default
symmetry c1  #important for SAPT in psi4, default
}

set PROPERTIES_ORIGIN ["COM"]
properties('MP2/aug-cc-pvtz', properties = ['dipole'])
--------------------------------------------------------------------------

    Molecular point group: c1
  Charge       = 0
  Multiplicity = 1
  Basis Set: AUG-CC-PVTZ
    Blend: AUG-CC-PVTZ
  Basis Set: (AUG-CC-PVTZ AUX)
    Blend: AUG-CC-PVTZ-JKFIT

    Orbital Energies [Eh]
    ---------------------

    Doubly Occupied:

       1A    -20.622789     2A    -20.533109     3A    -15.617733
       4A    -11.369516     5A    -11.335410     6A    -11.278736
       7A    -11.249464     8A    -11.241206     9A    -11.224686
      10A    -11.219317    11A     -1.459433    12A     -1.387674
      13A     -1.253805    14A     -1.093690    15A     -1.036829
      16A     -0.988550    17A     -0.950737    18A     -0.841476
      19A     -0.785875    20A     -0.766745    21A     -0.709593
      22A     -0.681667    23A     -0.656203    24A     -0.648275
      25A     -0.620086    26A     -0.599711    27A     -0.583934
      28A     -0.576545    29A     -0.574825    30A     -0.567359
      31A     -0.553793    32A     -0.541236    33A     -0.486346
      34A     -0.453392    35A     -0.436591    36A     -0.369789
      37A     -0.294477

  @DF-RHF Final Energy:  -474.64706639814131

   => Energetics <=

    Nuclear Repulsion Energy =            507.8050590341601378
    One-Electron Energy =               -1653.6830502820289439
    Two-Electron Energy =                 671.2309248497274439
    Total Energy =                       -474.6470663981413054
  Basis Set: (AUG-CC-PVTZ AUX)
    Blend: AUG-CC-PVTZ-RI
    Molecular point group: c1

    Geometry (in Angstrom), charge = 0, multiplicity = 1:

       Center              X                  Y                   Z               Mass
    ------------   -----------------  -----------------  -----------------  -----------------
         O            0.828663814850     1.540125389661    -0.008065105674    15.994914619570
         O           -1.964968185150    -1.536133610339    -0.025659105674    15.994914619570
         N           -1.292021185150     0.647514389661    -0.017481105674    14.003074004430
         C            2.312426214850    -0.228812610339     0.008572394326    12.000000000000
         C            0.077885814850     0.400687389661    -0.006883105674    12.000000000000
         C            0.863826814850    -0.717063610339     0.002236894326    12.000000000000
         C            2.143567814850     1.125383389661     0.001700894326    12.000000000000
         C            3.459259814850    -1.071420610339     0.018550894326    12.000000000000
         C           -2.251475185150    -0.339854610339    -0.018191105674    12.000000000000
         C           -3.674270185150     0.172105389661     0.038767894326    12.000000000000
         H            0.512425814850    -1.736930610339     0.003282894326     1.007825032230
         H            2.878107814850     1.917100389661     0.003229894326     1.007825032230
         H           -1.566054185150     1.622820389661    -0.012201105674     1.007825032230
         H            3.506631814850    -1.719913610339    -0.861579105674     1.007825032230
         H            4.352221814850    -0.439965610339     0.021156894326     1.007825032230
         H            3.496475814850    -1.712844610339     0.904333894326     1.007825032230
         H           -3.800273185150     1.115262389661    -0.499485105674     1.007825032230
         H           -3.967753185150     0.325476389661     1.081713894326     1.007825032230
         H           -4.327560185150    -0.584843610339    -0.395223105674     1.007825032230

  Basis Set: AUG-CC-PVTZ
    Blend: AUG-CC-PVTZ
  Basis Set: (AUG-CC-PVTZ AUX)
    Blend: AUG-CC-PVTZ-JKFIT
	 Reference Energy          =    -474.6470663981413054 [Eh]
	 Singles Energy            =      -0.0000000000000000 [Eh]
	 Same-Spin Energy          =      -0.4892996240414711 [Eh]
	 Opposite-Spin Energy      =      -1.5241523933741998 [Eh]
	 Correlation Energy        =      -2.0134520174156707 [Eh]
	 Total Energy              =    -476.6605184155569646 [Eh]

	 ================> DF-SCS-MP2 Energies <==================
	-----------------------------------------------------------
	 SCS Same-Spin Scale       =       0.3333333333333333 [-]
	 SCS Opposite-Spin Scale   =       1.2000000000000000 [-]
	 SCS Same-Spin Energy      =      -0.1630998746804904 [Eh]
	 SCS Opposite-Spin Energy  =      -1.8289828720490398 [Eh]
	 SCS Correlation Energy    =      -1.9920827467295301 [Eh]
	 SCS Total Energy          =    -476.6391491448708280 [Eh]
	-----------------------------------------------------------

  Dipole Moment: [D]
     X:    -0.2650      Y:     2.5669      Z:     0.0956     Total:     2.5823

*** Psi4 exiting successfully. Buy a developer a beer!
