                               Psi4 1.4a3.dev225

  ==> Input File <==

--------------------------------------------------------------------------
#psi4
#
memory 32 gb

molecule  {
0 1
  O        0.8291000     1.5489640    -0.0096600
  O       -1.9645320    -1.5272950    -0.0272540
  N       -1.2915850     0.6563530    -0.0190760
  C        2.3600198    -0.2132545     0.0072629
  C        0.0783220     0.4095260    -0.0084780
  C        0.8642630    -0.7082250     0.0006420
  C        2.1440040     1.1342220     0.0001060
  C        3.4596960    -1.0625820     0.0169560
  C       -2.2510390    -0.3310160    -0.0197860
  C       -3.6738340     0.1809440     0.0371730
  H        0.5128620    -1.7280920     0.0016880
  H        2.8785440     1.9259390     0.0016350
  H       -1.5656180     1.6316590    -0.0137960
  H        3.5070680    -1.7110750    -0.8631740
  H        4.3526580    -0.4311270     0.0195620
  H        3.4969120    -1.7040060     0.9027390
  H       -3.7998370     1.1241010    -0.5010800
  H       -3.9673170     0.3343150     1.0801190
  H       -4.3271240    -0.5760050    -0.3968180
units angstrom
no_reorient  #important for SAPT in psi4, default
symmetry c1  #important for SAPT in psi4, default
}

set PROPERTIES_ORIGIN ["COM"]
properties('MP2/aug-cc-pvtz', properties = ['dipole'])
--------------------------------------------------------------------------

    Molecular point group: c1
  Charge       = 0
  Multiplicity = 1
  Basis Set: AUG-CC-PVTZ
    Blend: AUG-CC-PVTZ
  Basis Set: (AUG-CC-PVTZ AUX)
    Blend: AUG-CC-PVTZ-JKFIT

    Orbital Energies [Eh]
    ---------------------

    Doubly Occupied:

       1A    -20.622814     2A    -20.532815     3A    -15.617465
       4A    -11.369208     5A    -11.334899     6A    -11.281571
       7A    -11.249252     8A    -11.243637     9A    -11.223868
      10A    -11.220681    11A     -1.459026    12A     -1.387322
      13A     -1.253494    14A     -1.095288    15A     -1.036589
      16A     -0.988586    17A     -0.953921    18A     -0.842301
      19A     -0.783391    20A     -0.765885    21A     -0.708670
      22A     -0.681225    23A     -0.655962    24A     -0.648456
      25A     -0.620069    26A     -0.600636    27A     -0.586598
      28A     -0.582038    29A     -0.580580    30A     -0.568530
      31A     -0.554096    32A     -0.541115    33A     -0.472741
      34A     -0.453199    35A     -0.435117    36A     -0.364715
      37A     -0.296893

  @DF-RHF Final Energy:  -474.63487162543754

   => Energetics <=

    Nuclear Repulsion Energy =            507.3282032582880561
    One-Electron Energy =               -1652.7008497042349973
    Two-Electron Energy =                 670.7377748205093440
    Total Energy =                       -474.6348716254375404
  Basis Set: (AUG-CC-PVTZ AUX)
    Blend: AUG-CC-PVTZ-RI
    Molecular point group: c1

    Geometry (in Angstrom), charge = 0, multiplicity = 1:

       Center              X                  Y                   Z               Mass
    ------------   -----------------  -----------------  -----------------  -----------------
         O            0.824594526376     1.539545553116    -0.008089733302    15.994914619570
         O           -1.969037473624    -1.536713446884    -0.025683733302    15.994914619570
         N           -1.296090473624     0.646934553116    -0.017505733302    14.003074004430
         C            2.355514326376    -0.222672946884     0.008833166698    12.000000000000
         C            0.073816526376     0.400107553116    -0.006907733302    12.000000000000
         C            0.859757526376    -0.717643446884     0.002212266698    12.000000000000
         C            2.139498526376     1.124803553116     0.001676266698    12.000000000000
         C            3.455190526376    -1.072000446884     0.018526266698    12.000000000000
         C           -2.255544473624    -0.340434446884    -0.018215733302    12.000000000000
         C           -3.678339473624     0.171525553116     0.038743266698    12.000000000000
         H            0.508356526376    -1.737510446884     0.003258266698     1.007825032230
         H            2.874038526376     1.916520553116     0.003205266698     1.007825032230
         H           -1.570123473624     1.622240553116    -0.012225733302     1.007825032230
         H            3.502562526376    -1.720493446884    -0.861603733302     1.007825032230
         H            4.348152526376    -0.440545446884     0.021132266698     1.007825032230
         H            3.492406526376    -1.713424446884     0.904309266698     1.007825032230
         H           -3.804342473624     1.114682553116    -0.499509733302     1.007825032230
         H           -3.971822473624     0.324896553116     1.081689266698     1.007825032230
         H           -4.331629473624    -0.585423446884    -0.395247733302     1.007825032230

  Basis Set: AUG-CC-PVTZ
    Blend: AUG-CC-PVTZ
  Basis Set: (AUG-CC-PVTZ AUX)
    Blend: AUG-CC-PVTZ-JKFIT
	 Reference Energy          =    -474.6348716254375404 [Eh]
	 Singles Energy            =      -0.0000000000000000 [Eh]
	 Same-Spin Energy          =      -0.4893944044329432 [Eh]
	 Opposite-Spin Energy      =      -1.5248274352845690 [Eh]
	 Correlation Energy        =      -2.0142218397175125 [Eh]
	 Total Energy              =    -476.6490934651550333 [Eh]

	 ================> DF-SCS-MP2 Energies <==================
	-----------------------------------------------------------
	 SCS Same-Spin Scale       =       0.3333333333333333 [-]
	 SCS Opposite-Spin Scale   =       1.2000000000000000 [-]
	 SCS Same-Spin Energy      =      -0.1631314681443144 [Eh]
	 SCS Opposite-Spin Energy  =      -1.8297929223414826 [Eh]
	 SCS Correlation Energy    =      -1.9929243904857969 [Eh]
	 SCS Total Energy          =    -476.6277960159233089 [Eh]
	-----------------------------------------------------------

  Dipole Moment: [D]
     X:    -0.2121      Y:     2.5326      Z:     0.0959     Total:     2.5433

*** Psi4 exiting successfully. Buy a developer a beer!
