                               Psi4 1.4a3.dev225

  ==> Input File <==

--------------------------------------------------------------------------
#psi4
#
memory 32 gb

molecule  {
0 1
  O        0.8291000     1.5489640    -0.0096600
  O       -1.9645320    -1.5272950    -0.0272540
  N       -1.2915850     0.6563530    -0.0190760
  C        2.2654992    -0.2250435     0.0066838
  C        0.0783220     0.4095260    -0.0084780
  C        0.8642630    -0.7082250     0.0006420
  C        2.1440040     1.1342220     0.0001060
  C        3.4596960    -1.0625820     0.0169560
  C       -2.2510390    -0.3310160    -0.0197860
  C       -3.6738340     0.1809440     0.0371730
  H        0.5128620    -1.7280920     0.0016880
  H        2.8785440     1.9259390     0.0016350
  H       -1.5656180     1.6316590    -0.0137960
  H        3.5070680    -1.7110750    -0.8631740
  H        4.3526580    -0.4311270     0.0195620
  H        3.4969120    -1.7040060     0.9027390
  H       -3.7998370     1.1241010    -0.5010800
  H       -3.9673170     0.3343150     1.0801190
  H       -4.3271240    -0.5760050    -0.3968180
units angstrom
no_reorient  #important for SAPT in psi4, default
symmetry c1  #important for SAPT in psi4, default
}

set PROPERTIES_ORIGIN ["COM"]
properties('MP2/aug-cc-pvtz', properties = ['dipole'])
--------------------------------------------------------------------------

    Molecular point group: c1
  Charge       = 0
  Multiplicity = 1
  Basis Set: AUG-CC-PVTZ
    Blend: AUG-CC-PVTZ
  Basis Set: (AUG-CC-PVTZ AUX)
    Blend: AUG-CC-PVTZ-JKFIT

    Orbital Energies [Eh]
    ---------------------

    Doubly Occupied:

       1A    -20.622835     2A    -20.533413     3A    -15.618014
       4A    -11.369833     5A    -11.335963     6A    -11.276026
       7A    -11.249684     8A    -11.238845     9A    -11.225605
      10A    -11.217437    11A     -1.459984    12A     -1.388040
      13A     -1.254131    14A     -1.094164    15A     -1.036907
      16A     -0.988056    17A     -0.947369    18A     -0.840736
      19A     -0.788621    20A     -0.767725    21A     -0.710590
      22A     -0.682112    23A     -0.656550    24A     -0.648175
      25A     -0.620175    26A     -0.599449    27A     -0.582494
      28A     -0.572637    29A     -0.571641    30A     -0.563974
      31A     -0.549564    32A     -0.541357    33A     -0.499077
      34A     -0.453589    35A     -0.437551    36A     -0.375431
      37A     -0.291897

  @DF-RHF Final Energy:  -474.65453523609079

   => Energetics <=

    Nuclear Repulsion Energy =            508.3187641379386719
    One-Electron Energy =               -1654.7273010878013793
    Two-Electron Energy =                 671.7540017137720270
    Total Energy =                       -474.6545352360907373
  Basis Set: (AUG-CC-PVTZ AUX)
    Blend: AUG-CC-PVTZ-RI
    Molecular point group: c1

    Geometry (in Angstrom), charge = 0, multiplicity = 1:

       Center              X                  Y                   Z               Mass
    ------------   -----------------  -----------------  -----------------  -----------------
         O            0.832750862140     1.540562845033    -0.008039761825    15.994914619570
         O           -1.960881137860    -1.535696154967    -0.025633761825    15.994914619570
         N           -1.287934137860     0.647951845033    -0.017455761825    14.003074004430
         C            2.269150062140    -0.233444654967     0.008304038175    12.000000000000
         C            0.081972862140     0.401124845033    -0.006857761825    12.000000000000
         C            0.867913862140    -0.716626154967     0.002262238175    12.000000000000
         C            2.147654862140     1.125820845033     0.001726238175    12.000000000000
         C            3.463346862140    -1.070983154967     0.018576238175    12.000000000000
         C           -2.247388137860    -0.339417154967    -0.018165761825    12.000000000000
         C           -3.670183137860     0.172542845033     0.038793238175    12.000000000000
         H            0.516512862140    -1.736493154967     0.003308238175     1.007825032230
         H            2.882194862140     1.917537845033     0.003255238175     1.007825032230
         H           -1.561967137860     1.623257845033    -0.012175761825     1.007825032230
         H            3.510718862140    -1.719476154967    -0.861553761825     1.007825032230
         H            4.356308862140    -0.439528154967     0.021182238175     1.007825032230
         H            3.500562862140    -1.712407154967     0.904359238175     1.007825032230
         H           -3.796186137860     1.115699845033    -0.499459761825     1.007825032230
         H           -3.963666137860     0.325913845033     1.081739238175     1.007825032230
         H           -4.323473137860    -0.584406154967    -0.395197761825     1.007825032230

  Basis Set: AUG-CC-PVTZ
    Blend: AUG-CC-PVTZ
  Basis Set: (AUG-CC-PVTZ AUX)
    Blend: AUG-CC-PVTZ-JKFIT
	 Reference Energy          =    -474.6545352360907941 [Eh]
	 Singles Energy            =      -0.0000000000000000 [Eh]
	 Same-Spin Energy          =      -0.4894142602233931 [Eh]
	 Opposite-Spin Energy      =      -1.5238253655221148 [Eh]
	 Correlation Energy        =      -2.0132396257455079 [Eh]
	 Total Energy              =    -476.6677748618362784 [Eh]

	 ================> DF-SCS-MP2 Energies <==================
	-----------------------------------------------------------
	 SCS Same-Spin Scale       =       0.3333333333333333 [-]
	 SCS Opposite-Spin Scale   =       1.2000000000000000 [-]
	 SCS Same-Spin Energy      =      -0.1631380867411310 [Eh]
	 SCS Opposite-Spin Energy  =      -1.8285904386265377 [Eh]
	 SCS Correlation Energy    =      -1.9917285253676686 [Eh]
	 SCS Total Energy          =    -476.6462637614584423 [Eh]
	-----------------------------------------------------------

  Dipole Moment: [D]
     X:    -0.3151      Y:     2.5983      Z:     0.0953     Total:     2.6190

*** Psi4 exiting successfully. Buy a developer a beer!
