                               Psi4 1.4a3.dev225

  ==> Input File <==

--------------------------------------------------------------------------
#psi4
#
memory 32 gb

molecule  {
0 1
  O        0.8291000     1.5489640    -0.0096600
  O       -1.9645320    -1.5272950    -0.0272540
  N       -1.2915850     0.6563530    -0.0190760
  C        2.2179880    -0.2284570     0.0063820
  C        0.0783220     0.4095260    -0.0084780
  C        0.8171356    -0.7249272     0.0004422
  C        2.1440040     1.1342220     0.0001060
  C        3.4596960    -1.0625820     0.0169560
  C       -2.2510390    -0.3310160    -0.0197860
  C       -3.6738340     0.1809440     0.0371730
  H        0.5128620    -1.7280920     0.0016880
  H        2.8785440     1.9259390     0.0016350
  H       -1.5656180     1.6316590    -0.0137960
  H        3.5070680    -1.7110750    -0.8631740
  H        4.3526580    -0.4311270     0.0195620
  H        3.4969120    -1.7040060     0.9027390
  H       -3.7998370     1.1241010    -0.5010800
  H       -3.9673170     0.3343150     1.0801190
  H       -4.3271240    -0.5760050    -0.3968180
units angstrom
no_reorient  #important for SAPT in psi4, default
symmetry c1  #important for SAPT in psi4, default
}

set PROPERTIES_ORIGIN ["COM"]
properties('MP2/aug-cc-pvtz', properties = ['dipole'])
--------------------------------------------------------------------------

    Molecular point group: c1
  Charge       = 0
  Multiplicity = 1
  Basis Set: AUG-CC-PVTZ
    Blend: AUG-CC-PVTZ
  Basis Set: (AUG-CC-PVTZ AUX)
    Blend: AUG-CC-PVTZ-JKFIT

    Orbital Energies [Eh]
    ---------------------

    Doubly Occupied:

       1A    -20.622115     2A    -20.533106     3A    -15.616411
       4A    -11.369466     5A    -11.336177     6A    -11.274701
       7A    -11.249390     8A    -11.240249     9A    -11.226686
      10A    -11.215225    11A     -1.460087    12A     -1.387851
      13A     -1.253649    14A     -1.090331    15A     -1.037457
      16A     -0.988477    17A     -0.943226    18A     -0.840404
      19A     -0.789399    20A     -0.771472    21A     -0.709595
      22A     -0.682204    23A     -0.656725    24A     -0.646694
      25A     -0.619796    26A     -0.599158    27A     -0.582378
      28A     -0.577453    29A     -0.568843    30A     -0.568457
      31A     -0.541036    32A     -0.536151    33A     -0.503319
      34A     -0.453444    35A     -0.437308    36A     -0.376717
      37A     -0.293995

  @DF-RHF Final Energy:  -474.65568452158254

   => Energetics <=

    Nuclear Repulsion Energy =            508.6396651410306049
    One-Electron Energy =               -1655.3923994326364664
    Two-Electron Energy =                 672.0970497700234318
    Total Energy =                       -474.6556845215825433
  Basis Set: (AUG-CC-PVTZ AUX)
    Blend: AUG-CC-PVTZ-RI
    Molecular point group: c1

    Geometry (in Angstrom), charge = 0, multiplicity = 1:

       Center              X                  Y                   Z               Mass
    ------------   -----------------  -----------------  -----------------  -----------------
         O            0.840917380315     1.542298661387    -0.007996477948    15.994914619570
         O           -1.952714619685    -1.533960338613    -0.025590477948    15.994914619570
         N           -1.279767619685     0.649687661387    -0.017412477948    14.003074004430
         C            2.229805380315    -0.235122338613     0.008045522052    12.000000000000
         C            0.090139380315     0.402860661387    -0.006814477948    12.000000000000
         C            0.828952980315    -0.731592538613     0.002105722052    12.000000000000
         C            2.155821380315     1.127556661387     0.001769522052    12.000000000000
         C            3.471513380315    -1.069247338613     0.018619522052    12.000000000000
         C           -2.239221619685    -0.337681338613    -0.018122477948    12.000000000000
         C           -3.662016619685     0.174278661387     0.038836522052    12.000000000000
         H            0.524679380315    -1.734757338613     0.003351522052     1.007825032230
         H            2.890361380315     1.919273661387     0.003298522052     1.007825032230
         H           -1.553800619685     1.624993661387    -0.012132477948     1.007825032230
         H            3.518885380315    -1.717740338613    -0.861510477948     1.007825032230
         H            4.364475380315    -0.437792338613     0.021225522052     1.007825032230
         H            3.508729380315    -1.710671338613     0.904402522052     1.007825032230
         H           -3.788019619685     1.117435661387    -0.499416477948     1.007825032230
         H           -3.955499619685     0.327649661387     1.081782522052     1.007825032230
         H           -4.315306619685    -0.582670338613    -0.395154477948     1.007825032230

  Basis Set: AUG-CC-PVTZ
    Blend: AUG-CC-PVTZ
  Basis Set: (AUG-CC-PVTZ AUX)
    Blend: AUG-CC-PVTZ-JKFIT
	 Reference Energy          =    -474.6556845215825433 [Eh]
	 Singles Energy            =      -0.0000000000000000 [Eh]
	 Same-Spin Energy          =      -0.4888100949518328 [Eh]
	 Opposite-Spin Energy      =      -1.5230929430653839 [Eh]
	 Correlation Energy        =      -2.0119030380172167 [Eh]
	 Total Energy              =    -476.6675875595997809 [Eh]

	 ================> DF-SCS-MP2 Energies <==================
	-----------------------------------------------------------
	 SCS Same-Spin Scale       =       0.3333333333333333 [-]
	 SCS Opposite-Spin Scale   =       1.2000000000000000 [-]
	 SCS Same-Spin Energy      =      -0.1629366983172776 [Eh]
	 SCS Opposite-Spin Energy  =      -1.8277115316784607 [Eh]
	 SCS Correlation Energy    =      -1.9906482299957382 [Eh]
	 SCS Total Energy          =    -476.6463327515782566 [Eh]
	-----------------------------------------------------------

  Dipole Moment: [D]
     X:    -0.3240      Y:     2.6181      Z:     0.0950     Total:     2.6397

*** Psi4 exiting successfully. Buy a developer a beer!
