                               Psi4 1.4a3.dev225

  ==> Input File <==

--------------------------------------------------------------------------
#psi4
#
memory 32 gb

molecule  {
0 1
  O        0.8291000     1.5489640    -0.0096600
  O       -1.9645320    -1.5272950    -0.0272540
  N       -1.2915850     0.6563530    -0.0190760
  C        2.2179880    -0.2284570     0.0063820
  C        0.0783220     0.4095260    -0.0084780
  C        0.8642630    -0.7082250     0.0006420
  C        2.1440040     1.1342220     0.0001060
  C        3.4596960    -1.0625820     0.0169560
  C       -2.2510390    -0.3310160    -0.0197860
  C       -3.6738340     0.1809440     0.0371730
  H        0.5128620    -1.7280920     0.0016880
  H        2.8785440     1.9259390     0.0016350
  H       -1.5656180     1.6316590    -0.0137960
  H        3.5070680    -1.7110750    -0.8631740
  H        4.3526580    -0.4311270     0.0195620
  H        3.4962318    -1.6922827     0.8865495
  H       -3.7998370     1.1241010    -0.5010800
  H       -3.9673170     0.3343150     1.0801190
  H       -4.3271240    -0.5760050    -0.3968180
units angstrom
no_reorient  #important for SAPT in psi4, default
symmetry c1  #important for SAPT in psi4, default
}

set PROPERTIES_ORIGIN ["COM"]
properties('MP2/aug-cc-pvtz', properties = ['dipole'])
--------------------------------------------------------------------------

    Molecular point group: c1
  Charge       = 0
  Multiplicity = 1
  Basis Set: AUG-CC-PVTZ
    Blend: AUG-CC-PVTZ
  Basis Set: (AUG-CC-PVTZ AUX)
    Blend: AUG-CC-PVTZ-JKFIT

    Orbital Energies [Eh]
    ---------------------

    Doubly Occupied:

       1A    -20.622861     2A    -20.533727     3A    -15.618307
       4A    -11.370160     5A    -11.336568     6A    -11.273218
       7A    -11.249910     8A    -11.236327     9A    -11.224102
      10A    -11.215084    11A     -1.460615    12A     -1.388420
      13A     -1.254463    14A     -1.096909    15A     -1.036847
      16A     -0.987533    17A     -0.944965    18A     -0.840224
      19A     -0.791667    20A     -0.768835    21A     -0.711860
      22A     -0.682534    23A     -0.657001    24A     -0.648126
      25A     -0.620359    26A     -0.599442    27A     -0.581996
      28A     -0.571920    29A     -0.570797    30A     -0.563916
      31A     -0.541535    32A     -0.538947    33A     -0.510219
      34A     -0.453786    35A     -0.438279    36A     -0.381803
      37A     -0.289124

  @DF-RHF Final Energy:  -474.65684035454001

   => Energetics <=

    Nuclear Repulsion Energy =            508.9600784051237952
    One-Electron Energy =               -1656.0090659425420654
    Two-Electron Energy =                 672.3921471828782614
    Total Energy =                       -474.6568403545400088
  Basis Set: (AUG-CC-PVTZ AUX)
    Blend: AUG-CC-PVTZ-RI
    Molecular point group: c1

    Geometry (in Angstrom), charge = 0, multiplicity = 1:

       Center              X                  Y                   Z               Mass
    ------------   -----------------  -----------------  -----------------  -----------------
         O            0.836855610161     1.540772439935    -0.007896389855    15.994914619570
         O           -1.956776389839    -1.535486560065    -0.025490389855    15.994914619570
         N           -1.283829389839     0.648161439935    -0.017312389855    14.003074004430
         C            2.225743610161    -0.236648560065     0.008145610145    12.000000000000
         C            0.086077610161     0.401334439935    -0.006714389855    12.000000000000
         C            0.872018610161    -0.716416560065     0.002405610145    12.000000000000
         C            2.151759610161     1.126030439935     0.001869610145    12.000000000000
         C            3.467451610161    -1.070773560065     0.018719610145    12.000000000000
         C           -2.243283389839    -0.339207560065    -0.018022389855    12.000000000000
         C           -3.666078389839     0.172752439935     0.038936610145    12.000000000000
         H            0.520617610161    -1.736283560065     0.003451610145     1.007825032230
         H            2.886299610161     1.917747439935     0.003398610145     1.007825032230
         H           -1.557862389839     1.623467439935    -0.012032389855     1.007825032230
         H            3.514823610161    -1.719266560065    -0.861410389855     1.007825032230
         H            4.360413610161    -0.439318560065     0.021325610145     1.007825032230
         H            3.503987410161    -1.700474260065     0.888313110145     1.007825032230
         H           -3.792081389839     1.115909439935    -0.499316389855     1.007825032230
         H           -3.959561389839     0.326123439935     1.081882610145     1.007825032230
         H           -4.319368389839    -0.584196560065    -0.395054389855     1.007825032230

  Basis Set: AUG-CC-PVTZ
    Blend: AUG-CC-PVTZ
  Basis Set: (AUG-CC-PVTZ AUX)
    Blend: AUG-CC-PVTZ-JKFIT
	 Reference Energy          =    -474.6568403545400088 [Eh]
	 Singles Energy            =      -0.0000000000000000 [Eh]
	 Same-Spin Energy          =      -0.4897432348735914 [Eh]
	 Opposite-Spin Energy      =      -1.5237493640082411 [Eh]
	 Correlation Energy        =      -2.0134925988818324 [Eh]
	 Total Energy              =    -476.6703329534218483 [Eh]

	 ================> DF-SCS-MP2 Energies <==================
	-----------------------------------------------------------
	 SCS Same-Spin Scale       =       0.3333333333333333 [-]
	 SCS Opposite-Spin Scale   =       1.2000000000000000 [-]
	 SCS Same-Spin Energy      =      -0.1632477449578638 [Eh]
	 SCS Opposite-Spin Energy  =      -1.8284992368098894 [Eh]
	 SCS Correlation Energy    =      -1.9917469817677531 [Eh]
	 SCS Total Energy          =    -476.6485873363077417 [Eh]
	-----------------------------------------------------------

  Dipole Moment: [D]
     X:    -0.3586      Y:     2.6191      Z:     0.1008     Total:     2.6454

*** Psi4 exiting successfully. Buy a developer a beer!
