                               Psi4 1.4a3.dev225

  ==> Input File <==

--------------------------------------------------------------------------
#psi4
#
memory 32 gb

molecule  {
0 1
  O        0.8291000     1.5489640    -0.0096600
  O       -1.9645320    -1.5272950    -0.0272540
  N       -1.2915850     0.6563530    -0.0190760
  C        2.2179880    -0.2284570     0.0063820
  C        0.0783220     0.4095260    -0.0084780
  C        0.9585179    -0.6748205     0.0010417
  C        2.1440040     1.1342220     0.0001060
  C        3.4596960    -1.0625820     0.0169560
  C       -2.2510390    -0.3310160    -0.0197860
  C       -3.6738340     0.1809440     0.0371730
  H        0.5128620    -1.7280920     0.0016880
  H        2.8785440     1.9259390     0.0016350
  H       -1.5656180     1.6316590    -0.0137960
  H        3.5070680    -1.7110750    -0.8631740
  H        4.3526580    -0.4311270     0.0195620
  H        3.4969120    -1.7040060     0.9027390
  H       -3.7998370     1.1241010    -0.5010800
  H       -3.9673170     0.3343150     1.0801190
  H       -4.3271240    -0.5760050    -0.3968180
units angstrom
no_reorient  #important for SAPT in psi4, default
symmetry c1  #important for SAPT in psi4, default
}

set PROPERTIES_ORIGIN ["COM"]
properties('MP2/aug-cc-pvtz', properties = ['dipole'])
--------------------------------------------------------------------------

    Molecular point group: c1
  Charge       = 0
  Multiplicity = 1
  Basis Set: AUG-CC-PVTZ
    Blend: AUG-CC-PVTZ
  Basis Set: (AUG-CC-PVTZ AUX)
    Blend: AUG-CC-PVTZ-JKFIT

    Orbital Energies [Eh]
    ---------------------

    Doubly Occupied:

       1A    -20.625825     2A    -20.535160     3A    -15.622300
       4A    -11.371664     5A    -11.338573     6A    -11.270717
       7A    -11.251051     8A    -11.227514     9A    -11.226144
      10A    -11.215563    11A     -1.462612    12A     -1.389823
      13A     -1.256496    14A     -1.113362    15A     -1.035954
      16A     -0.983796    17A     -0.945357    18A     -0.839875
      19A     -0.798190    20A     -0.763231    21A     -0.719113
      22A     -0.683076    23A     -0.658096    24A     -0.650639
      25A     -0.621698    26A     -0.600656    27A     -0.582596
      28A     -0.571396    29A     -0.569548    30A     -0.551275
      31A     -0.542584    32A     -0.530766    33A     -0.517930
      34A     -0.454776    35A     -0.439782    36A     -0.394076
      37A     -0.278776

  @DF-RHF Final Energy:  -474.63984803198542

   => Energetics <=

    Nuclear Repulsion Energy =            509.4428339950559348
    One-Electron Energy =               -1656.8853829977067562
    Two-Electron Energy =                 672.8027009706653416
    Total Energy =                       -474.6398480319854798
  Basis Set: (AUG-CC-PVTZ AUX)
    Blend: AUG-CC-PVTZ-RI
    Molecular point group: c1

    Geometry (in Angstrom), charge = 0, multiplicity = 1:

       Center              X                  Y                   Z               Mass
    ------------   -----------------  -----------------  -----------------  -----------------
         O            0.828717272509     1.537974873036    -0.008048209774    15.994914619570
         O           -1.964914727491    -1.538284126964    -0.025642209774    15.994914619570
         N           -1.291967727491     0.645363873036    -0.017464209774    14.003074004430
         C            2.217605272509    -0.239446126964     0.007993790226    12.000000000000
         C            0.077939272509     0.398536873036    -0.006866209774    12.000000000000
         C            0.958135172509    -0.685809626964     0.002653490226    12.000000000000
         C            2.143621272509     1.123232873036     0.001717790226    12.000000000000
         C            3.459313272509    -1.073571126964     0.018567790226    12.000000000000
         C           -2.251421727491    -0.342005126964    -0.018174209774    12.000000000000
         C           -3.674216727491     0.169954873036     0.038784790226    12.000000000000
         H            0.512479272509    -1.739081126964     0.003299790226     1.007825032230
         H            2.878161272509     1.914949873036     0.003246790226     1.007825032230
         H           -1.566000727491     1.620669873036    -0.012184209774     1.007825032230
         H            3.506685272509    -1.722064126964    -0.861562209774     1.007825032230
         H            4.352275272509    -0.442116126964     0.021173790226     1.007825032230
         H            3.496529272509    -1.714995126964     0.904350790226     1.007825032230
         H           -3.800219727491     1.113111873036    -0.499468209774     1.007825032230
         H           -3.967699727491     0.323325873036     1.081730790226     1.007825032230
         H           -4.327506727491    -0.586994126964    -0.395206209774     1.007825032230

  Basis Set: AUG-CC-PVTZ
    Blend: AUG-CC-PVTZ
  Basis Set: (AUG-CC-PVTZ AUX)
    Blend: AUG-CC-PVTZ-JKFIT
	 Reference Energy          =    -474.6398480319854229 [Eh]
	 Singles Energy            =      -0.0000000000000000 [Eh]
	 Same-Spin Energy          =      -0.4922950010030906 [Eh]
	 Opposite-Spin Energy      =      -1.5266721586466290 [Eh]
	 Correlation Energy        =      -2.0189671596497196 [Eh]
	 Total Energy              =    -476.6588151916351421 [Eh]

	 ================> DF-SCS-MP2 Energies <==================
	-----------------------------------------------------------
	 SCS Same-Spin Scale       =       0.3333333333333333 [-]
	 SCS Opposite-Spin Scale   =       1.2000000000000000 [-]
	 SCS Same-Spin Energy      =      -0.1640983336676969 [Eh]
	 SCS Opposite-Spin Energy  =      -1.8320065903759546 [Eh]
	 SCS Correlation Energy    =      -1.9961049240436515 [Eh]
	 SCS Total Energy          =    -476.6359529560290866 [Eh]
	-----------------------------------------------------------

  Dipole Moment: [D]
     X:    -0.4165      Y:     2.6522      Z:     0.0948     Total:     2.6864

*** Psi4 exiting successfully. Buy a developer a beer!
