                               Psi4 1.4a3.dev225

  ==> Input File <==

--------------------------------------------------------------------------
#psi4
#
memory 32 gb

molecule  {
0 1
  O        0.8291000     1.5489640    -0.0096600
  O       -1.9645320    -1.5272950    -0.0272540
  N       -1.2915850     0.6563530    -0.0190760
  C        2.2179880    -0.2284570     0.0063820
  C        0.0783220     0.4095260    -0.0084780
  C        0.8642630    -0.7082250     0.0006420
  C        2.1440040     1.1342220     0.0001060
  C        3.4596960    -1.0625820     0.0169560
  C       -2.2510390    -0.3310160    -0.0197860
  C       -3.6738340     0.1809440     0.0371730
  H        0.5128620    -1.7280920     0.0016880
  H        2.8785440     1.9259390     0.0016350
  H       -1.5385687     1.5353882    -0.0143172
  H        3.5070680    -1.7110750    -0.8631740
  H        4.3526580    -0.4311270     0.0195620
  H        3.4969120    -1.7040060     0.9027390
  H       -3.7998370     1.1241010    -0.5010800
  H       -3.9673170     0.3343150     1.0801190
  H       -4.3271240    -0.5760050    -0.3968180
units angstrom
no_reorient  #important for SAPT in psi4, default
symmetry c1  #important for SAPT in psi4, default
}

set PROPERTIES_ORIGIN ["COM"]
properties('MP2/aug-cc-pvtz', properties = ['dipole'])
--------------------------------------------------------------------------

    Molecular point group: c1
  Charge       = 0
  Multiplicity = 1
  Basis Set: AUG-CC-PVTZ
    Blend: AUG-CC-PVTZ
  Basis Set: (AUG-CC-PVTZ AUX)
    Blend: AUG-CC-PVTZ-JKFIT

    Orbital Energies [Eh]
    ---------------------

    Doubly Occupied:

       1A    -20.623430     2A    -20.534426     3A    -15.609196
       4A    -11.370818     5A    -11.336816     6A    -11.273848
       7A    -11.250504     8A    -11.236803     9A    -11.226772
      10A    -11.215579    11A     -1.461577    12A     -1.390052
      13A     -1.268489    14A     -1.097281    15A     -1.037647
      16A     -0.989872    17A     -0.944390    18A     -0.847216
      19A     -0.806349    20A     -0.774719    21A     -0.716599
      22A     -0.684169    23A     -0.657870    24A     -0.648745
      25A     -0.621003    26A     -0.602162    27A     -0.582135
      28A     -0.571768    29A     -0.569091    30A     -0.564806
      31A     -0.542600    32A     -0.539489    33A     -0.510603
      34A     -0.455224    35A     -0.439273    36A     -0.382083
      37A     -0.290028

  @DF-RHF Final Energy:  -474.65051838898296

   => Energetics <=

    Nuclear Repulsion Energy =            509.5345238938627972
    One-Electron Energy =               -1657.0232183633600016
    Two-Electron Energy =                 672.8381760805142449
    Total Energy =                       -474.6505183889829596
  Basis Set: (AUG-CC-PVTZ AUX)
    Blend: AUG-CC-PVTZ-RI
    Molecular point group: c1

    Geometry (in Angstrom), charge = 0, multiplicity = 1:

       Center              X                  Y                   Z               Mass
    ------------   -----------------  -----------------  -----------------  -----------------
         O            0.836654647876     1.541555098875    -0.008009941753    15.994914619570
         O           -1.956977352124    -1.534703901125    -0.025603941753    15.994914619570
         N           -1.284030352124     0.648944098875    -0.017425941753    14.003074004430
         C            2.225542647876    -0.235865901125     0.008032058247    12.000000000000
         C            0.085876647876     0.402117098875    -0.006827941753    12.000000000000
         C            0.871817647876    -0.715633901125     0.002292058247    12.000000000000
         C            2.151558647876     1.126813098875     0.001756058247    12.000000000000
         C            3.467250647876    -1.069990901125     0.018606058247    12.000000000000
         C           -2.243484352124    -0.338424901125    -0.018135941753    12.000000000000
         C           -3.666279352124     0.173535098875     0.038823058247    12.000000000000
         H            0.520416647876    -1.735500901125     0.003338058247     1.007825032230
         H            2.886098647876     1.918530098875     0.003285058247     1.007825032230
         H           -1.531014052124     1.527979298875    -0.012667141753     1.007825032230
         H            3.514622647876    -1.718483901125    -0.861523941753     1.007825032230
         H            4.360212647876    -0.438535901125     0.021212058247     1.007825032230
         H            3.504466647876    -1.711414901125     0.904389058247     1.007825032230
         H           -3.792282352124     1.116692098875    -0.499429941753     1.007825032230
         H           -3.959762352124     0.326906098875     1.081769058247     1.007825032230
         H           -4.319569352124    -0.583413901125    -0.395167941753     1.007825032230

  Basis Set: AUG-CC-PVTZ
    Blend: AUG-CC-PVTZ
  Basis Set: (AUG-CC-PVTZ AUX)
    Blend: AUG-CC-PVTZ-JKFIT
	 Reference Energy          =    -474.6505183889829596 [Eh]
	 Singles Energy            =      -0.0000000000000000 [Eh]
	 Same-Spin Energy          =      -0.4889406420890813 [Eh]
	 Opposite-Spin Energy      =      -1.5221712923550437 [Eh]
	 Correlation Energy        =      -2.0111119344441248 [Eh]
	 Total Energy              =    -476.6616303234270617 [Eh]

	 ================> DF-SCS-MP2 Energies <==================
	-----------------------------------------------------------
	 SCS Same-Spin Scale       =       0.3333333333333333 [-]
	 SCS Opposite-Spin Scale   =       1.2000000000000000 [-]
	 SCS Same-Spin Energy      =      -0.1629802140296938 [Eh]
	 SCS Opposite-Spin Energy  =      -1.8266055508260524 [Eh]
	 SCS Correlation Energy    =      -1.9895857648557460 [Eh]
	 SCS Total Energy          =    -476.6401041538387062 [Eh]
	-----------------------------------------------------------

  Dipole Moment: [D]
     X:    -0.3466      Y:     2.5252      Z:     0.0944     Total:     2.5506

*** Psi4 exiting successfully. Buy a developer a beer!
