                               Psi4 1.4a3.dev225

  ==> Input File <==

--------------------------------------------------------------------------
#psi4
#
memory 32 gb

molecule  {
0 1
  O        0.8291000     1.5489640    -0.0096600
  O       -1.9645320    -1.5272950    -0.0272540
  N       -1.2915850     0.6563530    -0.0190760
  C        2.2179880    -0.2284570     0.0063820
  C        0.0783220     0.4095260    -0.0084780
  C        0.8560967    -0.6845262     0.0004966
  C        2.1440040     1.1342220     0.0001060
  C        3.4596960    -1.0625820     0.0169560
  C       -2.2510390    -0.3310160    -0.0197860
  C       -3.6738340     0.1809440     0.0371730
  H        0.5128620    -1.7280920     0.0016880
  H        2.8785440     1.9259390     0.0016350
  H       -1.5656180     1.6316590    -0.0137960
  H        3.5070680    -1.7110750    -0.8631740
  H        4.3526580    -0.4311270     0.0195620
  H        3.4969120    -1.7040060     0.9027390
  H       -3.7998370     1.1241010    -0.5010800
  H       -3.9673170     0.3343150     1.0801190
  H       -4.3271240    -0.5760050    -0.3968180
units angstrom
no_reorient  #important for SAPT in psi4, default
symmetry c1  #important for SAPT in psi4, default
}

set PROPERTIES_ORIGIN ["COM"]
properties('MP2/aug-cc-pvtz', properties = ['dipole'])
--------------------------------------------------------------------------

    Molecular point group: c1
  Charge       = 0
  Multiplicity = 1
  Basis Set: AUG-CC-PVTZ
    Blend: AUG-CC-PVTZ
  Basis Set: (AUG-CC-PVTZ AUX)
    Blend: AUG-CC-PVTZ-JKFIT

    Orbital Energies [Eh]
    ---------------------

    Doubly Occupied:

       1A    -20.621073     2A    -20.533154     3A    -15.617438
       4A    -11.369738     5A    -11.332364     6A    -11.274009
       7A    -11.249579     8A    -11.236081     9A    -11.227290
      10A    -11.213518    11A     -1.460449    12A     -1.387936
      13A     -1.253826    14A     -1.098155    15A     -1.037357
      16A     -0.989750    17A     -0.943904    18A     -0.839455
      19A     -0.792480    20A     -0.765927    21A     -0.713018
      22A     -0.682144    23A     -0.657357    24A     -0.647411
      25A     -0.620097    26A     -0.598906    27A     -0.581023
      28A     -0.570700    29A     -0.569088    30A     -0.560767
      31A     -0.541163    32A     -0.539874    33A     -0.509905
      34A     -0.453713    35A     -0.437464    36A     -0.382618
      37A     -0.291758

  @DF-RHF Final Energy:  -474.65696952780547

   => Energetics <=

    Nuclear Repulsion Energy =            509.3200611925624912
    One-Electron Energy =               -1656.7530800951537913
    Two-Electron Energy =                 672.7760493747858845
    Total Energy =                       -474.6569695278054724
  Basis Set: (AUG-CC-PVTZ AUX)
    Blend: AUG-CC-PVTZ-RI
    Molecular point group: c1

    Geometry (in Angstrom), charge = 0, multiplicity = 1:

       Center              X                  Y                   Z               Mass
    ------------   -----------------  -----------------  -----------------  -----------------
         O            0.837555363852     1.538812393619    -0.008001172212    15.994914619570
         O           -1.956076636148    -1.537446606381    -0.025595172212    15.994914619570
         N           -1.283129636148     0.646201393619    -0.017417172212    14.003074004430
         C            2.226443363852    -0.238608606381     0.008040827788    12.000000000000
         C            0.086777363852     0.399374393619    -0.006819172212    12.000000000000
         C            0.864552063852    -0.694677806381     0.002155427788    12.000000000000
         C            2.152459363852     1.124070393619     0.001764827788    12.000000000000
         C            3.468151363852    -1.072733606381     0.018614827788    12.000000000000
         C           -2.242583636148    -0.341167606381    -0.018127172212    12.000000000000
         C           -3.665378636148     0.170792393619     0.038831827788    12.000000000000
         H            0.521317363852    -1.738243606381     0.003346827788     1.007825032230
         H            2.886999363852     1.915787393619     0.003293827788     1.007825032230
         H           -1.557162636148     1.621507393619    -0.012137172212     1.007825032230
         H            3.515523363852    -1.721226606381    -0.861515172212     1.007825032230
         H            4.361113363852    -0.441278606381     0.021220827788     1.007825032230
         H            3.505367363852    -1.714157606381     0.904397827788     1.007825032230
         H           -3.791381636148     1.113949393619    -0.499421172212     1.007825032230
         H           -3.958861636148     0.324163393619     1.081777827788     1.007825032230
         H           -4.318668636148    -0.586156606381    -0.395159172212     1.007825032230

  Basis Set: AUG-CC-PVTZ
    Blend: AUG-CC-PVTZ
  Basis Set: (AUG-CC-PVTZ AUX)
    Blend: AUG-CC-PVTZ-JKFIT
	 Reference Energy          =    -474.6569695278054724 [Eh]
	 Singles Energy            =      -0.0000000000000000 [Eh]
	 Same-Spin Energy          =      -0.4894234750070858 [Eh]
	 Opposite-Spin Energy      =      -1.5233198760803843 [Eh]
	 Correlation Energy        =      -2.0127433510874702 [Eh]
	 Total Energy              =    -476.6697128788929376 [Eh]

	 ================> DF-SCS-MP2 Energies <==================
	-----------------------------------------------------------
	 SCS Same-Spin Scale       =       0.3333333333333333 [-]
	 SCS Opposite-Spin Scale   =       1.2000000000000000 [-]
	 SCS Same-Spin Energy      =      -0.1631411583356953 [Eh]
	 SCS Opposite-Spin Energy  =      -1.8279838512964610 [Eh]
	 SCS Correlation Energy    =      -1.9911250096321562 [Eh]
	 SCS Total Energy          =    -476.6480945374376006 [Eh]
	-----------------------------------------------------------

  Dipole Moment: [D]
     X:    -0.3362      Y:     2.6034      Z:     0.0954     Total:     2.6267

*** Psi4 exiting successfully. Buy a developer a beer!
