                               Psi4 1.4a3.dev225

  ==> Input File <==

--------------------------------------------------------------------------
#psi4
#
memory 32 gb

molecule  {
0 1
  O        0.8291000     1.5489640    -0.0096600
  O       -1.9645320    -1.5272950    -0.0272540
  N       -1.2915850     0.6563530    -0.0190760
  C        2.0751456    -0.2287297     0.0054324
  C        0.0783220     0.4095260    -0.0084780
  C        0.8642630    -0.7082250     0.0006420
  C        2.1440040     1.1342220     0.0001060
  C        3.4596960    -1.0625820     0.0169560
  C       -2.2510390    -0.3310160    -0.0197860
  C       -3.6738340     0.1809440     0.0371730
  H        0.5128620    -1.7280920     0.0016880
  H        2.8785440     1.9259390     0.0016350
  H       -1.5656180     1.6316590    -0.0137960
  H        3.5070680    -1.7110750    -0.8631740
  H        4.3526580    -0.4311270     0.0195620
  H        3.4969120    -1.7040060     0.9027390
  H       -3.7998370     1.1241010    -0.5010800
  H       -3.9673170     0.3343150     1.0801190
  H       -4.3271240    -0.5760050    -0.3968180
units angstrom
no_reorient  #important for SAPT in psi4, default
symmetry c1  #important for SAPT in psi4, default
}

set PROPERTIES_ORIGIN ["COM"]
properties('MP2/aug-cc-pvtz', properties = ['dipole'])
--------------------------------------------------------------------------

    Molecular point group: c1
  Charge       = 0
  Multiplicity = 1
  Basis Set: AUG-CC-PVTZ
    Blend: AUG-CC-PVTZ
  Basis Set: (AUG-CC-PVTZ AUX)
    Blend: AUG-CC-PVTZ-JKFIT

    Orbital Energies [Eh]
    ---------------------

    Doubly Occupied:

       1A    -20.623812     2A    -20.535250     3A    -15.619937
       4A    -11.371724     5A    -11.339936     6A    -11.265601
       7A    -11.251005     8A    -11.229516     9A    -11.228098
      10A    -11.206651    11A     -1.464300    12A     -1.390174
      13A     -1.256194    14A     -1.116829    15A     -1.036622
      16A     -0.982949    17A     -0.932286    18A     -0.839526
      19A     -0.801824    20A     -0.773446    21A     -0.714438
      22A     -0.684139    23A     -0.659719    24A     -0.648092
      25A     -0.621586    26A     -0.600552    27A     -0.588331
      28A     -0.572343    29A     -0.570583    30A     -0.558279
      31A     -0.542170    32A     -0.530178    33A     -0.490740
      34A     -0.454995    35A     -0.440398    36A     -0.404125
      37A     -0.280731

  @DF-RHF Final Energy:  -474.62779778926603

   => Energetics <=

    Nuclear Repulsion Energy =            510.8227941227131623
    One-Electron Energy =               -1659.6470290485983696
    Two-Electron Energy =                 674.1964371366192381
    Total Energy =                       -474.6277977892660829
  Basis Set: (AUG-CC-PVTZ AUX)
    Blend: AUG-CC-PVTZ-RI
    Molecular point group: c1

    Geometry (in Angstrom), charge = 0, multiplicity = 1:

       Center              X                  Y                   Z               Mass
    ------------   -----------------  -----------------  -----------------  -----------------
         O            0.849176782791     1.540880933205    -0.007931776491    15.994914619570
         O           -1.944455217209    -1.535378066795    -0.025525776491    15.994914619570
         N           -1.271508217209     0.648269933205    -0.017347776491    14.003074004430
         C            2.095222382791    -0.236812766795     0.007160623509    12.000000000000
         C            0.098398782791     0.401442933205    -0.006749776491    12.000000000000
         C            0.884339782791    -0.716308066795     0.002370223509    12.000000000000
         C            2.164080782791     1.126138933205     0.001834223509    12.000000000000
         C            3.479772782791    -1.070665066795     0.018684223509    12.000000000000
         C           -2.230962217209    -0.339099066795    -0.018057776491    12.000000000000
         C           -3.653757217209     0.172860933205     0.038901223509    12.000000000000
         H            0.532938782791    -1.736175066795     0.003416223509     1.007825032230
         H            2.898620782791     1.917855933205     0.003363223509     1.007825032230
         H           -1.545541217209     1.623575933205    -0.012067776491     1.007825032230
         H            3.527144782791    -1.719158066795    -0.861445776491     1.007825032230
         H            4.372734782791    -0.439210066795     0.021290223509     1.007825032230
         H            3.516988782791    -1.712089066795     0.904467223509     1.007825032230
         H           -3.779760217209     1.116017933205    -0.499351776491     1.007825032230
         H           -3.947240217209     0.326231933205     1.081847223509     1.007825032230
         H           -4.307047217209    -0.584088066795    -0.395089776491     1.007825032230

  Basis Set: AUG-CC-PVTZ
    Blend: AUG-CC-PVTZ
  Basis Set: (AUG-CC-PVTZ AUX)
    Blend: AUG-CC-PVTZ-JKFIT
	 Reference Energy          =    -474.6277977892660260 [Eh]
	 Singles Energy            =      -0.0000000000000000 [Eh]
	 Same-Spin Energy          =      -0.4918337847143719 [Eh]
	 Opposite-Spin Energy      =      -1.5261001869882933 [Eh]
	 Correlation Energy        =      -2.0179339717026652 [Eh]
	 Total Energy              =    -476.6457317609687152 [Eh]

	 ================> DF-SCS-MP2 Energies <==================
	-----------------------------------------------------------
	 SCS Same-Spin Scale       =       0.3333333333333333 [-]
	 SCS Opposite-Spin Scale   =       1.2000000000000000 [-]
	 SCS Same-Spin Energy      =      -0.1639445949047906 [Eh]
	 SCS Opposite-Spin Energy  =      -1.8313202243859519 [Eh]
	 SCS Correlation Energy    =      -1.9952648192907425 [Eh]
	 SCS Total Energy          =    -476.6230626085567792 [Eh]
	-----------------------------------------------------------

  Dipole Moment: [D]
     X:    -0.5291      Y:     2.7020      Z:     0.0940     Total:     2.7549

*** Psi4 exiting successfully. Buy a developer a beer!
