                               Psi4 1.4a3.dev225

  ==> Input File <==

--------------------------------------------------------------------------
#psi4
#
memory 32 gb

molecule  {
0 1
  O        0.8291000     1.5489640    -0.0096600
  O       -1.9645320    -1.5272950    -0.0272540
  N       -1.2915850     0.6563530    -0.0190760
  C        2.2179880    -0.2284570     0.0063820
  C        0.0783220     0.4095260    -0.0084780
  C        0.9010250    -0.8014873     0.0012407
  C        2.1440040     1.1342220     0.0001060
  C        3.4596960    -1.0625820     0.0169560
  C       -2.2510390    -0.3310160    -0.0197860
  C       -3.6738340     0.1809440     0.0371730
  H        0.5128620    -1.7280920     0.0016880
  H        2.8785440     1.9259390     0.0016350
  H       -1.5656180     1.6316590    -0.0137960
  H        3.5070680    -1.7110750    -0.8631740
  H        4.3526580    -0.4311270     0.0195620
  H        3.4969120    -1.7040060     0.9027390
  H       -3.7998370     1.1241010    -0.5010800
  H       -3.9673170     0.3343150     1.0801190
  H       -4.3271240    -0.5760050    -0.3968180
units angstrom
no_reorient  #important for SAPT in psi4, default
symmetry c1  #important for SAPT in psi4, default
}

set PROPERTIES_ORIGIN ["COM"]
properties('MP2/aug-cc-pvtz', properties = ['dipole'])
--------------------------------------------------------------------------

    Molecular point group: c1
  Charge       = 0
  Multiplicity = 1
  Basis Set: AUG-CC-PVTZ
    Blend: AUG-CC-PVTZ
  Basis Set: (AUG-CC-PVTZ AUX)
    Blend: AUG-CC-PVTZ-JKFIT

    Orbital Energies [Eh]
    ---------------------

    Doubly Occupied:

       1A    -20.630363     2A    -20.536266     3A    -15.622241
       4A    -11.372189     5A    -11.352528     6A    -11.270866
       7A    -11.251475     8A    -11.238943     9A    -11.223513
      10A    -11.221319    11A     -1.462513    12A     -1.390610
      13A     -1.257478    14A     -1.092512    15A     -1.036094
      16A     -0.977401    17A     -0.943445    18A     -0.844122
      19A     -0.789335    20A     -0.780773    21A     -0.706223
      22A     -0.684279    23A     -0.656552    24A     -0.653327
      25A     -0.621571    26A     -0.603028    27A     -0.590526
      28A     -0.572887    29A     -0.569079    30A     -0.567634
      31A     -0.543094    32A     -0.533779    33A     -0.504245
      34A     -0.454718    35A     -0.441283    36A     -0.378932
      37A     -0.279381

  @DF-RHF Final Energy:  -474.63825972589063

   => Energetics <=

    Nuclear Repulsion Energy =            507.1855634079240076
    One-Electron Energy =               -1652.3385926175390068
    Two-Electron Energy =                 670.5147694837243080
    Total Energy =                       -474.6382597258906344
  Basis Set: (AUG-CC-PVTZ AUX)
    Blend: AUG-CC-PVTZ-RI
    Molecular point group: c1

    Geometry (in Angstrom), charge = 0, multiplicity = 1:

       Center              X                  Y                   Z               Mass
    ------------   -----------------  -----------------  -----------------  -----------------
         O            0.833678428029     1.548905156498    -0.008065381807    15.994914619570
         O           -1.959953571971    -1.527353843502    -0.025659381807    15.994914619570
         N           -1.287006571971     0.656294156498    -0.017481381807    14.003074004430
         C            2.222566428029    -0.228515843502     0.007976618193    12.000000000000
         C            0.082900428029     0.409467156498    -0.006883381807    12.000000000000
         C            0.905603428029    -0.801546143502     0.002835318193    12.000000000000
         C            2.148582428029     1.134163156498     0.001700618193    12.000000000000
         C            3.464274428029    -1.062640843502     0.018550618193    12.000000000000
         C           -2.246460571971    -0.331074843502    -0.018191381807    12.000000000000
         C           -3.669255571971     0.180885156498     0.038767618193    12.000000000000
         H            0.517440428029    -1.728150843502     0.003282618193     1.007825032230
         H            2.883122428029     1.925880156498     0.003229618193     1.007825032230
         H           -1.561039571971     1.631600156498    -0.012201381807     1.007825032230
         H            3.511646428029    -1.711133843502    -0.861579381807     1.007825032230
         H            4.357236428029    -0.431185843502     0.021156618193     1.007825032230
         H            3.501490428029    -1.704064843502     0.904333618193     1.007825032230
         H           -3.795258571971     1.124042156498    -0.499485381807     1.007825032230
         H           -3.962738571971     0.334256156498     1.081713618193     1.007825032230
         H           -4.322545571971    -0.576063843502    -0.395223381807     1.007825032230

  Basis Set: AUG-CC-PVTZ
    Blend: AUG-CC-PVTZ
  Basis Set: (AUG-CC-PVTZ AUX)
    Blend: AUG-CC-PVTZ-JKFIT
	 Reference Energy          =    -474.6382597258906344 [Eh]
	 Singles Energy            =      -0.0000000000000000 [Eh]
	 Same-Spin Energy          =      -0.4912514582991052 [Eh]
	 Opposite-Spin Energy      =      -1.5266611093817803 [Eh]
	 Correlation Energy        =      -2.0179125676808853 [Eh]
	 Total Energy              =    -476.6561722935715011 [Eh]

	 ================> DF-SCS-MP2 Energies <==================
	-----------------------------------------------------------
	 SCS Same-Spin Scale       =       0.3333333333333333 [-]
	 SCS Opposite-Spin Scale   =       1.2000000000000000 [-]
	 SCS Same-Spin Energy      =      -0.1637504860997017 [Eh]
	 SCS Opposite-Spin Energy  =      -1.8319933312581362 [Eh]
	 SCS Correlation Energy    =      -1.9957438173578379 [Eh]
	 SCS Total Energy          =    -476.6340035432484683 [Eh]
	-----------------------------------------------------------

  Dipole Moment: [D]
     X:    -0.4512      Y:     2.7204      Z:     0.0936     Total:     2.7591

*** Psi4 exiting successfully. Buy a developer a beer!
