                               Psi4 1.4a3.dev225

  ==> Input File <==

--------------------------------------------------------------------------
#psi4
#
memory 32 gb

molecule  {
0 1
  O        0.8291000     1.5489640    -0.0096600
  O       -1.9645320    -1.5272950    -0.0272540
  N       -1.2915850     0.6563530    -0.0190760
  C        2.2179880    -0.2284570     0.0063820
  C        0.0783220     0.4095260    -0.0084780
  C        0.8818301    -0.7551770     0.0009381
  C        2.1440040     1.1342220     0.0001060
  C        3.4596960    -1.0625820     0.0169560
  C       -2.2510390    -0.3310160    -0.0197860
  C       -3.6738340     0.1809440     0.0371730
  H        0.5128620    -1.7280920     0.0016880
  H        2.8785440     1.9259390     0.0016350
  H       -1.5656180     1.6316590    -0.0137960
  H        3.5070680    -1.7110750    -0.8631740
  H        4.3526580    -0.4311270     0.0195620
  H        3.4969120    -1.7040060     0.9027390
  H       -3.7998370     1.1241010    -0.5010800
  H       -3.9673170     0.3343150     1.0801190
  H       -4.3271240    -0.5760050    -0.3968180
units angstrom
no_reorient  #important for SAPT in psi4, default
symmetry c1  #important for SAPT in psi4, default
}

set PROPERTIES_ORIGIN ["COM"]
properties('MP2/aug-cc-pvtz', properties = ['dipole'])
--------------------------------------------------------------------------

    Molecular point group: c1
  Charge       = 0
  Multiplicity = 1
  Basis Set: AUG-CC-PVTZ
    Blend: AUG-CC-PVTZ
  Basis Set: (AUG-CC-PVTZ AUX)
    Blend: AUG-CC-PVTZ-JKFIT

    Orbital Energies [Eh]
    ---------------------

    Doubly Occupied:

       1A    -20.626701     2A    -20.534988     3A    -15.620245
       4A    -11.371149     5A    -11.344837     6A    -11.272138
       7A    -11.250677     8A    -11.237573     9A    -11.224996
      10A    -11.218283    11A     -1.461482    12A     -1.389507
      13A     -1.255942    14A     -1.094441    15A     -1.036257
      16A     -0.982081    17A     -0.943660    18A     -0.841857
      19A     -0.790239    20A     -0.774839    21A     -0.708810
      22A     -0.683410    23A     -0.656653    24A     -0.650196
      25A     -0.620924    26A     -0.600904    27A     -0.585062
      28A     -0.572666    29A     -0.568202    30A     -0.567895
      31A     -0.542280    32A     -0.535989    33A     -0.508390
      34A     -0.454187    35A     -0.439861    36A     -0.380086
      37A     -0.284174

  @DF-RHF Final Energy:  -474.65091216564696

   => Energetics <=

    Nuclear Repulsion Energy =            508.0109151402303382
    One-Electron Energy =               -1654.0604962107597657
    Two-Electron Energy =                 671.3986689048824701
    Total Energy =                       -474.6509121656470143
  Basis Set: (AUG-CC-PVTZ AUX)
    Blend: AUG-CC-PVTZ-RI
    Molecular point group: c1

    Geometry (in Angstrom), charge = 0, multiplicity = 1:

       Center              X                  Y                   Z               Mass
    ------------   -----------------  -----------------  -----------------  -----------------
         O            0.835334787059     1.544908965655    -0.008039269963    15.994914619570
         O           -1.958297212941    -1.531350034345    -0.025633269963    15.994914619570
         N           -1.285350212941     0.652297965655    -0.017455269963    14.003074004430
         C            2.224222787059    -0.232512034345     0.008002730037    12.000000000000
         C            0.084556787059     0.405470965655    -0.006857269963    12.000000000000
         C            0.888064887059    -0.759232034345     0.002558830037    12.000000000000
         C            2.150238787059     1.130166965655     0.001726730037    12.000000000000
         C            3.465930787059    -1.066637034345     0.018576730037    12.000000000000
         C           -2.244804212941    -0.335071034345    -0.018165269963    12.000000000000
         C           -3.667599212941     0.176888965655     0.038793730037    12.000000000000
         H            0.519096787059    -1.732147034345     0.003308730037     1.007825032230
         H            2.884778787059     1.921883965655     0.003255730037     1.007825032230
         H           -1.559383212941     1.627603965655    -0.012175269963     1.007825032230
         H            3.513302787059    -1.715130034345    -0.861553269963     1.007825032230
         H            4.358892787059    -0.435182034345     0.021182730037     1.007825032230
         H            3.503146787059    -1.708061034345     0.904359730037     1.007825032230
         H           -3.793602212941     1.120045965655    -0.499459269963     1.007825032230
         H           -3.961082212941     0.330259965655     1.081739730037     1.007825032230
         H           -4.320889212941    -0.580060034345    -0.395197269963     1.007825032230

  Basis Set: AUG-CC-PVTZ
    Blend: AUG-CC-PVTZ
  Basis Set: (AUG-CC-PVTZ AUX)
    Blend: AUG-CC-PVTZ-JKFIT
	 Reference Energy          =    -474.6509121656469574 [Eh]
	 Singles Energy            =      -0.0000000000000000 [Eh]
	 Same-Spin Energy          =      -0.4904450066639829 [Eh]
	 Opposite-Spin Energy      =      -1.5251368479576188 [Eh]
	 Correlation Energy        =      -2.0155818546216020 [Eh]
	 Total Energy              =    -476.6664940202685443 [Eh]

	 ================> DF-SCS-MP2 Energies <==================
	-----------------------------------------------------------
	 SCS Same-Spin Scale       =       0.3333333333333333 [-]
	 SCS Opposite-Spin Scale   =       1.2000000000000000 [-]
	 SCS Same-Spin Energy      =      -0.1634816688879943 [Eh]
	 SCS Opposite-Spin Energy  =      -1.8301642175491426 [Eh]
	 SCS Correlation Energy    =      -1.9936458864371369 [Eh]
	 SCS Total Energy          =    -476.6445580520841077 [Eh]
	-----------------------------------------------------------

  Dipole Moment: [D]
     X:    -0.4137      Y:     2.6741      Z:     0.0942     Total:     2.7076

*** Psi4 exiting successfully. Buy a developer a beer!
