                               Psi4 1.4a3.dev225

  ==> Input File <==

--------------------------------------------------------------------------
#psi4
#
memory 32 gb

molecule  {
0 1
  O        0.8291000     1.5489640    -0.0096600
  O       -1.9645320    -1.5272950    -0.0272540
  N       -1.2915850     0.6563530    -0.0190760
  C        2.2179880    -0.2284570     0.0063820
  C        0.0783220     0.4095260    -0.0084780
  C        0.8355043    -0.6673248     0.0003083
  C        2.1440040     1.1342220     0.0001060
  C        3.4596960    -1.0625820     0.0169560
  C       -2.2510390    -0.3310160    -0.0197860
  C       -3.6738340     0.1809440     0.0371730
  H        0.5128620    -1.7280920     0.0016880
  H        2.8785440     1.9259390     0.0016350
  H       -1.5656180     1.6316590    -0.0137960
  H        3.5070680    -1.7110750    -0.8631740
  H        4.3526580    -0.4311270     0.0195620
  H        3.4969120    -1.7040060     0.9027390
  H       -3.7998370     1.1241010    -0.5010800
  H       -3.9673170     0.3343150     1.0801190
  H       -4.3271240    -0.5760050    -0.3968180
units angstrom
no_reorient  #important for SAPT in psi4, default
symmetry c1  #important for SAPT in psi4, default
}

set PROPERTIES_ORIGIN ["COM"]
properties('MP2/aug-cc-pvtz', properties = ['dipole'])
--------------------------------------------------------------------------

    Molecular point group: c1
  Charge       = 0
  Multiplicity = 1
  Basis Set: AUG-CC-PVTZ
    Blend: AUG-CC-PVTZ
  Basis Set: (AUG-CC-PVTZ AUX)
    Blend: AUG-CC-PVTZ-JKFIT

    Orbital Energies [Eh]
    ---------------------

    Doubly Occupied:

       1A    -20.619055     2A    -20.532419     3A    -15.616044
       4A    -11.369132     5A    -11.328076     6A    -11.274898
       7A    -11.249108     8A    -11.236845     9A    -11.228041
      10A    -11.211973    11A     -1.460034    12A     -1.387297
      13A     -1.252970    14A     -1.097650    15A     -1.038193
      16A     -0.992511    17A     -0.943779    18A     -0.838980
      19A     -0.792630    20A     -0.763842    21A     -0.713438
      22A     -0.681653    23A     -0.657618    24A     -0.646496
      25A     -0.619701    26A     -0.598281    27A     -0.580805
      28A     -0.570347    29A     -0.569300    30A     -0.561523
      31A     -0.540684    32A     -0.539269    33A     -0.507674
      34A     -0.453578    35A     -0.436388    36A     -0.382181
      37A     -0.295544

  @DF-RHF Final Energy:  -474.65579633772489

   => Energetics <=

    Nuclear Repulsion Energy =            509.6726150139078868
    One-Electron Energy =               -1657.4809051470429040
    Two-Electron Energy =                 673.1524937954100096
    Total Energy =                       -474.6557963377249507
  Basis Set: (AUG-CC-PVTZ AUX)
    Blend: AUG-CC-PVTZ-RI
    Molecular point group: c1

    Geometry (in Angstrom), charge = 0, multiplicity = 1:

       Center              X                  Y                   Z               Mass
    ------------   -----------------  -----------------  -----------------  -----------------
         O            0.839332315422     1.537328056935    -0.007984923500    15.994914619570
         O           -1.954299684578    -1.538930943065    -0.025578923500    15.994914619570
         N           -1.281352684578     0.644717056935    -0.017400923500    14.003074004430
         C            2.228220315422    -0.240092943065     0.008057076500    12.000000000000
         C            0.088554315422     0.397890056935    -0.006802923500    12.000000000000
         C            0.845736615422    -0.678960743065     0.001983376500    12.000000000000
         C            2.154236315422     1.122586056935     0.001781076500    12.000000000000
         C            3.469928315422    -1.074217943065     0.018631076500    12.000000000000
         C           -2.240806684578    -0.342651943065    -0.018110923500    12.000000000000
         C           -3.663601684578     0.169308056935     0.038848076500    12.000000000000
         H            0.523094315422    -1.739727943065     0.003363076500     1.007825032230
         H            2.888776315422     1.914303056935     0.003310076500     1.007825032230
         H           -1.555385684578     1.620023056935    -0.012120923500     1.007825032230
         H            3.517300315422    -1.722710943065    -0.861498923500     1.007825032230
         H            4.362890315422    -0.442762943065     0.021237076500     1.007825032230
         H            3.507144315422    -1.715641943065     0.904414076500     1.007825032230
         H           -3.789604684578     1.112465056935    -0.499404923500     1.007825032230
         H           -3.957084684578     0.322679056935     1.081794076500     1.007825032230
         H           -4.316891684578    -0.587640943065    -0.395142923500     1.007825032230

  Basis Set: AUG-CC-PVTZ
    Blend: AUG-CC-PVTZ
  Basis Set: (AUG-CC-PVTZ AUX)
    Blend: AUG-CC-PVTZ-JKFIT
	 Reference Energy          =    -474.6557963377248939 [Eh]
	 Singles Energy            =      -0.0000000000000000 [Eh]
	 Same-Spin Energy          =      -0.4888805152754749 [Eh]
	 Opposite-Spin Energy      =      -1.5226101020168270 [Eh]
	 Correlation Energy        =      -2.0114906172923019 [Eh]
	 Total Energy              =    -476.6672869550171754 [Eh]

	 ================> DF-SCS-MP2 Energies <==================
	-----------------------------------------------------------
	 SCS Same-Spin Scale       =       0.3333333333333333 [-]
	 SCS Opposite-Spin Scale   =       1.2000000000000000 [-]
	 SCS Same-Spin Energy      =      -0.1629601717584916 [Eh]
	 SCS Opposite-Spin Energy  =      -1.8271321224201924 [Eh]
	 SCS Correlation Energy    =      -1.9900922941786841 [Eh]
	 SCS Total Energy          =    -476.6458886319035742 [Eh]
	-----------------------------------------------------------

  Dipole Moment: [D]
     X:    -0.2957      Y:     2.5769      Z:     0.0957     Total:     2.5955

*** Psi4 exiting successfully. Buy a developer a beer!
