                               Psi4 1.4a3.dev225

  ==> Input File <==

--------------------------------------------------------------------------
#psi4
#
memory 32 gb

molecule  {
0 1
  O        0.8291000     1.5489640    -0.0096600
  O       -1.9645320    -1.5272950    -0.0272540
  N       -1.2915850     0.6563530    -0.0190760
  C        2.2179880    -0.2284570     0.0063820
  C        0.0783220     0.4095260    -0.0084780
  C        0.8642630    -0.7082250     0.0006420
  C        2.1440040     1.1342220     0.0001060
  C        3.4596960    -1.0625820     0.0169560
  C       -2.2510390    -0.3310160    -0.0197860
  C       -3.6738340     0.1809440     0.0371730
  H        0.5128620    -1.7280920     0.0016880
  H        2.8785440     1.9259390     0.0016350
  H       -1.5520933     1.5835236    -0.0140566
  H        3.5070680    -1.7110750    -0.8631740
  H        4.3526580    -0.4311270     0.0195620
  H        3.4969120    -1.7040060     0.9027390
  H       -3.7998370     1.1241010    -0.5010800
  H       -3.9673170     0.3343150     1.0801190
  H       -4.3271240    -0.5760050    -0.3968180
units angstrom
no_reorient  #important for SAPT in psi4, default
symmetry c1  #important for SAPT in psi4, default
}

set PROPERTIES_ORIGIN ["COM"]
properties('MP2/aug-cc-pvtz', properties = ['dipole'])
--------------------------------------------------------------------------

    Molecular point group: c1
  Charge       = 0
  Multiplicity = 1
  Basis Set: AUG-CC-PVTZ
    Blend: AUG-CC-PVTZ
  Basis Set: (AUG-CC-PVTZ AUX)
    Blend: AUG-CC-PVTZ-JKFIT

    Orbital Energies [Eh]
    ---------------------

    Doubly Occupied:

       1A    -20.623198     2A    -20.534077     3A    -15.613969
       4A    -11.370492     5A    -11.336715     6A    -11.273620
       7A    -11.250224     8A    -11.236655     9A    -11.226647
      10A    -11.215352    11A     -1.461129    12A     -1.389182
      13A     -1.260977    14A     -1.097039    15A     -1.037256
      16A     -0.988401    17A     -0.944101    18A     -0.842978
      19A     -0.798436    20A     -0.772483    21A     -0.714380
      22A     -0.683451    23A     -0.657452    24A     -0.648437
      25A     -0.620681    26A     -0.600887    27A     -0.581850
      28A     -0.571586    29A     -0.568936    30A     -0.564402
      31A     -0.542046    32A     -0.539127    33A     -0.510327
      34A     -0.454503    35A     -0.438790    36A     -0.381875
      37A     -0.289605

  @DF-RHF Final Energy:  -474.65652779778134

   => Energetics <=

    Nuclear Repulsion Energy =            509.1930824284907544
    One-Electron Energy =               -1656.4166846847340366
    Two-Electron Energy =                 672.5670744584620024
    Total Energy =                       -474.6565277977813366
  Basis Set: (AUG-CC-PVTZ AUX)
    Blend: AUG-CC-PVTZ-RI
    Molecular point group: c1

    Geometry (in Angstrom), charge = 0, multiplicity = 1:

       Center              X                  Y                   Z               Mass
    ------------   -----------------  -----------------  -----------------  -----------------
         O            0.836752663870     1.541206250178    -0.008011830383    15.994914619570
         O           -1.956879336130    -1.535052749822    -0.025605830383    15.994914619570
         N           -1.283932336130     0.648595250178    -0.017427830383    14.003074004430
         C            2.225640663870    -0.236214749822     0.008030169617    12.000000000000
         C            0.085974663870     0.401768250178    -0.006829830383    12.000000000000
         C            0.871915663870    -0.715982749822     0.002290169617    12.000000000000
         C            2.151656663870     1.126464250178     0.001754169617    12.000000000000
         C            3.467348663870    -1.070339749822     0.018604169617    12.000000000000
         C           -2.243386336130    -0.338773749822    -0.018137830383    12.000000000000
         C           -3.666181336130     0.173186250178     0.038821169617    12.000000000000
         H            0.520514663870    -1.735849749822     0.003336169617     1.007825032230
         H            2.886196663870     1.918181250178     0.003283169617     1.007825032230
         H           -1.544440636130     1.575765850178    -0.012408430383     1.007825032230
         H            3.514720663870    -1.718832749822    -0.861525830383     1.007825032230
         H            4.360310663870    -0.438884749822     0.021210169617     1.007825032230
         H            3.504564663870    -1.711763749822     0.904387169617     1.007825032230
         H           -3.792184336130     1.116343250178    -0.499431830383     1.007825032230
         H           -3.959664336130     0.326557250178     1.081767169617     1.007825032230
         H           -4.319471336130    -0.583762749822    -0.395169830383     1.007825032230

  Basis Set: AUG-CC-PVTZ
    Blend: AUG-CC-PVTZ
  Basis Set: (AUG-CC-PVTZ AUX)
    Blend: AUG-CC-PVTZ-JKFIT
	 Reference Energy          =    -474.6565277977813366 [Eh]
	 Singles Energy            =      -0.0000000000000000 [Eh]
	 Same-Spin Energy          =      -0.4893228483377744 [Eh]
	 Opposite-Spin Energy      =      -1.5229529907633566 [Eh]
	 Correlation Energy        =      -2.0122758391011311 [Eh]
	 Total Energy              =    -476.6688036368824442 [Eh]

	 ================> DF-SCS-MP2 Energies <==================
	-----------------------------------------------------------
	 SCS Same-Spin Scale       =       0.3333333333333333 [-]
	 SCS Opposite-Spin Scale   =       1.2000000000000000 [-]
	 SCS Same-Spin Energy      =      -0.1631076161125914 [Eh]
	 SCS Opposite-Spin Energy  =      -1.8275435889160279 [Eh]
	 SCS Correlation Energy    =      -1.9906512050286194 [Eh]
	 SCS Total Energy          =    -476.6471790028099349 [Eh]
	-----------------------------------------------------------

  Dipole Moment: [D]
     X:    -0.3554      Y:     2.5758      Z:     0.0947     Total:     2.6019

*** Psi4 exiting successfully. Buy a developer a beer!
