                               Psi4 1.4a3.dev225

  ==> Input File <==

--------------------------------------------------------------------------
#psi4
#
memory 32 gb

molecule  {
0 1
  O        0.8291000     1.5489640    -0.0096600
  O       -1.9645320    -1.5272950    -0.0272540
  N       -1.2915850     0.6563530    -0.0190760
  C        2.2179880    -0.2284570     0.0063820
  C        0.0783220     0.4095260    -0.0084780
  C        0.8831140    -0.7015441     0.0007219
  C        2.1440040     1.1342220     0.0001060
  C        3.4596960    -1.0625820     0.0169560
  C       -2.2510390    -0.3310160    -0.0197860
  C       -3.6738340     0.1809440     0.0371730
  H        0.5128620    -1.7280920     0.0016880
  H        2.8785440     1.9259390     0.0016350
  H       -1.5656180     1.6316590    -0.0137960
  H        3.5070680    -1.7110750    -0.8631740
  H        4.3526580    -0.4311270     0.0195620
  H        3.4969120    -1.7040060     0.9027390
  H       -3.7998370     1.1241010    -0.5010800
  H       -3.9673170     0.3343150     1.0801190
  H       -4.3271240    -0.5760050    -0.3968180
units angstrom
no_reorient  #important for SAPT in psi4, default
symmetry c1  #important for SAPT in psi4, default
}

set PROPERTIES_ORIGIN ["COM"]
properties('MP2/aug-cc-pvtz', properties = ['dipole'])
--------------------------------------------------------------------------

    Molecular point group: c1
  Charge       = 0
  Multiplicity = 1
  Basis Set: AUG-CC-PVTZ
    Blend: AUG-CC-PVTZ
  Basis Set: (AUG-CC-PVTZ AUX)
    Blend: AUG-CC-PVTZ-JKFIT

    Orbital Energies [Eh]
    ---------------------

    Doubly Occupied:

       1A    -20.623398     2A    -20.534029     3A    -15.619132
       4A    -11.370485     5A    -11.336918     6A    -11.272849
       7A    -11.250154     8A    -11.234851     9A    -11.226448
      10A    -11.215167    11A     -1.461017    12A     -1.388710
      13A     -1.254877    14A     -1.099702    15A     -1.036641
      16A     -0.986553    17A     -0.944088    18A     -0.840039
      19A     -0.792724    20A     -0.767775    21A     -0.712780
      22A     -0.682701    23A     -0.657199    24A     -0.648671
      25A     -0.620596    26A     -0.599678    27A     -0.581704
      28A     -0.571057    29A     -0.568898    30A     -0.559410
      31A     -0.541729    32A     -0.539648    33A     -0.512141
      34A     -0.453994    35A     -0.438654    36A     -0.383859
      37A     -0.287185

  @DF-RHF Final Energy:  -474.65561203664748

   => Energetics <=

    Nuclear Repulsion Energy =            508.9761175056754041
    One-Electron Energy =               -1656.0325416236062210
    Two-Electron Energy =                 672.4008120812833340
    Total Energy =                       -474.6556120366475398
  Basis Set: (AUG-CC-PVTZ AUX)
    Blend: AUG-CC-PVTZ-RI
    Molecular point group: c1

    Geometry (in Angstrom), charge = 0, multiplicity = 1:

       Center              X                  Y                   Z               Mass
    ------------   -----------------  -----------------  -----------------  -----------------
         O            0.835223997248     1.540280895791    -0.008020613714    15.994914619570
         O           -1.958408002752    -1.535978104209    -0.025614613714    15.994914619570
         N           -1.285461002752     0.647669895791    -0.017436613714    14.003074004430
         C            2.224111997248    -0.237140104209     0.008021386286    12.000000000000
         C            0.084445997248     0.400842895791    -0.006838613714    12.000000000000
         C            0.889237997248    -0.710227204209     0.002361286286    12.000000000000
         C            2.150127997248     1.125538895791     0.001745386286    12.000000000000
         C            3.465819997248    -1.071265104209     0.018595386286    12.000000000000
         C           -2.244915002752    -0.339699104209    -0.018146613714    12.000000000000
         C           -3.667710002752     0.172260895791     0.038812386286    12.000000000000
         H            0.518985997248    -1.736775104209     0.003327386286     1.007825032230
         H            2.884667997248     1.917255895791     0.003274386286     1.007825032230
         H           -1.559494002752     1.622975895791    -0.012156613714     1.007825032230
         H            3.513191997248    -1.719758104209    -0.861534613714     1.007825032230
         H            4.358781997248    -0.439810104209     0.021201386286     1.007825032230
         H            3.503035997248    -1.712689104209     0.904378386286     1.007825032230
         H           -3.793713002752     1.115417895791    -0.499440613714     1.007825032230
         H           -3.961193002752     0.325631895791     1.081758386286     1.007825032230
         H           -4.321000002753    -0.584688104209    -0.395178613714     1.007825032230

  Basis Set: AUG-CC-PVTZ
    Blend: AUG-CC-PVTZ
  Basis Set: (AUG-CC-PVTZ AUX)
    Blend: AUG-CC-PVTZ-JKFIT
	 Reference Energy          =    -474.6556120366474829 [Eh]
	 Singles Energy            =      -0.0000000000000000 [Eh]
	 Same-Spin Energy          =      -0.4901716217314359 [Eh]
	 Opposite-Spin Energy      =      -1.5242815632239084 [Eh]
	 Correlation Energy        =      -2.0144531849553444 [Eh]
	 Total Energy              =    -476.6700652216028402 [Eh]

	 ================> DF-SCS-MP2 Energies <==================
	-----------------------------------------------------------
	 SCS Same-Spin Scale       =       0.3333333333333333 [-]
	 SCS Opposite-Spin Scale   =       1.2000000000000000 [-]
	 SCS Same-Spin Energy      =      -0.1633905405771453 [Eh]
	 SCS Opposite-Spin Energy  =      -1.8291378758686900 [Eh]
	 SCS Correlation Energy    =      -1.9925284164458352 [Eh]
	 SCS Total Energy          =    -476.6481404530933332 [Eh]
	-----------------------------------------------------------

  Dipole Moment: [D]
     X:    -0.3787      Y:     2.6310      Z:     0.0950     Total:     2.6599

*** Psi4 exiting successfully. Buy a developer a beer!
