                               Psi4 1.4a3.dev225

  ==> Input File <==

--------------------------------------------------------------------------
#psi4
#
memory 32 gb

molecule  {
0 1
  O        0.8291000     1.5489640    -0.0096600
  O       -1.9645320    -1.5272950    -0.0272540
  N       -1.2915850     0.6563530    -0.0190760
  C        2.2179880    -0.2284570     0.0063820
  C        0.0783220     0.4095260    -0.0084780
  C        0.7700081    -0.7416295     0.0002423
  C        2.1440040     1.1342220     0.0001060
  C        3.4596960    -1.0625820     0.0169560
  C       -2.2510390    -0.3310160    -0.0197860
  C       -3.6738340     0.1809440     0.0371730
  H        0.5128620    -1.7280920     0.0016880
  H        2.8785440     1.9259390     0.0016350
  H       -1.5656180     1.6316590    -0.0137960
  H        3.5070680    -1.7110750    -0.8631740
  H        4.3526580    -0.4311270     0.0195620
  H        3.4969120    -1.7040060     0.9027390
  H       -3.7998370     1.1241010    -0.5010800
  H       -3.9673170     0.3343150     1.0801190
  H       -4.3271240    -0.5760050    -0.3968180
units angstrom
no_reorient  #important for SAPT in psi4, default
symmetry c1  #important for SAPT in psi4, default
}

set PROPERTIES_ORIGIN ["COM"]
properties('MP2/aug-cc-pvtz', properties = ['dipole'])
--------------------------------------------------------------------------

    Molecular point group: c1
  Charge       = 0
  Multiplicity = 1
  Basis Set: AUG-CC-PVTZ
    Blend: AUG-CC-PVTZ
  Basis Set: (AUG-CC-PVTZ AUX)
    Blend: AUG-CC-PVTZ-JKFIT

    Orbital Energies [Eh]
    ---------------------

    Doubly Occupied:

       1A    -20.621621     2A    -20.532544     3A    -15.614560
       4A    -11.368795     5A    -11.336186     6A    -11.275949
       7A    -11.248888     8A    -11.243431     9A    -11.226821
      10A    -11.215677    11A     -1.459669    12A     -1.387362
      13A     -1.252936    14A     -1.084866    15A     -1.038150
      16A     -0.989529    17A     -0.942735    18A     -0.840823
      19A     -0.788013    20A     -0.773934    21A     -0.708901
      22A     -0.681807    23A     -0.656554    24A     -0.645273
      25A     -0.619328    26A     -0.599850    27A     -0.590531
      28A     -0.579144    29A     -0.568810    30A     -0.568248
      31A     -0.540640    32A     -0.534124    33A     -0.494700
      34A     -0.453164    35A     -0.436060    36A     -0.372466
      37A     -0.298478

  @DF-RHF Final Energy:  -474.64916791866483

   => Energetics <=

    Nuclear Repulsion Energy =            508.4323277610862988
    One-Electron Energy =               -1654.9818543846936336
    Two-Electron Energy =                 671.9003587049425050
    Total Energy =                       -474.6491679186648298
  Basis Set: (AUG-CC-PVTZ AUX)
    Blend: AUG-CC-PVTZ-RI
    Molecular point group: c1

    Geometry (in Angstrom), charge = 0, multiplicity = 1:

       Center              X                  Y                   Z               Mass
    ------------   -----------------  -----------------  -----------------  -----------------
         O            0.844984088670     1.543739929924    -0.007979228253    15.994914619570
         O           -1.948647911330    -1.532519070076    -0.025573228253    15.994914619570
         N           -1.275700911330     0.651128929924    -0.017395228253    14.003074004430
         C            2.233872088670    -0.233681070076     0.008062771747    12.000000000000
         C            0.094206088670     0.404301929924    -0.006797228253    12.000000000000
         C            0.785892188670    -0.746853570076     0.001923071747    12.000000000000
         C            2.159888088670     1.128997929924     0.001786771747    12.000000000000
         C            3.475580088670    -1.067806070076     0.018636771747    12.000000000000
         C           -2.235154911330    -0.336240070076    -0.018105228253    12.000000000000
         C           -3.657949911330     0.175719929924     0.038853771747    12.000000000000
         H            0.528746088670    -1.733316070076     0.003368771747     1.007825032230
         H            2.894428088670     1.920714929924     0.003315771747     1.007825032230
         H           -1.549733911330     1.626434929924    -0.012115228253     1.007825032230
         H            3.522952088670    -1.716299070076    -0.861493228253     1.007825032230
         H            4.368542088670    -0.436351070076     0.021242771747     1.007825032230
         H            3.512796088670    -1.709230070076     0.904419771747     1.007825032230
         H           -3.783952911330     1.118876929924    -0.499399228253     1.007825032230
         H           -3.951432911330     0.329090929924     1.081799771747     1.007825032230
         H           -4.311239911330    -0.581229070076    -0.395137228253     1.007825032230

  Basis Set: AUG-CC-PVTZ
    Blend: AUG-CC-PVTZ
  Basis Set: (AUG-CC-PVTZ AUX)
    Blend: AUG-CC-PVTZ-JKFIT
	 Reference Energy          =    -474.6491679186648298 [Eh]
	 Singles Energy            =      -0.0000000000000000 [Eh]
	 Same-Spin Energy          =      -0.4881384428166489 [Eh]
	 Opposite-Spin Energy      =      -1.5227642414861595 [Eh]
	 Correlation Energy        =      -2.0109026843028084 [Eh]
	 Total Energy              =    -476.6600706029676644 [Eh]

	 ================> DF-SCS-MP2 Energies <==================
	-----------------------------------------------------------
	 SCS Same-Spin Scale       =       0.3333333333333333 [-]
	 SCS Opposite-Spin Scale   =       1.2000000000000000 [-]
	 SCS Same-Spin Energy      =      -0.1627128142722163 [Eh]
	 SCS Opposite-Spin Energy  =      -1.8273170897833912 [Eh]
	 SCS Correlation Energy    =      -1.9900299040556075 [Eh]
	 SCS Total Energy          =    -476.6391978227204618 [Eh]
	-----------------------------------------------------------

  Dipole Moment: [D]
     X:    -0.2790      Y:     2.6112      Z:     0.0950     Total:     2.6278

*** Psi4 exiting successfully. Buy a developer a beer!
