                               Psi4 1.4a3.dev225

  ==> Input File <==

--------------------------------------------------------------------------
#psi4
#
memory 32 gb

molecule  {
0 1
  O        0.8291000     1.5489640    -0.0096600
  O       -1.9645320    -1.5272950    -0.0272540
  N       -1.2915850     0.6563530    -0.0190760
  C        2.2179880    -0.2284570     0.0063820
  C        0.0783220     0.4095260    -0.0084780
  C        0.8642630    -0.7082250     0.0006420
  C        2.1440040     1.1342220     0.0001060
  C        3.4596960    -1.0625820     0.0169560
  C       -2.2510390    -0.3310160    -0.0197860
  C       -3.6738340     0.1809440     0.0371730
  H        0.5128620    -1.7280920     0.0016880
  H        2.8649412     1.9112774     0.0016067
  H       -1.5656180     1.6316590    -0.0137960
  H        3.5070680    -1.7110750    -0.8631740
  H        4.3526580    -0.4311270     0.0195620
  H        3.4969120    -1.7040060     0.9027390
  H       -3.7998370     1.1241010    -0.5010800
  H       -3.9673170     0.3343150     1.0801190
  H       -4.3271240    -0.5760050    -0.3968180
units angstrom
no_reorient  #important for SAPT in psi4, default
symmetry c1  #important for SAPT in psi4, default
}

set PROPERTIES_ORIGIN ["COM"]
properties('MP2/aug-cc-pvtz', properties = ['dipole'])
--------------------------------------------------------------------------

    Molecular point group: c1
  Charge       = 0
  Multiplicity = 1
  Basis Set: AUG-CC-PVTZ
    Blend: AUG-CC-PVTZ
  Basis Set: (AUG-CC-PVTZ AUX)
    Blend: AUG-CC-PVTZ-JKFIT

    Orbital Energies [Eh]
    ---------------------

    Doubly Occupied:

       1A    -20.622769     2A    -20.533734     3A    -15.618313
       4A    -11.370167     5A    -11.336579     6A    -11.271126
       7A    -11.249917     8A    -11.236401     9A    -11.226539
      10A    -11.215028    11A     -1.460577    12A     -1.388426
      13A     -1.254482    14A     -1.096742    15A     -1.036994
      16A     -0.987455    17A     -0.944361    18A     -0.840453
      19A     -0.792948    20A     -0.768981    21A     -0.711545
      22A     -0.683428    23A     -0.656948    24A     -0.649773
      25A     -0.620308    26A     -0.599631    27A     -0.582880
      28A     -0.571568    29A     -0.568793    30A     -0.563980
      31A     -0.541484    32A     -0.538657    33A     -0.510321
      34A     -0.453787    35A     -0.438284    36A     -0.381574
      37A     -0.289171

  @DF-RHF Final Energy:  -474.65695846619724

   => Energetics <=

    Nuclear Repulsion Energy =            508.9835912063450678
    One-Electron Energy =               -1656.0528564919291057
    Two-Electron Energy =                 672.4123068193869130
    Total Energy =                       -474.6569584661972385
  Basis Set: (AUG-CC-PVTZ AUX)
    Blend: AUG-CC-PVTZ-RI
    Molecular point group: c1

    Geometry (in Angstrom), charge = 0, multiplicity = 1:

       Center              X                  Y                   Z               Mass
    ------------   -----------------  -----------------  -----------------  -----------------
         O            0.836949263318     1.540963657584    -0.008013513917    15.994914619570
         O           -1.956682736682    -1.535295342416    -0.025607513917    15.994914619570
         N           -1.283735736682     0.648352657584    -0.017429513917    14.003074004430
         C            2.225837263318    -0.236457342416     0.008028486083    12.000000000000
         C            0.086171263318     0.401525657584    -0.006831513917    12.000000000000
         C            0.872112263318    -0.716225342416     0.002288486083    12.000000000000
         C            2.151853263318     1.126221657584     0.001752486083    12.000000000000
         C            3.467545263318    -1.070582342416     0.018602486083    12.000000000000
         C           -2.243189736682    -0.339016342416    -0.018139513917    12.000000000000
         C           -3.665984736682     0.172943657584     0.038819486083    12.000000000000
         H            0.520711263318    -1.736092342416     0.003334486083     1.007825032230
         H            2.872790463318     1.903277057584     0.003253186083     1.007825032230
         H           -1.557768736682     1.623658657584    -0.012149513917     1.007825032230
         H            3.514917263318    -1.719075342416    -0.861527513917     1.007825032230
         H            4.360507263318    -0.439127342416     0.021208486083     1.007825032230
         H            3.504761263318    -1.712006342416     0.904385486083     1.007825032230
         H           -3.791987736682     1.116100657584    -0.499433513917     1.007825032230
         H           -3.959467736682     0.326314657584     1.081765486083     1.007825032230
         H           -4.319274736682    -0.584005342416    -0.395171513917     1.007825032230

  Basis Set: AUG-CC-PVTZ
    Blend: AUG-CC-PVTZ
  Basis Set: (AUG-CC-PVTZ AUX)
    Blend: AUG-CC-PVTZ-JKFIT
	 Reference Energy          =    -474.6569584661972385 [Eh]
	 Singles Energy            =      -0.0000000000000000 [Eh]
	 Same-Spin Energy          =      -0.4896876599307798 [Eh]
	 Opposite-Spin Energy      =      -1.5236974166381883 [Eh]
	 Correlation Energy        =      -2.0133850765689680 [Eh]
	 Total Energy              =    -476.6703435427662043 [Eh]

	 ================> DF-SCS-MP2 Energies <==================
	-----------------------------------------------------------
	 SCS Same-Spin Scale       =       0.3333333333333333 [-]
	 SCS Opposite-Spin Scale   =       1.2000000000000000 [-]
	 SCS Same-Spin Energy      =      -0.1632292199769266 [Eh]
	 SCS Opposite-Spin Energy  =      -1.8284368999658258 [Eh]
	 SCS Correlation Energy    =      -1.9916661199427523 [Eh]
	 SCS Total Energy          =    -476.6486245861399880 [Eh]
	-----------------------------------------------------------

  Dipole Moment: [D]
     X:    -0.3642      Y:     2.6245      Z:     0.0950     Total:     2.6514

*** Psi4 exiting successfully. Buy a developer a beer!
