                               Psi4 1.4a3.dev225

  ==> Input File <==

--------------------------------------------------------------------------
#psi4
#
memory 32 gb

molecule  {
0 1
  C       -1.8103920    -0.5656140     0.0110420
  H       -1.7413530    -1.5922730    -0.3577540
  H       -2.5229550    -0.0084440    -0.5981450
  H       -2.1872940    -0.5855800     1.0374810
  C       -0.4835800     0.1666070    -0.0168160
  O       -0.4165860     1.3974030    -0.0026360
  N        0.6367381    -0.6517086    -0.0250669
  H        0.4923720    -1.6417740    -0.0116730
  C        1.9669970    -0.1034640     0.0152310
  H        1.8798420     0.9786710    -0.0752970
  H        2.4655150    -0.3449990     0.9590800
  H        2.5643020    -0.4906150    -0.8147010
units angstrom
no_reorient  #important for SAPT in psi4, default
symmetry c1  #important for SAPT in psi4, default
}

set PROPERTIES_ORIGIN ["COM"]
properties('MP2/aug-cc-pvtz', properties = ['dipole'])
--------------------------------------------------------------------------

    Molecular point group: c1
  Charge       = 0
  Multiplicity = 1
  Basis Set: AUG-CC-PVTZ
    Blend: AUG-CC-PVTZ
  Basis Set: (AUG-CC-PVTZ AUX)
    Blend: AUG-CC-PVTZ-JKFIT

    Orbital Energies [Eh]
    ---------------------

    Doubly Occupied:

       1A    -20.516058     2A    -15.586096     3A    -11.353777
       4A    -11.256095     5A    -11.239066     6A     -1.369268
       7A     -1.226157     8A     -1.017087     9A     -0.928092
      10A     -0.786558    11A     -0.689081    12A     -0.650656
      13A     -0.630248    14A     -0.586764    15A     -0.580779
      16A     -0.556931    17A     -0.540493    18A     -0.502441
      19A     -0.422660    20A     -0.389884

  @DF-RHF Final Energy:  -247.10019674107426

   => Energetics <=

    Nuclear Repulsion Energy =            179.4596733723325599
    One-Electron Energy =                -691.4633569904372052
    Two-Electron Energy =                 264.9034868770304456
    Total Energy =                       -247.1001967410742282
  Basis Set: (AUG-CC-PVTZ AUX)
    Blend: AUG-CC-PVTZ-RI
    Molecular point group: c1

    Geometry (in Angstrom), charge = 0, multiplicity = 1:

       Center              X                  Y                   Z               Mass
    ------------   -----------------  -----------------  -----------------  -----------------
         C           -1.800634660362    -0.613277036718     0.012953134286    12.000000000000
         H           -1.731595660362    -1.639936036718    -0.355842865714     1.007825032230
         H           -2.513197660362    -0.056107036718    -0.596233865714     1.007825032230
         H           -2.177536660362    -0.633243036718     1.039392134286     1.007825032230
         C           -0.473822660362     0.118943963282    -0.014904865714    12.000000000000
         O           -0.406828660362     1.349739963282    -0.000724865714    15.994914619570
         N            0.646495439638    -0.699371636718    -0.023155765714    14.003074004430
         H            0.502129339638    -1.689437036718    -0.009761865714     1.007825032230
         C            1.976754339638    -0.151127036718     0.017142134286    12.000000000000
         H            1.889599339638     0.931007963282    -0.073385865714     1.007825032230
         H            2.475272339638    -0.392662036718     0.960991134286     1.007825032230
         H            2.574059339638    -0.538278036718    -0.812789865714     1.007825032230

  Basis Set: AUG-CC-PVTZ
    Blend: AUG-CC-PVTZ
  Basis Set: (AUG-CC-PVTZ AUX)
    Blend: AUG-CC-PVTZ-JKFIT
	 Reference Energy          =    -247.1001967410742566 [Eh]
	 Singles Energy            =      -0.0000000000000000 [Eh]
	 Same-Spin Energy          =      -0.2466282305143063 [Eh]
	 Opposite-Spin Energy      =      -0.8108061493315178 [Eh]
	 Correlation Energy        =      -1.0574343798458241 [Eh]
	 Total Energy              =    -248.1576311209200867 [Eh]

	 ================> DF-SCS-MP2 Energies <==================
	-----------------------------------------------------------
	 SCS Same-Spin Scale       =       0.3333333333333333 [-]
	 SCS Opposite-Spin Scale   =       1.2000000000000000 [-]
	 SCS Same-Spin Energy      =      -0.0822094101714354 [Eh]
	 SCS Opposite-Spin Energy  =      -0.9729673791978214 [Eh]
	 SCS Correlation Energy    =      -1.0551767893692567 [Eh]
	 SCS Total Energy          =    -248.1553735304435122 [Eh]
	-----------------------------------------------------------

  Dipole Moment: [D]
     X:     0.6944      Y:    -3.6478      Z:     0.0676     Total:     3.7139

*** Psi4 exiting successfully. Buy a developer a beer!
