                               Psi4 1.4a3.dev225

  ==> Input File <==

--------------------------------------------------------------------------
#psi4
#
memory 32 gb

molecule  {
0 1
  C       -1.8103920    -0.5656140     0.0110420
  H       -1.7413530    -1.5922730    -0.3577540
  H       -2.5229550    -0.0084440    -0.5981450
  H       -2.1872940    -0.5855800     1.0374810
  C       -0.4835800     0.1666070    -0.0168160
  O       -0.4165860     1.3974030    -0.0026360
  N        0.6205880    -0.6399120    -0.0249480
  H        0.4987186    -1.5921828    -0.0123301
  C        1.9669970    -0.1034640     0.0152310
  H        1.8798420     0.9786710    -0.0752970
  H        2.4655150    -0.3449990     0.9590800
  H        2.5643020    -0.4906150    -0.8147010
units angstrom
no_reorient  #important for SAPT in psi4, default
symmetry c1  #important for SAPT in psi4, default
}

set PROPERTIES_ORIGIN ["COM"]
properties('MP2/aug-cc-pvtz', properties = ['dipole'])
--------------------------------------------------------------------------

    Molecular point group: c1
  Charge       = 0
  Multiplicity = 1
  Basis Set: AUG-CC-PVTZ
    Blend: AUG-CC-PVTZ
  Basis Set: (AUG-CC-PVTZ AUX)
    Blend: AUG-CC-PVTZ-JKFIT

    Orbital Energies [Eh]
    ---------------------

    Doubly Occupied:

       1A    -20.512773     2A    -15.583244     3A    -11.350946
       4A    -11.258048     5A    -11.238147     6A     -1.369364
       7A     -1.233757     8A     -1.016983     9A     -0.931745
      10A     -0.799520    11A     -0.690610    12A     -0.650182
      13A     -0.631564    14A     -0.586419    15A     -0.579001
      16A     -0.556088    17A     -0.543762    18A     -0.503412
      19A     -0.421279    20A     -0.391965

  @DF-RHF Final Energy:  -247.10065394803081

   => Energetics <=

    Nuclear Repulsion Energy =            179.9906265146266264
    One-Electron Energy =                -692.4849461157863288
    Two-Electron Energy =                 265.3936656531289486
    Total Energy =                       -247.1006539480308106
  Basis Set: (AUG-CC-PVTZ AUX)
    Blend: AUG-CC-PVTZ-RI
    Molecular point group: c1

    Geometry (in Angstrom), charge = 0, multiplicity = 1:

       Center              X                  Y                   Z               Mass
    ------------   -----------------  -----------------  -----------------  -----------------
         C           -1.797626495146    -0.616222413514     0.012939408266    12.000000000000
         H           -1.728587495146    -1.642881413514    -0.355856591734     1.007825032230
         H           -2.510189495146    -0.059052413514    -0.596247591734     1.007825032230
         H           -2.174528495146    -0.636188413514     1.039378408266     1.007825032230
         C           -0.470814495146     0.115998586486    -0.014918591734    12.000000000000
         O           -0.403820495146     1.346794586486    -0.000738591734    15.994914619570
         N            0.633353504854    -0.690520413514    -0.023050591734    14.003074004430
         H            0.511484104854    -1.642791213514    -0.010432691734     1.007825032230
         C            1.979762504854    -0.154072413514     0.017128408266    12.000000000000
         H            1.892607504854     0.928062586486    -0.073399591734     1.007825032230
         H            2.478280504854    -0.395607413514     0.960977408266     1.007825032230
         H            2.577067504854    -0.541223413514    -0.812803591734     1.007825032230

  Basis Set: AUG-CC-PVTZ
    Blend: AUG-CC-PVTZ
  Basis Set: (AUG-CC-PVTZ AUX)
    Blend: AUG-CC-PVTZ-JKFIT
	 Reference Energy          =    -247.1006539480308106 [Eh]
	 Singles Energy            =      -0.0000000000000000 [Eh]
	 Same-Spin Energy          =      -0.2462092496478074 [Eh]
	 Opposite-Spin Energy      =      -0.8097653039963361 [Eh]
	 Correlation Energy        =      -1.0559745536441434 [Eh]
	 Total Energy              =    -248.1566285016749589 [Eh]

	 ================> DF-SCS-MP2 Energies <==================
	-----------------------------------------------------------
	 SCS Same-Spin Scale       =       0.3333333333333333 [-]
	 SCS Opposite-Spin Scale   =       1.2000000000000000 [-]
	 SCS Same-Spin Energy      =      -0.0820697498826025 [Eh]
	 SCS Opposite-Spin Energy  =      -0.9717183647956033 [Eh]
	 SCS Correlation Energy    =      -1.0537881146782058 [Eh]
	 SCS Total Energy          =    -248.1544420627090233 [Eh]
	-----------------------------------------------------------

  Dipole Moment: [D]
     X:     0.7892      Y:    -3.6812      Z:     0.0656     Total:     3.7655

*** Psi4 exiting successfully. Buy a developer a beer!
