                               Psi4 1.3.2 release

  ==> Input File <==

--------------------------------------------------------------------------
#psi4
#
memory 32 gb

molecule  {
0 1
  C        1.8115140    -0.5649830    -0.0000040
  H        1.7159910    -1.6536130     0.0002720
  H        2.3774210    -0.2548590     0.8810970
  H        2.3770450    -0.2552970    -0.8815060
  C        0.4821720     0.1627700     0.0001260
  O        0.4244606     1.2940839    -0.0000155
  N       -0.6234180    -0.6408620    -0.0001190
  H       -0.4986210    -1.6430060     0.0003100
  C       -1.9687370    -0.1002510     0.0000180
  H       -1.8734000     0.9850130    -0.0016940
  H       -2.5201200    -0.4159370    -0.8903930
  H       -2.5190110    -0.4131270     0.8921260
units angstrom
no_reorient  #important for SAPT in psi4, default
symmetry c1  #important for SAPT in psi4, default
}

set PROPERTIES_ORIGIN ["COM"]
properties('MP2/aug-cc-pvtz', properties = ['dipole'])
--------------------------------------------------------------------------

    Molecular point group: c1
  Charge       = 0
  Multiplicity = 1
  Basis Set: AUG-CC-PVTZ
    Blend: AUG-CC-PVTZ
  Basis Set: (AUG-CC-PVTZ AUX)
    Blend: AUG-CC-PVTZ-JKFIT

    Orbital Energies [Eh]
    ---------------------

    Doubly Occupied:

       1A    -20.512728     2A    -15.572912     3A    -11.330917
       4A    -11.254251     5A    -11.229043     6A     -1.435638
       7A     -1.223153     8A     -1.009425     9A     -0.925396
      10A     -0.779661    11A     -0.696075    12A     -0.656169
      13A     -0.638225    14A     -0.598525    15A     -0.585160
      16A     -0.549056    17A     -0.541867    18A     -0.521706
      19A     -0.419813    20A     -0.390416

  @DF-RHF Final Energy:  -247.09613347403507

   => Energetics <=

    Nuclear Repulsion Energy =            182.7604160670372266
    One-Electron Energy =                -697.9728262650071429
    Two-Electron Energy =                 268.1162767239348454
    Total Energy =                       -247.0961334740350708
  Basis Set: (AUG-CC-PVTZ AUX)
    Blend: AUG-CC-PVTZ-RI
    Molecular point group: c1

    Geometry (in Angstrom), charge = 0, multiplicity = 1:

       Center              X                  Y                   Z               Mass
    ------------   -----------------  -----------------  -----------------  -----------------
         C            1.797677771982    -0.592576229073    -0.000003717628    12.000000000000
         H            1.702154771982    -1.681206229073     0.000272282372     1.007825032230
         H            2.363584771982    -0.282452229073     0.881097282372     1.007825032230
         H            2.363208771982    -0.282890229073    -0.881505717628     1.007825032230
         C            0.468335771982     0.135176770927     0.000126282372    12.000000000000
         O            0.410624371982     1.266490670927    -0.000015217628    15.994914619570
         N           -0.637254228018    -0.668455229073    -0.000118717628    14.003074004430
         H           -0.512457228018    -1.670599229073     0.000310282372     1.007825032230
         C           -1.982573228018    -0.127844229073     0.000018282372    12.000000000000
         H           -1.887236228018     0.957419770927    -0.001693717628     1.007825032230
         H           -2.533956228018    -0.443530229073    -0.890392717628     1.007825032230
         H           -2.532847228018    -0.440720229073     0.892126282372     1.007825032230

  Basis Set: AUG-CC-PVTZ
    Blend: AUG-CC-PVTZ
  Basis Set: (AUG-CC-PVTZ AUX)
    Blend: AUG-CC-PVTZ-JKFIT
	 Reference Energy          =    -247.0961334740350708 [Eh]
	 Singles Energy            =      -0.0000000000000000 [Eh]
	 Same-Spin Energy          =      -0.2444008322383343 [Eh]
	 Opposite-Spin Energy      =      -0.8051113448954215 [Eh]
	 Correlation Energy        =      -1.0495121771337557 [Eh]
	 Total Energy              =    -248.1456456511688202 [Eh]

	 ================> DF-SCS-MP2 Energies <==================
	-----------------------------------------------------------
	 SCS Same-Spin Scale       =       0.3333333333333333 [-]
	 SCS Opposite-Spin Scale   =       1.2000000000000000 [-]
	 SCS Same-Spin Energy      =      -0.0814669440794447 [Eh]
	 SCS Opposite-Spin Energy  =      -0.9661336138745057 [Eh]
	 SCS Correlation Energy    =      -1.0476005579539505 [Eh]
	 SCS Total Energy          =    -248.1437340319890268 [Eh]
	-----------------------------------------------------------

  Dipole Moment: [D]
     X:    -0.7039      Y:    -3.0996      Z:     0.0007     Total:     3.1786

*** Psi4 exiting successfully. Buy a developer a beer!
