                               Psi4 1.4a3.dev225

  ==> Input File <==

--------------------------------------------------------------------------
#psi4
#
memory 32 gb

molecule  {
0 1
  C       -1.8103920    -0.5656140     0.0110420
  H       -1.7413530    -1.5922730    -0.3577540
  H       -2.5229550    -0.0084440    -0.5981450
  H       -2.1872940    -0.5855800     1.0374810
  C       -0.4398111     0.1907615    -0.0177350
  O       -0.4165860     1.3974030    -0.0026360
  N        0.6205880    -0.6399120    -0.0249480
  H        0.4923720    -1.6417740    -0.0116730
  C        1.9669970    -0.1034640     0.0152310
  H        1.8798420     0.9786710    -0.0752970
  H        2.4655150    -0.3449990     0.9590800
  H        2.5643020    -0.4906150    -0.8147010
units angstrom
no_reorient  #important for SAPT in psi4, default
symmetry c1  #important for SAPT in psi4, default
}

set PROPERTIES_ORIGIN ["COM"]
properties('MP2/aug-cc-pvtz', properties = ['dipole'])
--------------------------------------------------------------------------

    Molecular point group: c1
  Charge       = 0
  Multiplicity = 1
  Basis Set: AUG-CC-PVTZ
    Blend: AUG-CC-PVTZ
  Basis Set: (AUG-CC-PVTZ AUX)
    Blend: AUG-CC-PVTZ-JKFIT

    Orbital Energies [Eh]
    ---------------------

    Doubly Occupied:

       1A    -20.514622     2A    -15.589391     3A    -11.347661
       4A    -11.259036     5A    -11.233832     6A     -1.384701
       7A     -1.237239     8A     -1.004370     9A     -0.928711
      10A     -0.795625    11A     -0.687270    12A     -0.651143
      13A     -0.633347    14A     -0.582203    15A     -0.580637
      16A     -0.550897    17A     -0.543999    18A     -0.511182
      19A     -0.416095    20A     -0.396321

  @DF-RHF Final Energy:  -247.10052607636689

   => Energetics <=

    Nuclear Repulsion Energy =            180.0770442169318528
    One-Electron Energy =                -692.6585716684242016
    Two-Electron Energy =                 265.4810013751254019
    Total Energy =                       -247.1005260763669185
  Basis Set: (AUG-CC-PVTZ AUX)
    Blend: AUG-CC-PVTZ-RI
    Molecular point group: c1

    Geometry (in Angstrom), charge = 0, multiplicity = 1:

       Center              X                  Y                   Z               Mass
    ------------   -----------------  -----------------  -----------------  -----------------
         C           -1.804728629416    -0.619505995607     0.013081302393    12.000000000000
         H           -1.735689629416    -1.646164995607    -0.355714697607     1.007825032230
         H           -2.517291629416    -0.062335995607    -0.596105697607     1.007825032230
         H           -2.181630629416    -0.639471995607     1.039520302393     1.007825032230
         C           -0.434147729416     0.136869504393    -0.015695697607    12.000000000000
         O           -0.410922629416     1.343511004393    -0.000596697607    15.994914619570
         N            0.626251370584    -0.693803995607    -0.022908697607    14.003074004430
         H            0.498035370584    -1.695665995607    -0.009633697607     1.007825032230
         C            1.972660370584    -0.157355995607     0.017270302393    12.000000000000
         H            1.885505370584     0.924779004393    -0.073257697607     1.007825032230
         H            2.471178370584    -0.398890995607     0.961119302393     1.007825032230
         H            2.569965370584    -0.544506995607    -0.812661697607     1.007825032230

  Basis Set: AUG-CC-PVTZ
    Blend: AUG-CC-PVTZ
  Basis Set: (AUG-CC-PVTZ AUX)
    Blend: AUG-CC-PVTZ-JKFIT
	 Reference Energy          =    -247.1005260763668900 [Eh]
	 Singles Energy            =      -0.0000000000000000 [Eh]
	 Same-Spin Energy          =      -0.2458586481974835 [Eh]
	 Opposite-Spin Energy      =      -0.8093059468295086 [Eh]
	 Correlation Energy        =      -1.0551645950269921 [Eh]
	 Total Energy              =    -248.1556906713938702 [Eh]

	 ================> DF-SCS-MP2 Energies <==================
	-----------------------------------------------------------
	 SCS Same-Spin Scale       =       0.3333333333333333 [-]
	 SCS Opposite-Spin Scale   =       1.2000000000000000 [-]
	 SCS Same-Spin Energy      =      -0.0819528827324945 [Eh]
	 SCS Opposite-Spin Energy  =      -0.9711671361954103 [Eh]
	 SCS Correlation Energy    =      -1.0531200189279049 [Eh]
	 SCS Total Energy          =    -248.1536460952947891 [Eh]
	-----------------------------------------------------------

  Dipole Moment: [D]
     X:     1.0393      Y:    -3.6044      Z:     0.0603     Total:     3.7517

*** Psi4 exiting successfully. Buy a developer a beer!
