                               Psi4 1.3.2 release

  ==> Input File <==

--------------------------------------------------------------------------
#psi4
#
memory 32 gb

molecule  {
0 1
  C        1.8115140    -0.5649830    -0.0000040
  H        1.7159910    -1.6536130     0.0002720
  H        2.3774210    -0.2548590     0.8810970
  H        2.3770450    -0.2552970    -0.8815060
  C        0.4821720     0.1627700     0.0001260
  O        0.4623720     1.3953959    -0.0000152
  N       -0.6234180    -0.6408620    -0.0001190
  H       -0.4986210    -1.6430060     0.0003100
  C       -1.9687370    -0.1002510     0.0000180
  H       -1.8734000     0.9850130    -0.0016940
  H       -2.5201200    -0.4159370    -0.8903930
  H       -2.5190110    -0.4131270     0.8921260
units angstrom
no_reorient  #important for SAPT in psi4, default
symmetry c1  #important for SAPT in psi4, default
}

set PROPERTIES_ORIGIN ["COM"]
properties('MP2/aug-cc-pvtz', properties = ['dipole'])
--------------------------------------------------------------------------

    Molecular point group: c1
  Charge       = 0
  Multiplicity = 1
  Basis Set: AUG-CC-PVTZ
    Blend: AUG-CC-PVTZ
  Basis Set: (AUG-CC-PVTZ AUX)
    Blend: AUG-CC-PVTZ-JKFIT

    Orbital Energies [Eh]
    ---------------------

    Doubly Occupied:

       1A    -20.512021     2A    -15.591155     3A    -11.350912
       4A    -11.259854     5A    -11.235621     6A     -1.367875
       7A     -1.230338     8A     -1.014964     9A     -0.930939
      10A     -0.790155    11A     -0.688560    12A     -0.650296
      13A     -0.631508    14A     -0.585991    15A     -0.577921
      16A     -0.552797    17A     -0.545354    18A     -0.501810
      19A     -0.419464    20A     -0.392979

  @DF-RHF Final Energy:  -247.10079835385375

   => Energetics <=

    Nuclear Repulsion Energy =            179.5537164246270549
    One-Electron Energy =                -691.6480011640696830
    Two-Electron Energy =                 264.9934863855888807
    Total Energy =                       -247.1007983538537474
  Basis Set: (AUG-CC-PVTZ AUX)
    Blend: AUG-CC-PVTZ-RI
    Molecular point group: c1

    Geometry (in Angstrom), charge = 0, multiplicity = 1:

       Center              X                  Y                   Z               Mass
    ------------   -----------------  -----------------  -----------------  -----------------
         C            1.789377064737    -0.614758508080    -0.000003783313    12.000000000000
         H            1.693854064737    -1.703388508080     0.000272216687     1.007825032230
         H            2.355284064737    -0.304634508080     0.881097216687     1.007825032230
         H            2.354908064737    -0.305072508080    -0.881505783313     1.007825032230
         C            0.460035064737     0.112994491920     0.000126216687    12.000000000000
         O            0.440235064737     1.345620391920    -0.000014983313    15.994914619570
         N           -0.645554935263    -0.690637508080    -0.000118783313    14.003074004430
         H           -0.520757935263    -1.692781508080     0.000310216687     1.007825032230
         C           -1.990873935263    -0.150026508080     0.000018216687    12.000000000000
         H           -1.895536935263     0.935237491920    -0.001693783313     1.007825032230
         H           -2.542256935263    -0.465712508080    -0.890392783313     1.007825032230
         H           -2.541147935263    -0.462902508080     0.892126216687     1.007825032230

  Basis Set: AUG-CC-PVTZ
    Blend: AUG-CC-PVTZ
  Basis Set: (AUG-CC-PVTZ AUX)
    Blend: AUG-CC-PVTZ-JKFIT
	 Reference Energy          =    -247.1007983538537474 [Eh]
	 Singles Energy            =      -0.0000000000000000 [Eh]
	 Same-Spin Energy          =      -0.2465346851814244 [Eh]
	 Opposite-Spin Energy      =      -0.8106308543581416 [Eh]
	 Correlation Energy        =      -1.0571655395395660 [Eh]
	 Total Energy              =    -248.1579638933933154 [Eh]

	 ================> DF-SCS-MP2 Energies <==================
	-----------------------------------------------------------
	 SCS Same-Spin Scale       =       0.3333333333333333 [-]
	 SCS Opposite-Spin Scale   =       1.2000000000000000 [-]
	 SCS Same-Spin Energy      =      -0.0821782283938081 [Eh]
	 SCS Opposite-Spin Energy  =      -0.9727570252297699 [Eh]
	 SCS Correlation Energy    =      -1.0549352536235781 [Eh]
	 SCS Total Energy          =    -248.1557336074773161 [Eh]
	-----------------------------------------------------------

  Dipole Moment: [D]
     X:    -0.9571      Y:    -3.7108      Z:     0.0006     Total:     3.8322

*** Psi4 exiting successfully. Buy a developer a beer!
