                               Psi4 1.3.2 release

  ==> Input File <==

--------------------------------------------------------------------------
#psi4
#
memory 32 gb

molecule  {
0 1
  C        1.8115140    -0.5649830    -0.0000040
  H        1.7159910    -1.6536130     0.0002720
  H        2.3774210    -0.2548590     0.8810970
  H        2.3770450    -0.2552970    -0.8815060
  C        0.4234203     0.2379344     0.0000697
  O        0.4193660     1.3939540    -0.0000280
  N       -0.6234180    -0.6408620    -0.0001190
  H       -0.4986210    -1.6430060     0.0003100
  C       -1.9687370    -0.1002510     0.0000180
  H       -1.8734000     0.9850130    -0.0016940
  H       -2.5201200    -0.4159370    -0.8903930
  H       -2.5190110    -0.4131270     0.8921260
units angstrom
no_reorient  #important for SAPT in psi4, default
symmetry c1  #important for SAPT in psi4, default
}

set PROPERTIES_ORIGIN ["COM"]
properties('MP2/aug-cc-pvtz', properties = ['dipole'])
--------------------------------------------------------------------------

    Molecular point group: c1
  Charge       = 0
  Multiplicity = 1
  Basis Set: AUG-CC-PVTZ
    Blend: AUG-CC-PVTZ
  Basis Set: (AUG-CC-PVTZ AUX)
    Blend: AUG-CC-PVTZ-JKFIT

    Orbital Energies [Eh]
    ---------------------

    Doubly Occupied:

       1A    -20.524438     2A    -15.583787     3A    -11.346632
       4A    -11.256099     5A    -11.229382     6A     -1.421745
       7A     -1.233510     8A     -0.993599     9A     -0.921769
      10A     -0.794116    11A     -0.689459    12A     -0.654746
      13A     -0.633947    14A     -0.595428    15A     -0.580738
      16A     -0.549014    17A     -0.540475    18A     -0.522123
      19A     -0.412555    20A     -0.398100

  @DF-RHF Final Energy:  -247.09317167791022

   => Energetics <=

    Nuclear Repulsion Energy =            180.4285665483660921
    One-Electron Energy =                -693.2801549830419390
    Two-Electron Energy =                 265.7584167567655982
    Total Energy =                       -247.0931716779102203
  Basis Set: (AUG-CC-PVTZ AUX)
    Blend: AUG-CC-PVTZ-RI
    Molecular point group: c1

    Geometry (in Angstrom), charge = 0, multiplicity = 1:

       Center              X                  Y                   Z               Mass
    ------------   -----------------  -----------------  -----------------  -----------------
         C            1.808444073632    -0.626789671397     0.000008267359    12.000000000000
         H            1.712921073632    -1.715419671397     0.000284267359     1.007825032230
         H            2.374351073632    -0.316665671397     0.881109267359     1.007825032230
         H            2.373975073632    -0.317103671397    -0.881493732641     1.007825032230
         C            0.420350373632     0.176127728603     0.000081967359    12.000000000000
         O            0.416296073632     1.332147328603    -0.000015732641    15.994914619570
         N           -0.626487926368    -0.702668671397    -0.000106732641    14.003074004430
         H           -0.501690926368    -1.704812671397     0.000322267359     1.007825032230
         C           -1.971806926368    -0.162057671397     0.000030267359    12.000000000000
         H           -1.876469926368     0.923206328603    -0.001681732641     1.007825032230
         H           -2.523189926368    -0.477743671397    -0.890380732641     1.007825032230
         H           -2.522080926368    -0.474933671397     0.892138267359     1.007825032230

  Basis Set: AUG-CC-PVTZ
    Blend: AUG-CC-PVTZ
  Basis Set: (AUG-CC-PVTZ AUX)
    Blend: AUG-CC-PVTZ-JKFIT
	 Reference Energy          =    -247.0931716779102203 [Eh]
	 Singles Energy            =      -0.0000000000000000 [Eh]
	 Same-Spin Energy          =      -0.2450527214393856 [Eh]
	 Opposite-Spin Energy      =      -0.8077483495303910 [Eh]
	 Correlation Energy        =      -1.0528010709697766 [Eh]
	 Total Energy              =    -248.1459727488799842 [Eh]

	 ================> DF-SCS-MP2 Energies <==================
	-----------------------------------------------------------
	 SCS Same-Spin Scale       =       0.3333333333333333 [-]
	 SCS Opposite-Spin Scale   =       1.2000000000000000 [-]
	 SCS Same-Spin Energy      =      -0.0816842404797952 [Eh]
	 SCS Opposite-Spin Energy  =      -0.9692980194364691 [Eh]
	 SCS Correlation Energy    =      -1.0509822599162644 [Eh]
	 SCS Total Energy          =    -248.1441539378264736 [Eh]
	-----------------------------------------------------------

  Dipole Moment: [D]
     X:    -1.0497      Y:    -3.2074      Z:     0.0006     Total:     3.3748

*** Psi4 exiting successfully. Buy a developer a beer!
