                               Psi4 1.3.2 release

  ==> Input File <==

--------------------------------------------------------------------------
#psi4
#
memory 32 gb

molecule  {
0 1
  C        1.8115140    -0.5649830    -0.0000040
  H        1.7159910    -1.6536130     0.0002720
  H        2.3774210    -0.2548590     0.8810970
  H        2.3770450    -0.2552970    -0.8815060
  C        0.4821720     0.1627700     0.0001260
  O        0.4193660     1.3939540    -0.0000280
  N       -0.6234180    -0.6408620    -0.0001190
  H       -0.4986210    -1.6430060     0.0003100
  C       -1.8759485    -0.1375377     0.0000086
  H       -1.8734000     0.9850130    -0.0016940
  H       -2.5201200    -0.4159370    -0.8903930
  H       -2.5190110    -0.4131270     0.8921260
units angstrom
no_reorient  #important for SAPT in psi4, default
symmetry c1  #important for SAPT in psi4, default
}

set PROPERTIES_ORIGIN ["COM"]
properties('MP2/aug-cc-pvtz', properties = ['dipole'])
--------------------------------------------------------------------------

    Molecular point group: c1
  Charge       = 0
  Multiplicity = 1
  Basis Set: AUG-CC-PVTZ
    Blend: AUG-CC-PVTZ
  Basis Set: (AUG-CC-PVTZ AUX)
    Blend: AUG-CC-PVTZ-JKFIT

    Orbital Energies [Eh]
    ---------------------

    Doubly Occupied:

       1A    -20.515927     2A    -15.591663     3A    -11.354682
       4A    -11.258460     5A    -11.240689     6A     -1.375242
       7A     -1.253353     8A     -1.022888     9A     -0.924164
      10A     -0.798914    11A     -0.700652    12A     -0.666039
      13A     -0.635625    14A     -0.584106    15A     -0.581895
      16A     -0.562970    17A     -0.518469    18A     -0.497397
      19A     -0.425085    20A     -0.386826

  @DF-RHF Final Energy:  -247.08964934338502

   => Energetics <=

    Nuclear Repulsion Energy =            181.2743864205239106
    One-Electron Energy =                -694.9379811464098111
    Two-Electron Energy =                 266.5739453825008809
    Total Energy =                       -247.0896493433850196
  Basis Set: (AUG-CC-PVTZ AUX)
    Blend: AUG-CC-PVTZ-RI
    Molecular point group: c1

    Geometry (in Angstrom), charge = 0, multiplicity = 1:

       Center              X                  Y                   Z               Mass
    ------------   -----------------  -----------------  -----------------  -----------------
         C            1.783551348099    -0.608317910317     0.000000563339    12.000000000000
         H            1.688028348099    -1.696947910317     0.000276563339     1.007825032230
         H            2.349458348099    -0.298193910317     0.881101563339     1.007825032230
         H            2.349082348099    -0.298631910317    -0.881501436661     1.007825032230
         C            0.454209348099     0.119435089683     0.000130563339    12.000000000000
         O            0.391403348099     1.350619089683    -0.000023436661    15.994914619570
         N           -0.651380651901    -0.684196910317    -0.000114436661    14.003074004430
         H           -0.526583651901    -1.686340910317     0.000314563339     1.007825032230
         C           -1.903911151901    -0.180872610317     0.000013163339    12.000000000000
         H           -1.901362651901     0.941678089683    -0.001689436661     1.007825032230
         H           -2.548082651901    -0.459271910317    -0.890388436661     1.007825032230
         H           -2.546973651901    -0.456461910317     0.892130563339     1.007825032230

  Basis Set: AUG-CC-PVTZ
    Blend: AUG-CC-PVTZ
  Basis Set: (AUG-CC-PVTZ AUX)
    Blend: AUG-CC-PVTZ-JKFIT
	 Reference Energy          =    -247.0896493433850196 [Eh]
	 Singles Energy            =      -0.0000000000000000 [Eh]
	 Same-Spin Energy          =      -0.2475819101389112 [Eh]
	 Opposite-Spin Energy      =      -0.8112869108855777 [Eh]
	 Correlation Energy        =      -1.0588688210244888 [Eh]
	 Total Energy              =    -248.1485181644094951 [Eh]

	 ================> DF-SCS-MP2 Energies <==================
	-----------------------------------------------------------
	 SCS Same-Spin Scale       =       0.3333333333333333 [-]
	 SCS Opposite-Spin Scale   =       1.2000000000000000 [-]
	 SCS Same-Spin Energy      =      -0.0825273033796371 [Eh]
	 SCS Opposite-Spin Energy  =      -0.9735442930626932 [Eh]
	 SCS Correlation Energy    =      -1.0560715964423302 [Eh]
	 SCS Total Energy          =    -248.1457209398273562 [Eh]
	-----------------------------------------------------------

  Dipole Moment: [D]
     X:    -0.5056      Y:    -3.7202      Z:     0.0004     Total:     3.7544

*** Psi4 exiting successfully. Buy a developer a beer!
