                               Psi4 1.3.2 release

  ==> Input File <==

--------------------------------------------------------------------------
#psi4
#
memory 32 gb

molecule  {
0 1
  C        1.8115140    -0.5649830    -0.0000040
  H        1.7159910    -1.6536130     0.0002720
  H        2.3774210    -0.2548590     0.8810970
  H        2.3770450    -0.2552970    -0.8815060
  C        0.4821720     0.1627700     0.0001260
  O        0.4193660     1.3939540    -0.0000280
  N       -0.5425293    -0.5820656    -0.0001011
  H       -0.4986210    -1.6430060     0.0003100
  C       -1.9687370    -0.1002510     0.0000180
  H       -1.8734000     0.9850130    -0.0016940
  H       -2.5201200    -0.4159370    -0.8903930
  H       -2.5190110    -0.4131270     0.8921260
units angstrom
no_reorient  #important for SAPT in psi4, default
symmetry c1  #important for SAPT in psi4, default
}

set PROPERTIES_ORIGIN ["COM"]
properties('MP2/aug-cc-pvtz', properties = ['dipole'])
--------------------------------------------------------------------------

    Molecular point group: c1
  Charge       = 0
  Multiplicity = 1
  Basis Set: AUG-CC-PVTZ
    Blend: AUG-CC-PVTZ
  Basis Set: (AUG-CC-PVTZ AUX)
    Blend: AUG-CC-PVTZ-JKFIT

    Orbital Energies [Eh]
    ---------------------

    Doubly Occupied:

       1A    -20.492843     2A    -15.598843     3A    -11.333672
       4A    -11.268774     5A    -11.231680     6A     -1.369629
       7A     -1.235346     8A     -1.014703     9A     -0.940138
      10A     -0.793246    11A     -0.687593    12A     -0.644658
      13A     -0.637517    14A     -0.583890    15A     -0.569762
      16A     -0.554281    17A     -0.530496    18A     -0.509249
      19A     -0.409663    20A     -0.394147

  @DF-RHF Final Energy:  -247.08744072016617

   => Energetics <=

    Nuclear Repulsion Energy =            181.0667979104810001
    One-Electron Energy =                -694.7082162002070618
    Two-Electron Energy =                 266.5539775695598905
    Total Energy =                       -247.0874407201661711
  Basis Set: (AUG-CC-PVTZ AUX)
    Blend: AUG-CC-PVTZ-RI
    Molecular point group: c1

    Geometry (in Angstrom), charge = 0, multiplicity = 1:

       Center              X                  Y                   Z               Mass
    ------------   -----------------  -----------------  -----------------  -----------------
         C            1.783288134892    -0.625713155527    -0.000004411901    12.000000000000
         H            1.687765134892    -1.714343155527     0.000271588099     1.007825032230
         H            2.349195134892    -0.315589155527     0.881096588099     1.007825032230
         H            2.348819134892    -0.316027155527    -0.881506411901     1.007825032230
         C            0.453946134892     0.102039844473     0.000125588099    12.000000000000
         O            0.391140134892     1.333223844473    -0.000028411901    15.994914619570
         N           -0.570755165108    -0.642795755527    -0.000101511901    14.003074004430
         H           -0.526846865108    -1.703736155527     0.000309588099     1.007825032230
         C           -1.996962865108    -0.160981155527     0.000017588099    12.000000000000
         H           -1.901625865108     0.924282844473    -0.001694411901     1.007825032230
         H           -2.548345865108    -0.476667155527    -0.890393411901     1.007825032230
         H           -2.547236865108    -0.473857155527     0.892125588099     1.007825032230

  Basis Set: AUG-CC-PVTZ
    Blend: AUG-CC-PVTZ
  Basis Set: (AUG-CC-PVTZ AUX)
    Blend: AUG-CC-PVTZ-JKFIT
	 Reference Energy          =    -247.0874407201661711 [Eh]
	 Singles Energy            =      -0.0000000000000000 [Eh]
	 Same-Spin Energy          =      -0.2466061522862753 [Eh]
	 Opposite-Spin Energy      =      -0.8104247839472696 [Eh]
	 Correlation Energy        =      -1.0570309362335448 [Eh]
	 Total Energy              =    -248.1444716563997019 [Eh]

	 ================> DF-SCS-MP2 Energies <==================
	-----------------------------------------------------------
	 SCS Same-Spin Scale       =       0.3333333333333333 [-]
	 SCS Opposite-Spin Scale   =       1.2000000000000000 [-]
	 SCS Same-Spin Energy      =      -0.0822020507620917 [Eh]
	 SCS Opposite-Spin Energy  =      -0.9725097407367235 [Eh]
	 SCS Correlation Energy    =      -1.0547117914988151 [Eh]
	 SCS Total Energy          =    -248.1421525116649889 [Eh]
	-----------------------------------------------------------

  Dipole Moment: [D]
     X:    -1.3284      Y:    -4.0858      Z:     0.0006     Total:     4.2963

*** Psi4 exiting successfully. Buy a developer a beer!
