                               Psi4 1.3.2 release

  ==> Input File <==

--------------------------------------------------------------------------
#psi4
#
memory 32 gb

molecule  {
0 1
  C        1.8115140    -0.5649830    -0.0000040
  H        1.7159910    -1.6536130     0.0002720
  H        2.3774210    -0.2548590     0.8810970
  H        2.3770450    -0.2552970    -0.8815060
  C        0.4821720     0.1627700     0.0001260
  O        0.4193660     1.3939540    -0.0000280
  N       -0.6234180    -0.6408620    -0.0001190
  H       -0.5233361    -1.4445390     0.0002250
  C       -1.9687370    -0.1002510     0.0000180
  H       -1.8734000     0.9850130    -0.0016940
  H       -2.5201200    -0.4159370    -0.8903930
  H       -2.5190110    -0.4131270     0.8921260
units angstrom
no_reorient  #important for SAPT in psi4, default
symmetry c1  #important for SAPT in psi4, default
}

set PROPERTIES_ORIGIN ["COM"]
properties('MP2/aug-cc-pvtz', properties = ['dipole'])
--------------------------------------------------------------------------

    Molecular point group: c1
  Charge       = 0
  Multiplicity = 1
  Basis Set: AUG-CC-PVTZ
    Blend: AUG-CC-PVTZ
  Basis Set: (AUG-CC-PVTZ AUX)
    Blend: AUG-CC-PVTZ-JKFIT

    Orbital Energies [Eh]
    ---------------------

    Doubly Occupied:

       1A    -20.512680     2A    -15.567559     3A    -11.351797
       4A    -11.258423     5A    -11.239069     6A     -1.372178
       7A     -1.260653     8A     -1.017807     9A     -0.941363
      10A     -0.836797    11A     -0.695066    12A     -0.652173
      13A     -0.632836    14A     -0.587175    15A     -0.581066
      16A     -0.562685    17A     -0.545611    18A     -0.503591
      19A     -0.422010    20A     -0.395323

  @DF-RHF Final Energy:  -247.05556427403815

   => Energetics <=

    Nuclear Repulsion Energy =            181.0030618232525796
    One-Electron Energy =                -694.2455288192418266
    Two-Electron Energy =                 266.1869027219511281
    Total Energy =                       -247.0555642740381472
  Basis Set: (AUG-CC-PVTZ AUX)
    Blend: AUG-CC-PVTZ-RI
    Molecular point group: c1

    Geometry (in Angstrom), charge = 0, multiplicity = 1:

       Center              X                  Y                   Z               Mass
    ------------   -----------------  -----------------  -----------------  -----------------
         C            1.799134201320    -0.617180824964     0.000000191897    12.000000000000
         H            1.703611201320    -1.705810824964     0.000276191897     1.007825032230
         H            2.365041201320    -0.307056824964     0.881101191897     1.007825032230
         H            2.364665201320    -0.307494824964    -0.881501808103     1.007825032230
         C            0.469792201320     0.110572175036     0.000130191897    12.000000000000
         O            0.406986201320     1.341756175036    -0.000023808103    15.994914619570
         N           -0.635797798680    -0.693059824964    -0.000114808103    14.003074004430
         H           -0.535715898680    -1.496736824964     0.000229191897     1.007825032230
         C           -1.981116798680    -0.152448824964     0.000022191897    12.000000000000
         H           -1.885779798680     0.932815175036    -0.001689808103     1.007825032230
         H           -2.532499798680    -0.468134824964    -0.890388808103     1.007825032230
         H           -2.531390798680    -0.465324824964     0.892130191897     1.007825032230

  Basis Set: AUG-CC-PVTZ
    Blend: AUG-CC-PVTZ
  Basis Set: (AUG-CC-PVTZ AUX)
    Blend: AUG-CC-PVTZ-JKFIT
	 Reference Energy          =    -247.0555642740381472 [Eh]
	 Singles Energy            =      -0.0000000000000000 [Eh]
	 Same-Spin Energy          =      -0.2453890791213846 [Eh]
	 Opposite-Spin Energy      =      -0.8080531335820835 [Eh]
	 Correlation Energy        =      -1.0534422127034682 [Eh]
	 Total Energy              =    -248.1090064867416061 [Eh]

	 ================> DF-SCS-MP2 Energies <==================
	-----------------------------------------------------------
	 SCS Same-Spin Scale       =       0.3333333333333333 [-]
	 SCS Opposite-Spin Scale   =       1.2000000000000000 [-]
	 SCS Same-Spin Energy      =      -0.0817963597071282 [Eh]
	 SCS Opposite-Spin Energy  =      -0.9696637602985002 [Eh]
	 SCS Correlation Energy    =      -1.0514601200056284 [Eh]
	 SCS Total Energy          =    -248.1070243940437763 [Eh]
	-----------------------------------------------------------

  Dipole Moment: [D]
     X:    -0.7815      Y:    -3.5547      Z:     0.0006     Total:     3.6396

*** Psi4 exiting successfully. Buy a developer a beer!
