                               Psi4 1.3.2 release

  ==> Input File <==

--------------------------------------------------------------------------
#psi4
#
memory 32 gb

molecule  {
0 1
  C        1.8115140    -0.5649830    -0.0000040
  H        1.7159910    -1.6536130     0.0002720
  H        2.3774210    -0.2548590     0.8810970
  H        2.3770450    -0.2552970    -0.8815060
  C        0.4821720     0.1627700     0.0001260
  O        0.4193660     1.3939540    -0.0000280
  N       -0.7851954    -0.7584548    -0.0001549
  H       -0.4986210    -1.6430060     0.0003100
  C       -1.9687370    -0.1002510     0.0000180
  H       -1.8734000     0.9850130    -0.0016940
  H       -2.5201200    -0.4159370    -0.8903930
  H       -2.5190110    -0.4131270     0.8921260
units angstrom
no_reorient  #important for SAPT in psi4, default
symmetry c1  #important for SAPT in psi4, default
}

set PROPERTIES_ORIGIN ["COM"]
properties('MP2/aug-cc-pvtz', properties = ['dipole'])
--------------------------------------------------------------------------

    Molecular point group: c1
  Charge       = 0
  Multiplicity = 1
  Basis Set: AUG-CC-PVTZ
    Blend: AUG-CC-PVTZ
  Basis Set: (AUG-CC-PVTZ AUX)
    Blend: AUG-CC-PVTZ-JKFIT

    Orbital Energies [Eh]
    ---------------------

    Doubly Occupied:

       1A    -20.543026     2A    -15.569347     3A    -11.374173
       4A    -11.249310     5A    -11.242844     6A     -1.378161
       7A     -1.224270     8A     -1.021698     9A     -0.922382
      10A     -0.771388    11A     -0.691210    12A     -0.662638
      13A     -0.626853    14A     -0.604700    15A     -0.594343
      16A     -0.575920    17A     -0.516231    18A     -0.501865
      19A     -0.427348    20A     -0.373966

  @DF-RHF Final Energy:  -247.05247075910989

   => Energetics <=

    Nuclear Repulsion Energy =            177.5392409102452689
    One-Electron Energy =                -687.4400762819306010
    Two-Electron Energy =                 262.8483646125754376
    Total Energy =                       -247.0524707591098945
  Basis Set: (AUG-CC-PVTZ AUX)
    Blend: AUG-CC-PVTZ-RI
    Molecular point group: c1

    Geometry (in Angstrom), charge = 0, multiplicity = 1:

       Center              X                  Y                   Z               Mass
    ------------   -----------------  -----------------  -----------------  -----------------
         C            1.829803436677    -0.591902100462     0.000005900719    12.000000000000
         H            1.734280436677    -1.680532100462     0.000281900719     1.007825032230
         H            2.395710436677    -0.281778100462     0.881106900719     1.007825032230
         H            2.395334436677    -0.282216100462    -0.881496099281     1.007825032230
         C            0.500461436677     0.135850899538     0.000135900719    12.000000000000
         O            0.437655436677     1.367034899538    -0.000018099281    15.994914619570
         N           -0.766905963323    -0.785373900462    -0.000144999281    14.003074004430
         H           -0.480331563323    -1.669925100462     0.000319900719     1.007825032230
         C           -1.950447563323    -0.127170100462     0.000027900719    12.000000000000
         H           -1.855110563323     0.958093899538    -0.001684099281     1.007825032230
         H           -2.501830563323    -0.442856100462    -0.890383099281     1.007825032230
         H           -2.500721563323    -0.440046100462     0.892135900719     1.007825032230

  Basis Set: AUG-CC-PVTZ
    Blend: AUG-CC-PVTZ
  Basis Set: (AUG-CC-PVTZ AUX)
    Blend: AUG-CC-PVTZ-JKFIT
	 Reference Energy          =    -247.0524707591098945 [Eh]
	 Singles Energy            =      -0.0000000000000000 [Eh]
	 Same-Spin Energy          =      -0.2485191133364842 [Eh]
	 Opposite-Spin Energy      =      -0.8152666765262986 [Eh]
	 Correlation Energy        =      -1.0637857898627827 [Eh]
	 Total Energy              =    -248.1162565489726717 [Eh]

	 ================> DF-SCS-MP2 Energies <==================
	-----------------------------------------------------------
	 SCS Same-Spin Scale       =       0.3333333333333333 [-]
	 SCS Opposite-Spin Scale   =       1.2000000000000000 [-]
	 SCS Same-Spin Energy      =      -0.0828397044454947 [Eh]
	 SCS Opposite-Spin Energy  =      -0.9783200118315583 [Eh]
	 SCS Correlation Energy    =      -1.0611597162770530 [Eh]
	 SCS Total Energy          =    -248.1136304753869410 [Eh]
	-----------------------------------------------------------

  Dipole Moment: [D]
     X:     0.2020      Y:    -3.0323      Z:     0.0007     Total:     3.0390

*** Psi4 exiting successfully. Buy a developer a beer!
