                               Psi4 1.3.2 release

  ==> Input File <==

--------------------------------------------------------------------------
#psi4
#
memory 32 gb

molecule  {
0 1
  C        1.8115140    -0.5649830    -0.0000040
  H        1.7159910    -1.6536130     0.0002720
  H        2.3774210    -0.2548590     0.8810970
  H        2.3770450    -0.2552970    -0.8815060
  C        0.5601179     0.0428020     0.0001627
  O        0.4193660     1.3939540    -0.0000280
  N       -0.6234180    -0.6408620    -0.0001190
  H       -0.4986210    -1.6430060     0.0003100
  C       -1.9687370    -0.1002510     0.0000180
  H       -1.8734000     0.9850130    -0.0016940
  H       -2.5201200    -0.4159370    -0.8903930
  H       -2.5190110    -0.4131270     0.8921260
units angstrom
no_reorient  #important for SAPT in psi4, default
symmetry c1  #important for SAPT in psi4, default
}

set PROPERTIES_ORIGIN ["COM"]
properties('MP2/aug-cc-pvtz', properties = ['dipole'])
--------------------------------------------------------------------------

    Molecular point group: c1
  Charge       = 0
  Multiplicity = 1
  Basis Set: AUG-CC-PVTZ
    Blend: AUG-CC-PVTZ
  Basis Set: (AUG-CC-PVTZ AUX)
    Blend: AUG-CC-PVTZ-JKFIT

    Orbital Energies [Eh]
    ---------------------

    Doubly Occupied:

       1A    -20.491771     2A    -15.601171     3A    -11.358417
       4A    -11.263025     5A    -11.244297     6A     -1.313108
       7A     -1.207176     8A     -1.055730     9A     -0.942939
      10A     -0.782898    11A     -0.698712    12A     -0.655400
      13A     -0.636602    14A     -0.597241    15A     -0.579510
      16A     -0.557654    17A     -0.518496    18A     -0.476393
      19A     -0.406566    20A     -0.376002

  @DF-RHF Final Energy:  -247.06154115156957

   => Energetics <=

    Nuclear Repulsion Energy =            178.9102491634334626
    One-Electron Energy =                -690.4173653997836482
    Two-Electron Energy =                 264.4455750847805575
    Total Energy =                       -247.0615411515695996
  Basis Set: (AUG-CC-PVTZ AUX)
    Blend: AUG-CC-PVTZ-RI
    Molecular point group: c1

    Geometry (in Angstrom), charge = 0, multiplicity = 1:

       Center              X                  Y                   Z               Mass
    ------------   -----------------  -----------------  -----------------  -----------------
         C            1.785989465298    -0.594736280442    -0.000007009270    12.000000000000
         H            1.690466465298    -1.683366280442     0.000268990730     1.007825032230
         H            2.351896465298    -0.284612280442     0.881093990730     1.007825032230
         H            2.351520465298    -0.285050280442    -0.881509009270     1.007825032230
         C            0.534593365298     0.013048719558     0.000159690730    12.000000000000
         O            0.393841465298     1.364200719558    -0.000031009270    15.994914619570
         N           -0.648942534702    -0.670615280442    -0.000122009270    14.003074004430
         H           -0.524145534702    -1.672759280442     0.000306990730     1.007825032230
         C           -1.994261534702    -0.130004280442     0.000014990730    12.000000000000
         H           -1.898924534702     0.955259719558    -0.001697009270     1.007825032230
         H           -2.545644534702    -0.445690280442    -0.890396009270     1.007825032230
         H           -2.544535534702    -0.442880280442     0.892122990730     1.007825032230

  Basis Set: AUG-CC-PVTZ
    Blend: AUG-CC-PVTZ
  Basis Set: (AUG-CC-PVTZ AUX)
    Blend: AUG-CC-PVTZ-JKFIT
	 Reference Energy          =    -247.0615411515695712 [Eh]
	 Singles Energy            =      -0.0000000000000000 [Eh]
	 Same-Spin Energy          =      -0.2502305130679573 [Eh]
	 Opposite-Spin Energy      =      -0.8174007439044875 [Eh]
	 Correlation Energy        =      -1.0676312569724447 [Eh]
	 Total Energy              =    -248.1291724085420185 [Eh]

	 ================> DF-SCS-MP2 Energies <==================
	-----------------------------------------------------------
	 SCS Same-Spin Scale       =       0.3333333333333333 [-]
	 SCS Opposite-Spin Scale   =       1.2000000000000000 [-]
	 SCS Same-Spin Energy      =      -0.0834101710226524 [Eh]
	 SCS Opposite-Spin Energy  =      -0.9808808926853849 [Eh]
	 SCS Correlation Energy    =      -1.0642910637080374 [Eh]
	 SCS Total Energy          =    -248.1258322152775975 [Eh]
	-----------------------------------------------------------

  Dipole Moment: [D]
     X:    -0.6448      Y:    -4.3818      Z:     0.0006     Total:     4.4290

*** Psi4 exiting successfully. Buy a developer a beer!
