                               Psi4 1.4a3.dev225

  ==> Input File <==

--------------------------------------------------------------------------
#psi4
#
memory 32 gb

molecule  {
0 1
  C       -1.8103920    -0.5656140     0.0110420
  H       -1.7413530    -1.5922730    -0.3577540
  H       -2.5229550    -0.0084440    -0.5981450
  H       -2.1872940    -0.5855800     1.0374810
  C       -0.4835800     0.1666070    -0.0168160
  O       -0.4165860     1.3974030    -0.0026360
  N        0.6205880    -0.6399120    -0.0249480
  H        0.4860254    -1.6913652    -0.0110159
  C        1.9669970    -0.1034640     0.0152310
  H        1.8798420     0.9786710    -0.0752970
  H        2.4655150    -0.3449990     0.9590800
  H        2.5643020    -0.4906150    -0.8147010
units angstrom
no_reorient  #important for SAPT in psi4, default
symmetry c1  #important for SAPT in psi4, default
}

set PROPERTIES_ORIGIN ["COM"]
properties('MP2/aug-cc-pvtz', properties = ['dipole'])
--------------------------------------------------------------------------

    Molecular point group: c1
  Charge       = 0
  Multiplicity = 1
  Basis Set: AUG-CC-PVTZ
    Blend: AUG-CC-PVTZ
  Basis Set: (AUG-CC-PVTZ AUX)
    Blend: AUG-CC-PVTZ-JKFIT

    Orbital Energies [Eh]
    ---------------------

    Doubly Occupied:

       1A    -20.512352     2A    -15.592696     3A    -11.350660
       4A    -11.258037     5A    -11.237537     6A     -1.368213
       7A     -1.221787     8A     -1.016292     9A     -0.928193
      10A     -0.777234    11A     -0.686492    12A     -0.648987
      13A     -0.630741    14A     -0.585873    15A     -0.577787
      16A     -0.551362    17A     -0.541475    18A     -0.502957
      19A     -0.420580    20A     -0.390284

  @DF-RHF Final Energy:  -247.09726897405261

   => Energetics <=

    Nuclear Repulsion Energy =            179.4389498532757159
    One-Electron Energy =                -691.4733644003808877
    Two-Electron Energy =                 264.9371455730525327
    Total Energy =                       -247.0972689740526107
  Basis Set: (AUG-CC-PVTZ AUX)
    Blend: AUG-CC-PVTZ-RI
    Molecular point group: c1

    Geometry (in Angstrom), charge = 0, multiplicity = 1:

       Center              X                  Y                   Z               Mass
    ------------   -----------------  -----------------  -----------------  -----------------
         C           -1.797451381652    -0.614854107919     0.012921277759    12.000000000000
         H           -1.728412381652    -1.641513107919    -0.355874722241     1.007825032230
         H           -2.510014381652    -0.057684107919    -0.596265722241     1.007825032230
         H           -2.174353381652    -0.634820107919     1.039360277759     1.007825032230
         C           -0.470639381652     0.117366892081    -0.014936722241    12.000000000000
         O           -0.403645381652     1.348162892081    -0.000756722241    15.994914619570
         N            0.633528618348    -0.689152107919    -0.023068722241    14.003074004430
         H            0.498966018348    -1.740605307919    -0.009136622241     1.007825032230
         C            1.979937618348    -0.152704107919     0.017110277759    12.000000000000
         H            1.892782618348     0.929430892081    -0.073417722241     1.007825032230
         H            2.478455618348    -0.394239107919     0.960959277759     1.007825032230
         H            2.577242618348    -0.539855107919    -0.812821722241     1.007825032230

  Basis Set: AUG-CC-PVTZ
    Blend: AUG-CC-PVTZ
  Basis Set: (AUG-CC-PVTZ AUX)
    Blend: AUG-CC-PVTZ-JKFIT
	 Reference Energy          =    -247.0972689740526107 [Eh]
	 Singles Energy            =      -0.0000000000000000 [Eh]
	 Same-Spin Energy          =      -0.2469137245281661 [Eh]
	 Opposite-Spin Energy      =      -0.8115298271082626 [Eh]
	 Correlation Energy        =      -1.0584435516364286 [Eh]
	 Total Energy              =    -248.1557125256890401 [Eh]

	 ================> DF-SCS-MP2 Energies <==================
	-----------------------------------------------------------
	 SCS Same-Spin Scale       =       0.3333333333333333 [-]
	 SCS Opposite-Spin Scale   =       1.2000000000000000 [-]
	 SCS Same-Spin Energy      =      -0.0823045748427220 [Eh]
	 SCS Opposite-Spin Energy  =      -0.9738357925299150 [Eh]
	 SCS Correlation Energy    =      -1.0561403673726371 [Eh]
	 SCS Total Energy          =    -248.1534093414252595 [Eh]
	-----------------------------------------------------------

  Dipole Moment: [D]
     X:     0.8062      Y:    -3.7563      Z:     0.0671     Total:     3.8424

*** Psi4 exiting successfully. Buy a developer a beer!
