                               Psi4 1.3.2 release

  ==> Input File <==

--------------------------------------------------------------------------
#psi4
#
memory 32 gb

molecule  {
0 1
  C        1.8115140    -0.5649830    -0.0000040
  H        1.7159910    -1.6536130     0.0002720
  H        2.3774210    -0.2548590     0.8810970
  H        2.3770450    -0.2552970    -0.8815060
  C        0.4821720     0.1627700     0.0001260
  O        0.4408627     1.3948626    -0.0000216
  N       -0.6234180    -0.6408620    -0.0001190
  H       -0.4986210    -1.6430060     0.0003100
  C       -1.9687370    -0.1002510     0.0000180
  H       -1.8734000     0.9850130    -0.0016940
  H       -2.5201200    -0.4159370    -0.8903930
  H       -2.5190110    -0.4131270     0.8921260
units angstrom
no_reorient  #important for SAPT in psi4, default
symmetry c1  #important for SAPT in psi4, default
}

set PROPERTIES_ORIGIN ["COM"]
properties('MP2/aug-cc-pvtz', properties = ['dipole'])
--------------------------------------------------------------------------

    Molecular point group: c1
  Charge       = 0
  Multiplicity = 1
  Basis Set: AUG-CC-PVTZ
    Blend: AUG-CC-PVTZ
  Basis Set: (AUG-CC-PVTZ AUX)
    Blend: AUG-CC-PVTZ-JKFIT

    Orbital Energies [Eh]
    ---------------------

    Doubly Occupied:

       1A    -20.511749     2A    -15.590112     3A    -11.350878
       4A    -11.258999     5A    -11.236763     6A     -1.368098
       7A     -1.229022     8A     -1.015711     9A     -0.930595
      10A     -0.789328    11A     -0.688682    12A     -0.650128
      13A     -0.631218    14A     -0.586028    15A     -0.578146
      16A     -0.553170    17A     -0.544400    18A     -0.502119
      19A     -0.419983    20A     -0.392123

  @DF-RHF Final Energy:  -247.10106236840880

   => Energetics <=

    Nuclear Repulsion Energy =            179.6281993007350763
    One-Electron Energy =                -691.8040189910872186
    Two-Electron Energy =                 265.0747573219433093
    Total Energy =                       -247.1010623684088046
  Basis Set: (AUG-CC-PVTZ AUX)
    Blend: AUG-CC-PVTZ-RI
    Molecular point group: c1

    Geometry (in Angstrom), charge = 0, multiplicity = 1:

       Center              X                  Y                   Z               Mass
    ------------   -----------------  -----------------  -----------------  -----------------
         C            1.794086529498    -0.614641741957    -0.000002382032    12.000000000000
         H            1.698563529498    -1.703271741957     0.000273617968     1.007825032230
         H            2.359993529498    -0.304517741957     0.881098617968     1.007825032230
         H            2.359617529498    -0.304955741957    -0.881504382032     1.007825032230
         C            0.464744529498     0.113111258043     0.000127617968    12.000000000000
         O            0.423435229498     1.345203858043    -0.000019982032    15.994914619570
         N           -0.640845470502    -0.690520741957    -0.000117382032    14.003074004430
         H           -0.516048470502    -1.692664741957     0.000311617968     1.007825032230
         C           -1.986164470502    -0.149909741957     0.000019617968    12.000000000000
         H           -1.890827470502     0.935354258043    -0.001692382032     1.007825032230
         H           -2.537547470502    -0.465595741957    -0.890391382032     1.007825032230
         H           -2.536438470502    -0.462785741957     0.892127617968     1.007825032230

  Basis Set: AUG-CC-PVTZ
    Blend: AUG-CC-PVTZ
  Basis Set: (AUG-CC-PVTZ AUX)
    Blend: AUG-CC-PVTZ-JKFIT
	 Reference Energy          =    -247.1010623684088046 [Eh]
	 Singles Energy            =      -0.0000000000000000 [Eh]
	 Same-Spin Energy          =      -0.2465666236498596 [Eh]
	 Opposite-Spin Energy      =      -0.8106239281853750 [Eh]
	 Correlation Energy        =      -1.0571905518352345 [Eh]
	 Total Energy              =    -248.1582529202440526 [Eh]

	 ================> DF-SCS-MP2 Energies <==================
	-----------------------------------------------------------
	 SCS Same-Spin Scale       =       0.3333333333333333 [-]
	 SCS Opposite-Spin Scale   =       1.2000000000000000 [-]
	 SCS Same-Spin Energy      =      -0.0821888745499532 [Eh]
	 SCS Opposite-Spin Energy  =      -0.9727487138224500 [Eh]
	 SCS Correlation Energy    =      -1.0549375883724033 [Eh]
	 SCS Total Energy          =    -248.1559999567812156 [Eh]
	-----------------------------------------------------------

  Dipole Moment: [D]
     X:    -0.8873      Y:    -3.7132      Z:     0.0006     Total:     3.8178

*** Psi4 exiting successfully. Buy a developer a beer!
