                               Psi4 1.3.2 release

  ==> Input File <==

--------------------------------------------------------------------------
#psi4
#
memory 32 gb

molecule  {
0 1
  C        1.8590413    -0.4704800    -0.0000248
  H        1.7159910    -1.6536130     0.0002720
  H        2.3774210    -0.2548590     0.8810970
  H        2.3770450    -0.2552970    -0.8815060
  C        0.4821720     0.1627700     0.0001260
  O        0.4193660     1.3939540    -0.0000280
  N       -0.6234180    -0.6408620    -0.0001190
  H       -0.4986210    -1.6430060     0.0003100
  C       -1.9687370    -0.1002510     0.0000180
  H       -1.8734000     0.9850130    -0.0016940
  H       -2.5201200    -0.4159370    -0.8903930
  H       -2.5190110    -0.4131270     0.8921260
units angstrom
no_reorient  #important for SAPT in psi4, default
symmetry c1  #important for SAPT in psi4, default
}

set PROPERTIES_ORIGIN ["COM"]
properties('MP2/aug-cc-pvtz', properties = ['dipole'])
--------------------------------------------------------------------------

    Molecular point group: c1
  Charge       = 0
  Multiplicity = 1
  Basis Set: AUG-CC-PVTZ
    Blend: AUG-CC-PVTZ
  Basis Set: (AUG-CC-PVTZ AUX)
    Blend: AUG-CC-PVTZ-JKFIT

    Orbital Energies [Eh]
    ---------------------

    Doubly Occupied:

       1A    -20.509967     2A    -15.591029     3A    -11.350395
       4A    -11.259469     5A    -11.239363     6A     -1.368849
       7A     -1.227759     8A     -1.015027     9A     -0.933383
      10A     -0.788913    11A     -0.691012    12A     -0.645789
      13A     -0.639769    14A     -0.601891    15A     -0.572154
      16A     -0.546059    17A     -0.533211    18A     -0.509860
      19A     -0.416499    20A     -0.391332

  @DF-RHF Final Energy:  -247.09036299771631

   => Energetics <=

    Nuclear Repulsion Energy =            179.6489240227063817
    One-Electron Energy =                -691.8151153272564216
    Two-Electron Energy =                 265.0758283068337278
    Total Energy =                       -247.0903629977162836
  Basis Set: (AUG-CC-PVTZ AUX)
    Blend: AUG-CC-PVTZ-RI
    Molecular point group: c1

    Geometry (in Angstrom), charge = 0, multiplicity = 1:

       Center              X                  Y                   Z               Mass
    ------------   -----------------  -----------------  -----------------  -----------------
         C            1.838513471525    -0.535463323282    -0.000018364042    12.000000000000
         H            1.695463171525    -1.718596323282     0.000278435958     1.007825032230
         H            2.356893171525    -0.319842323282     0.881103435958     1.007825032230
         H            2.356517171525    -0.320280323282    -0.881499564042     1.007825032230
         C            0.461644171525     0.097786676718     0.000132435958    12.000000000000
         O            0.398838171525     1.328970676718    -0.000021564042    15.994914619570
         N           -0.643945828475    -0.705845323282    -0.000112564042    14.003074004430
         H           -0.519148828475    -1.707989323282     0.000316435958     1.007825032230
         C           -1.989264828475    -0.165234323282     0.000024435958    12.000000000000
         H           -1.893927828475     0.920029676718    -0.001687564042     1.007825032230
         H           -2.540647828475    -0.480920323282    -0.890386564042     1.007825032230
         H           -2.539538828475    -0.478110323282     0.892132435958     1.007825032230

  Basis Set: AUG-CC-PVTZ
    Blend: AUG-CC-PVTZ
  Basis Set: (AUG-CC-PVTZ AUX)
    Blend: AUG-CC-PVTZ-JKFIT
	 Reference Energy          =    -247.0903629977163121 [Eh]
	 Singles Energy            =      -0.0000000000000000 [Eh]
	 Same-Spin Energy          =      -0.2464700777892375 [Eh]
	 Opposite-Spin Energy      =      -0.8109869274205852 [Eh]
	 Correlation Energy        =      -1.0574570052098227 [Eh]
	 Total Energy              =    -248.1478200029261245 [Eh]

	 ================> DF-SCS-MP2 Energies <==================
	-----------------------------------------------------------
	 SCS Same-Spin Scale       =       0.3333333333333333 [-]
	 SCS Opposite-Spin Scale   =       1.2000000000000000 [-]
	 SCS Same-Spin Energy      =      -0.0821566925964125 [Eh]
	 SCS Opposite-Spin Energy  =      -0.9731843129047022 [Eh]
	 SCS Correlation Energy    =      -1.0553410055011148 [Eh]
	 SCS Total Energy          =    -248.1457040032174177 [Eh]
	-----------------------------------------------------------

  Dipole Moment: [D]
     X:    -0.8568      Y:    -3.6337      Z:     0.0006     Total:     3.7333

*** Psi4 exiting successfully. Buy a developer a beer!
