                               Psi4 1.3.2 release

  ==> Input File <==

--------------------------------------------------------------------------
#psi4
#
memory 32 gb

molecule  {
0 1
  C        1.8115140    -0.5649830    -0.0000040
  H        1.7159910    -1.6536130     0.0002720
  H        2.3774210    -0.2548590     0.8810970
  H        2.3770450    -0.2552970    -0.8815060
  C        0.4821720     0.1627700     0.0001260
  O        0.4193660     1.3939540    -0.0000280
  N       -0.6234180    -0.6408620    -0.0001190
  H       -0.5109785    -1.5437725     0.0002675
  C       -1.9687370    -0.1002510     0.0000180
  H       -1.8734000     0.9850130    -0.0016940
  H       -2.5201200    -0.4159370    -0.8903930
  H       -2.5190110    -0.4131270     0.8921260
units angstrom
no_reorient  #important for SAPT in psi4, default
symmetry c1  #important for SAPT in psi4, default
}

set PROPERTIES_ORIGIN ["COM"]
properties('MP2/aug-cc-pvtz', properties = ['dipole'])
--------------------------------------------------------------------------

    Molecular point group: c1
  Charge       = 0
  Multiplicity = 1
  Basis Set: AUG-CC-PVTZ
    Blend: AUG-CC-PVTZ
  Basis Set: (AUG-CC-PVTZ AUX)
    Blend: AUG-CC-PVTZ-JKFIT

    Orbital Energies [Eh]
    ---------------------

    Doubly Occupied:

       1A    -20.511982     2A    -15.578876     3A    -11.351235
       4A    -11.258215     5A    -11.238502     6A     -1.369826
       7A     -1.241725     8A     -1.017147     9A     -0.934610
      10A     -0.812283    11A     -0.692398    12A     -0.651086
      13A     -0.631834    14A     -0.586619    15A     -0.579623
      16A     -0.558436    17A     -0.544857    18A     -0.502947
      19A     -0.421172    20A     -0.393114

  @DF-RHF Final Energy:  -247.09447637551511

   => Energetics <=

    Nuclear Repulsion Energy =            180.3021622150624808
    One-Electron Energy =                -693.0403050160250586
    Two-Electron Energy =                 265.6436664254474636
    Total Energy =                       -247.0944763755151143
  Basis Set: (AUG-CC-PVTZ AUX)
    Blend: AUG-CC-PVTZ-RI
    Molecular point group: c1

    Geometry (in Angstrom), charge = 0, multiplicity = 1:

       Center              X                  Y                   Z               Mass
    ------------   -----------------  -----------------  -----------------  -----------------
         C            1.798963717713    -0.615811814401    -0.000000394427    12.000000000000
         H            1.703440717713    -1.704441814401     0.000275605573     1.007825032230
         H            2.364870717713    -0.305687814401     0.881100605573     1.007825032230
         H            2.364494717713    -0.306125814401    -0.881502394427     1.007825032230
         C            0.469621717713     0.111941185599     0.000129605573    12.000000000000
         O            0.406815717713     1.343125185599    -0.000024394427    15.994914619570
         N           -0.635968282287    -0.691690814401    -0.000115394427    14.003074004430
         H           -0.523528782287    -1.594601314401     0.000271105573     1.007825032230
         C           -1.981287282287    -0.151079814401     0.000021605573    12.000000000000
         H           -1.885950282287     0.934184185599    -0.001690394427     1.007825032230
         H           -2.532670282287    -0.466765814401    -0.890389394427     1.007825032230
         H           -2.531561282287    -0.463955814401     0.892129605573     1.007825032230

  Basis Set: AUG-CC-PVTZ
    Blend: AUG-CC-PVTZ
  Basis Set: (AUG-CC-PVTZ AUX)
    Blend: AUG-CC-PVTZ-JKFIT
	 Reference Energy          =    -247.0944763755151143 [Eh]
	 Singles Energy            =      -0.0000000000000000 [Eh]
	 Same-Spin Energy          =      -0.2459343568675532 [Eh]
	 Opposite-Spin Energy      =      -0.8090865523939275 [Eh]
	 Correlation Energy        =      -1.0550209092614806 [Eh]
	 Total Energy              =    -248.1494972847766007 [Eh]

	 ================> DF-SCS-MP2 Energies <==================
	-----------------------------------------------------------
	 SCS Same-Spin Scale       =       0.3333333333333333 [-]
	 SCS Opposite-Spin Scale   =       1.2000000000000000 [-]
	 SCS Same-Spin Energy      =      -0.0819781189558511 [Eh]
	 SCS Opposite-Spin Energy  =      -0.9709038628727129 [Eh]
	 SCS Correlation Energy    =      -1.0528819818285640 [Eh]
	 SCS Total Energy          =    -248.1473583573436770 [Eh]
	-----------------------------------------------------------

  Dipole Moment: [D]
     X:    -0.7998      Y:    -3.6362      Z:     0.0006     Total:     3.7231

*** Psi4 exiting successfully. Buy a developer a beer!
