                               Psi4 1.3.2 release

  ==> Input File <==

--------------------------------------------------------------------------
#psi4
#
memory 32 gb

molecule  {
0 1
  C        1.8803026    -0.4220422    -0.0000349
  H        1.7159910    -1.6536130     0.0002720
  H        2.3774210    -0.2548590     0.8810970
  H        2.3770450    -0.2552970    -0.8815060
  C        0.4821720     0.1627700     0.0001260
  O        0.4193660     1.3939540    -0.0000280
  N       -0.6234180    -0.6408620    -0.0001190
  H       -0.4986210    -1.6430060     0.0003100
  C       -1.9687370    -0.1002510     0.0000180
  H       -1.8734000     0.9850130    -0.0016940
  H       -2.5201200    -0.4159370    -0.8903930
  H       -2.5190110    -0.4131270     0.8921260
units angstrom
no_reorient  #important for SAPT in psi4, default
symmetry c1  #important for SAPT in psi4, default
}

set PROPERTIES_ORIGIN ["COM"]
properties('MP2/aug-cc-pvtz', properties = ['dipole'])
--------------------------------------------------------------------------

    Molecular point group: c1
  Charge       = 0
  Multiplicity = 1
  Basis Set: AUG-CC-PVTZ
    Blend: AUG-CC-PVTZ
  Basis Set: (AUG-CC-PVTZ AUX)
    Blend: AUG-CC-PVTZ-JKFIT

    Orbital Energies [Eh]
    ---------------------

    Doubly Occupied:

       1A    -20.509621     2A    -15.592130     3A    -11.350861
       4A    -11.260200     5A    -11.241612     6A     -1.369585
       7A     -1.228083     8A     -1.014917     9A     -0.935143
      10A     -0.789451    11A     -0.693484    12A     -0.646968
      13A     -0.644901    14A     -0.607682    15A     -0.573031
      16A     -0.546207    17A     -0.518951    18A     -0.512572
      19A     -0.413880    20A     -0.391598

  @DF-RHF Final Energy:  -247.07778599389263

   => Energetics <=

    Nuclear Repulsion Energy =            179.6343646432966921
    One-Electron Energy =                -691.7425448642392212
    Two-Electron Energy =                 265.0303942270499533
    Total Energy =                       -247.0777859938926326
  Basis Set: (AUG-CC-PVTZ AUX)
    Blend: AUG-CC-PVTZ-RI
    Molecular point group: c1

    Geometry (in Angstrom), charge = 0, multiplicity = 1:

       Center              X                  Y                   Z               Mass
    ------------   -----------------  -----------------  -----------------  -----------------
         C            1.856282287646    -0.494982150374    -0.000026804967    12.000000000000
         H            1.691970687646    -1.726552950374     0.000280095033     1.007825032230
         H            2.353400687646    -0.327798950374     0.881105095033     1.007825032230
         H            2.353024687646    -0.328236950374    -0.881497904967     1.007825032230
         C            0.458151687646     0.089830049626     0.000134095033    12.000000000000
         O            0.395345687646     1.321014049626    -0.000019904967    15.994914619570
         N           -0.647438312354    -0.713801950374    -0.000110904967    14.003074004430
         H           -0.522641312354    -1.715945950374     0.000318095033     1.007825032230
         C           -1.992757312354    -0.173190950374     0.000026095033    12.000000000000
         H           -1.897420312354     0.912073049626    -0.001685904967     1.007825032230
         H           -2.544140312354    -0.488876950374    -0.890384904967     1.007825032230
         H           -2.543031312354    -0.486066950374     0.892134095033     1.007825032230

  Basis Set: AUG-CC-PVTZ
    Blend: AUG-CC-PVTZ
  Basis Set: (AUG-CC-PVTZ AUX)
    Blend: AUG-CC-PVTZ-JKFIT
	 Reference Energy          =    -247.0777859938926326 [Eh]
	 Singles Energy            =      -0.0000000000000000 [Eh]
	 Same-Spin Energy          =      -0.2465528318711576 [Eh]
	 Opposite-Spin Energy      =      -0.8115564199229457 [Eh]
	 Correlation Energy        =      -1.0581092517941033 [Eh]
	 Total Energy              =    -248.1358952456867257 [Eh]

	 ================> DF-SCS-MP2 Energies <==================
	-----------------------------------------------------------
	 SCS Same-Spin Scale       =       0.3333333333333333 [-]
	 SCS Opposite-Spin Scale   =       1.2000000000000000 [-]
	 SCS Same-Spin Energy      =      -0.0821842772903859 [Eh]
	 SCS Opposite-Spin Energy  =      -0.9738677039075347 [Eh]
	 SCS Correlation Energy    =      -1.0560519811979205 [Eh]
	 SCS Total Energy          =    -248.1338379750905574 [Eh]
	-----------------------------------------------------------

  Dipole Moment: [D]
     X:    -0.8833      Y:    -3.5755      Z:     0.0006     Total:     3.6830

*** Psi4 exiting successfully. Buy a developer a beer!
