                               Psi4 1.3.2 release

  ==> Input File <==

--------------------------------------------------------------------------
#psi4
#
memory 32 gb

molecule  {
0 1
  C        1.8115140    -0.5649830    -0.0000040
  H        1.7159910    -1.6536130     0.0002720
  H        2.3774210    -0.2548590     0.8810970
  H        2.3770450    -0.2552970    -0.8815060
  C        0.4821720     0.1627700     0.0001260
  O        0.2910163     1.3806444    -0.0000652
  N       -0.6234180    -0.6408620    -0.0001190
  H       -0.4986210    -1.6430060     0.0003100
  C       -1.9687370    -0.1002510     0.0000180
  H       -1.8734000     0.9850130    -0.0016940
  H       -2.5201200    -0.4159370    -0.8903930
  H       -2.5190110    -0.4131270     0.8921260
units angstrom
no_reorient  #important for SAPT in psi4, default
symmetry c1  #important for SAPT in psi4, default
}

set PROPERTIES_ORIGIN ["COM"]
properties('MP2/aug-cc-pvtz', properties = ['dipole'])
--------------------------------------------------------------------------

    Molecular point group: c1
  Charge       = 0
  Multiplicity = 1
  Basis Set: AUG-CC-PVTZ
    Blend: AUG-CC-PVTZ
  Basis Set: (AUG-CC-PVTZ AUX)
    Blend: AUG-CC-PVTZ-JKFIT

    Orbital Energies [Eh]
    ---------------------

    Doubly Occupied:

       1A    -20.509352     2A    -15.582606     3A    -11.350880
       4A    -11.252547     5A    -11.244661     6A     -1.370721
       7A     -1.219085     8A     -1.020965     9A     -0.927677
      10A     -0.783264    11A     -0.690031    12A     -0.649065
      13A     -0.629683    14A     -0.586056    15A     -0.580452
      16A     -0.555917    17A     -0.535995    18A     -0.503866
      19A     -0.421394    20A     -0.385751

  @DF-RHF Final Energy:  -247.09762403780255

   => Energetics <=

    Nuclear Repulsion Energy =            180.2971830046137427
    One-Electron Energy =                -693.1896762052658687
    Two-Electron Energy =                 265.7948691628495794
    Total Energy =                       -247.0976240378025182
  Basis Set: (AUG-CC-PVTZ AUX)
    Blend: AUG-CC-PVTZ-RI
    Molecular point group: c1

    Geometry (in Angstrom), charge = 0, multiplicity = 1:

       Center              X                  Y                   Z               Mass
    ------------   -----------------  -----------------  -----------------  -----------------
         C            1.826895423341    -0.611528664737     0.000007164195    12.000000000000
         H            1.731372423341    -1.700158664737     0.000283164195     1.007825032230
         H            2.392802423341    -0.301404664737     0.881108164195     1.007825032230
         H            2.392426423341    -0.301842664737    -0.881494835805     1.007825032230
         C            0.497553423341     0.116224335263     0.000137164195    12.000000000000
         O            0.306397723341     1.334098735263    -0.000054035805    15.994914619570
         N           -0.608036576659    -0.687407664737    -0.000107835805    14.003074004430
         H           -0.483239576659    -1.689551664737     0.000321164195     1.007825032230
         C           -1.953355576659    -0.146796664737     0.000029164195    12.000000000000
         H           -1.858018576659     0.938467335263    -0.001682835805     1.007825032230
         H           -2.504738576659    -0.462482664737    -0.890381835805     1.007825032230
         H           -2.503629576659    -0.459672664737     0.892137164195     1.007825032230

  Basis Set: AUG-CC-PVTZ
    Blend: AUG-CC-PVTZ
  Basis Set: (AUG-CC-PVTZ AUX)
    Blend: AUG-CC-PVTZ-JKFIT
	 Reference Energy          =    -247.0976240378025466 [Eh]
	 Singles Energy            =      -0.0000000000000000 [Eh]
	 Same-Spin Energy          =      -0.2470060642522687 [Eh]
	 Opposite-Spin Energy      =      -0.8109804158450167 [Eh]
	 Correlation Energy        =      -1.0579864800972854 [Eh]
	 Total Energy              =    -248.1556105178998450 [Eh]

	 ================> DF-SCS-MP2 Energies <==================
	-----------------------------------------------------------
	 SCS Same-Spin Scale       =       0.3333333333333333 [-]
	 SCS Opposite-Spin Scale   =       1.2000000000000000 [-]
	 SCS Same-Spin Energy      =      -0.0823353547507562 [Eh]
	 SCS Opposite-Spin Energy  =      -0.9731764990140199 [Eh]
	 SCS Correlation Energy    =      -1.0555118537647761 [Eh]
	 SCS Total Energy          =    -248.1531358915673309 [Eh]
	-----------------------------------------------------------

  Dipole Moment: [D]
     X:    -0.3961      Y:    -3.6927      Z:     0.0007     Total:     3.7138

*** Psi4 exiting successfully. Buy a developer a beer!
