                               Psi4 1.3.2 release

  ==> Input File <==

--------------------------------------------------------------------------
#psi4
#
memory 32 gb

molecule  {
0 1
  C        1.8115140    -0.5649830    -0.0000040
  H        1.7159910    -1.6536130     0.0002720
  H        2.3774210    -0.2548590     0.8810970
  H        2.3770450    -0.2552970    -0.8815060
  C        0.4534522     0.2008650     0.0001132
  O        0.4193660     1.3939540    -0.0000280
  N       -0.6234180    -0.6408620    -0.0001190
  H       -0.4986210    -1.6430060     0.0003100
  C       -1.9687370    -0.1002510     0.0000180
  H       -1.8734000     0.9850130    -0.0016940
  H       -2.5201200    -0.4159370    -0.8903930
  H       -2.5190110    -0.4131270     0.8921260
units angstrom
no_reorient  #important for SAPT in psi4, default
symmetry c1  #important for SAPT in psi4, default
}

set PROPERTIES_ORIGIN ["COM"]
properties('MP2/aug-cc-pvtz', properties = ['dipole'])
--------------------------------------------------------------------------

    Molecular point group: c1
  Charge       = 0
  Multiplicity = 1
  Basis Set: AUG-CC-PVTZ
    Blend: AUG-CC-PVTZ
  Basis Set: (AUG-CC-PVTZ AUX)
    Blend: AUG-CC-PVTZ-JKFIT

    Orbital Energies [Eh]
    ---------------------

    Doubly Occupied:

       1A    -20.517840     2A    -15.586054     3A    -11.348455
       4A    -11.256933     5A    -11.234204     6A     -1.393954
       7A     -1.230928     8A     -1.004599     9A     -0.926029
      10A     -0.791042    11A     -0.687839    12A     -0.651792
      13A     -0.631542    14A     -0.587379    15A     -0.582800
      16A     -0.549667    17A     -0.543027    18A     -0.512725
      19A     -0.418676    20A     -0.394913

  @DF-RHF Final Energy:  -247.10087747293133

   => Energetics <=

    Nuclear Repulsion Energy =            180.0510359324276521
    One-Electron Energy =                -692.6030343284194259
    Two-Electron Energy =                 265.4511209230604436
    Total Energy =                       -247.1008774729313018
  Basis Set: (AUG-CC-PVTZ AUX)
    Blend: AUG-CC-PVTZ-RI
    Molecular point group: c1

    Geometry (in Angstrom), charge = 0, multiplicity = 1:

       Center              X                  Y                   Z               Mass
    ------------   -----------------  -----------------  -----------------  -----------------
         C            1.803510888616    -0.620700472624     0.000001121839    12.000000000000
         H            1.707987888616    -1.709330472624     0.000277121839     1.007825032230
         H            2.369417888616    -0.310576472624     0.881102121839     1.007825032230
         H            2.369041888616    -0.311014472624    -0.881500878161     1.007825032230
         C            0.445449088616     0.145147527376     0.000118321839    12.000000000000
         O            0.411362888616     1.338236527376    -0.000022878161    15.994914619570
         N           -0.631421111384    -0.696579472624    -0.000113878161    14.003074004430
         H           -0.506624111384    -1.698723472624     0.000315121839     1.007825032230
         C           -1.976740111384    -0.155968472624     0.000023121839    12.000000000000
         H           -1.881403111384     0.929295527376    -0.001688878161     1.007825032230
         H           -2.528123111384    -0.471654472624    -0.890387878161     1.007825032230
         H           -2.527014111384    -0.468844472624     0.892131121839     1.007825032230

  Basis Set: AUG-CC-PVTZ
    Blend: AUG-CC-PVTZ
  Basis Set: (AUG-CC-PVTZ AUX)
    Blend: AUG-CC-PVTZ-JKFIT
	 Reference Energy          =    -247.1008774729313302 [Eh]
	 Singles Energy            =      -0.0000000000000000 [Eh]
	 Same-Spin Energy          =      -0.2457284620280172 [Eh]
	 Opposite-Spin Energy      =      -0.8089975169684022 [Eh]
	 Correlation Energy        =      -1.0547259789964194 [Eh]
	 Total Energy              =    -248.1556034519277603 [Eh]

	 ================> DF-SCS-MP2 Energies <==================
	-----------------------------------------------------------
	 SCS Same-Spin Scale       =       0.3333333333333333 [-]
	 SCS Opposite-Spin Scale   =       1.2000000000000000 [-]
	 SCS Same-Spin Energy      =      -0.0819094873426724 [Eh]
	 SCS Opposite-Spin Energy  =      -0.9707970203620826 [Eh]
	 SCS Correlation Energy    =      -1.0527065077047550 [Eh]
	 SCS Total Energy          =    -248.1535839806360855 [Eh]
	-----------------------------------------------------------

  Dipole Moment: [D]
     X:    -0.9172      Y:    -3.4687      Z:     0.0006     Total:     3.5879

*** Psi4 exiting successfully. Buy a developer a beer!
