                               Psi4 1.3.2 release

  ==> Input File <==

--------------------------------------------------------------------------
#psi4
#
memory 32 gb

molecule  {
0 1
  C        1.8115140    -0.5649830    -0.0000040
  H        1.7159910    -1.6536130     0.0002720
  H        2.3774210    -0.2548590     0.8810970
  H        2.3770450    -0.2552970    -0.8815060
  C        0.4960289     0.1433524     0.0001206
  O        0.4193660     1.3939540    -0.0000280
  N       -0.6234180    -0.6408620    -0.0001190
  H       -0.4986210    -1.6430060     0.0003100
  C       -1.9687370    -0.1002510     0.0000180
  H       -1.8734000     0.9850130    -0.0016940
  H       -2.5201200    -0.4159370    -0.8903930
  H       -2.5190110    -0.4131270     0.8921260
units angstrom
no_reorient  #important for SAPT in psi4, default
symmetry c1  #important for SAPT in psi4, default
}

set PROPERTIES_ORIGIN ["COM"]
properties('MP2/aug-cc-pvtz', properties = ['dipole'])
--------------------------------------------------------------------------

    Molecular point group: c1
  Charge       = 0
  Multiplicity = 1
  Basis Set: AUG-CC-PVTZ
    Blend: AUG-CC-PVTZ
  Basis Set: (AUG-CC-PVTZ AUX)
    Blend: AUG-CC-PVTZ-JKFIT

    Orbital Energies [Eh]
    ---------------------

    Doubly Occupied:

       1A    -20.508283     2A    -15.590798     3A    -11.352162
       4A    -11.258829     5A    -11.239395     6A     -1.356638
       7A     -1.225603     8A     -1.022672     9A     -0.932333
      10A     -0.787375    11A     -0.689953    12A     -0.649735
      13A     -0.631186    14A     -0.587895    15A     -0.573760
      16A     -0.556749    17A     -0.542280    18A     -0.497351
      19A     -0.419815    20A     -0.389181

  @DF-RHF Final Energy:  -247.09860968922811

   => Energetics <=

    Nuclear Repulsion Energy =            179.5503200350174779
    One-Electron Energy =                -691.6738755944865034
    Two-Electron Energy =                 265.0249458702408560
    Total Energy =                       -247.0986096892281125
  Basis Set: (AUG-CC-PVTZ AUX)
    Blend: AUG-CC-PVTZ-RI
    Molecular point group: c1

    Geometry (in Angstrom), charge = 0, multiplicity = 1:

       Center              X                  Y                   Z               Mass
    ------------   -----------------  -----------------  -----------------  -----------------
         C            1.796517034133    -0.611253175032    -0.000000093721    12.000000000000
         H            1.700994034133    -1.699883175032     0.000275906279     1.007825032230
         H            2.362424034133    -0.301129175032     0.881100906279     1.007825032230
         H            2.362048034133    -0.301567175032    -0.881502093721     1.007825032230
         C            0.481031934133     0.097082224968     0.000124506279    12.000000000000
         O            0.404369034133     1.347683824968    -0.000024093721    15.994914619570
         N           -0.638414965867    -0.687132175032    -0.000115093721    14.003074004430
         H           -0.513617965867    -1.689276175032     0.000313906279     1.007825032230
         C           -1.983733965867    -0.146521175032     0.000021906279    12.000000000000
         H           -1.888396965867     0.938742824968    -0.001690093721     1.007825032230
         H           -2.535116965867    -0.462207175032    -0.890389093721     1.007825032230
         H           -2.534007965867    -0.459397175032     0.892129906279     1.007825032230

  Basis Set: AUG-CC-PVTZ
    Blend: AUG-CC-PVTZ
  Basis Set: (AUG-CC-PVTZ AUX)
    Blend: AUG-CC-PVTZ-JKFIT
	 Reference Energy          =    -247.0986096892281125 [Eh]
	 Singles Energy            =      -0.0000000000000000 [Eh]
	 Same-Spin Energy          =      -0.2471159746036226 [Eh]
	 Opposite-Spin Energy      =      -0.8115824927146421 [Eh]
	 Correlation Energy        =      -1.0586984673182647 [Eh]
	 Total Energy              =    -248.1573081565463781 [Eh]

	 ================> DF-SCS-MP2 Energies <==================
	-----------------------------------------------------------
	 SCS Same-Spin Scale       =       0.3333333333333333 [-]
	 SCS Opposite-Spin Scale   =       1.2000000000000000 [-]
	 SCS Same-Spin Energy      =      -0.0823719915345409 [Eh]
	 SCS Opposite-Spin Energy  =      -0.9738989912575705 [Eh]
	 SCS Correlation Energy    =      -1.0562709827921113 [Eh]
	 SCS Total Energy          =    -248.1548806720202265 [Eh]
	-----------------------------------------------------------

  Dipole Moment: [D]
     X:    -0.7774      Y:    -3.8318      Z:     0.0006     Total:     3.9099

*** Psi4 exiting successfully. Buy a developer a beer!
