                               Psi4 1.4a3.dev225

  ==> Input File <==

--------------------------------------------------------------------------
#psi4
#
memory 32 gb

molecule  {
0 1
  C       -1.8103920    -0.5656140     0.0110420
  H       -1.7413530    -1.5922730    -0.3577540
  H       -2.5229550    -0.0084440    -0.5981450
  H       -2.1872940    -0.5855800     1.0374810
  C       -0.4835800     0.1666070    -0.0168160
  O       -0.4165860     1.3974030    -0.0026360
  N        0.6205880    -0.6399120    -0.0249480
  H        0.4923720    -1.6417740    -0.0116730
  C        1.9484246    -0.1108638     0.0146768
  H        1.8798420     0.9786710    -0.0752970
  H        2.4655150    -0.3449990     0.9590800
  H        2.5643020    -0.4906150    -0.8147010
units angstrom
no_reorient  #important for SAPT in psi4, default
symmetry c1  #important for SAPT in psi4, default
}

set PROPERTIES_ORIGIN ["COM"]
properties('MP2/aug-cc-pvtz', properties = ['dipole'])
--------------------------------------------------------------------------

    Molecular point group: c1
  Charge       = 0
  Multiplicity = 1
  Basis Set: AUG-CC-PVTZ
    Blend: AUG-CC-PVTZ
  Basis Set: (AUG-CC-PVTZ AUX)
    Blend: AUG-CC-PVTZ-JKFIT

    Orbital Energies [Eh]
    ---------------------

    Doubly Occupied:

       1A    -20.513366     2A    -15.588784     3A    -11.351523
       4A    -11.257816     5A    -11.238385     6A     -1.369918
       7A     -1.231919     8A     -1.017820     9A     -0.928414
      10A     -0.789907    11A     -0.690586    12A     -0.653071
      13A     -0.631690    14A     -0.584953    15A     -0.579289
      16A     -0.555776    17A     -0.538433    18A     -0.502335
      19A     -0.421807    20A     -0.390610

  @DF-RHF Final Energy:  -247.10058775577636

   => Energetics <=

    Nuclear Repulsion Energy =            180.0063350635584527
    One-Electron Energy =                -692.5410435837327441
    Two-Electron Energy =                 265.4341207643979033
    Total Energy =                       -247.1005877557763597
  Basis Set: (AUG-CC-PVTZ AUX)
    Blend: AUG-CC-PVTZ-RI
    Molecular point group: c1

    Geometry (in Angstrom), charge = 0, multiplicity = 1:

       Center              X                  Y                   Z               Mass
    ------------   -----------------  -----------------  -----------------  -----------------
         C           -1.794488146228    -0.614322733811     0.013021378582    12.000000000000
         H           -1.725449146228    -1.640981733811    -0.355774621418     1.007825032230
         H           -2.507051146228    -0.057152733811    -0.596165621418     1.007825032230
         H           -2.171390146228    -0.634288733811     1.039460378582     1.007825032230
         C           -0.467676146228     0.117898266189    -0.014836621418    12.000000000000
         O           -0.400682146228     1.348694266189    -0.000656621418    15.994914619570
         N            0.636491853772    -0.688620733811    -0.022968621418    14.003074004430
         H            0.508275853772    -1.690482733811    -0.009693621418     1.007825032230
         C            1.964328453772    -0.159572533811     0.016656178582    12.000000000000
         H            1.895745853772     0.929962266189    -0.073317621418     1.007825032230
         H            2.481418853772    -0.393707733811     0.961059378582     1.007825032230
         H            2.580205853772    -0.539323733811    -0.812721621418     1.007825032230

  Basis Set: AUG-CC-PVTZ
    Blend: AUG-CC-PVTZ
  Basis Set: (AUG-CC-PVTZ AUX)
    Blend: AUG-CC-PVTZ-JKFIT
	 Reference Energy          =    -247.1005877557763597 [Eh]
	 Singles Energy            =      -0.0000000000000000 [Eh]
	 Same-Spin Energy          =      -0.2466919138845027 [Eh]
	 Opposite-Spin Energy      =      -0.8106341460768096 [Eh]
	 Correlation Energy        =      -1.0573260599613123 [Eh]
	 Total Energy              =    -248.1579138157376860 [Eh]

	 ================> DF-SCS-MP2 Energies <==================
	-----------------------------------------------------------
	 SCS Same-Spin Scale       =       0.3333333333333333 [-]
	 SCS Opposite-Spin Scale   =       1.2000000000000000 [-]
	 SCS Same-Spin Energy      =      -0.0822306379615009 [Eh]
	 SCS Opposite-Spin Energy  =      -0.9727609752921715 [Eh]
	 SCS Correlation Energy    =      -1.0549916132536725 [Eh]
	 SCS Total Energy          =    -248.1555793690300220 [Eh]
	-----------------------------------------------------------

  Dipole Moment: [D]
     X:     0.7392      Y:    -3.7220      Z:     0.0635     Total:     3.7952

*** Psi4 exiting successfully. Buy a developer a beer!
