                               Psi4 1.3.2 release

  ==> Input File <==

--------------------------------------------------------------------------
#psi4
#
memory 32 gb

molecule  {
0 1
  C        1.8115140    -0.5649830    -0.0000040
  H        1.7159910    -1.6536130     0.0002720
  H        2.3774210    -0.2548590     0.8810970
  H        2.3770450    -0.2552970    -0.8815060
  C        0.4821720     0.1627700     0.0001260
  O        0.5484038     1.3937745     0.0000109
  N       -0.6234180    -0.6408620    -0.0001190
  H       -0.4986210    -1.6430060     0.0003100
  C       -1.9687370    -0.1002510     0.0000180
  H       -1.8734000     0.9850130    -0.0016940
  H       -2.5201200    -0.4159370    -0.8903930
  H       -2.5190110    -0.4131270     0.8921260
units angstrom
no_reorient  #important for SAPT in psi4, default
symmetry c1  #important for SAPT in psi4, default
}

set PROPERTIES_ORIGIN ["COM"]
properties('MP2/aug-cc-pvtz', properties = ['dipole'])
--------------------------------------------------------------------------

    Molecular point group: c1
  Charge       = 0
  Multiplicity = 1
  Basis Set: AUG-CC-PVTZ
    Blend: AUG-CC-PVTZ
  Basis Set: (AUG-CC-PVTZ AUX)
    Blend: AUG-CC-PVTZ-JKFIT

    Orbital Energies [Eh]
    ---------------------

    Doubly Occupied:

       1A    -20.512947     2A    -15.595247     3A    -11.351119
       4A    -11.263117     5A    -11.231037     6A     -1.367340
       7A     -1.235353     8A     -1.012003     9A     -0.932088
      10A     -0.793374    11A     -0.688224    12A     -0.650982
      13A     -0.632804    14A     -0.585808    15A     -0.577234
      16A     -0.552721    17A     -0.547246    18A     -0.500413
      19A     -0.416621    20A     -0.396268

  @DF-RHF Final Energy:  -247.09793802372829

   => Energetics <=

    Nuclear Repulsion Energy =            179.3072721660090849
    One-Electron Energy =                -691.1265243086737655
    Two-Electron Energy =                 264.7213141189364478
    Total Energy =                       -247.0979380237282612
  Basis Set: (AUG-CC-PVTZ AUX)
    Blend: AUG-CC-PVTZ-RI
    Molecular point group: c1

    Geometry (in Angstrom), charge = 0, multiplicity = 1:

       Center              X                  Y                   Z               Mass
    ------------   -----------------  -----------------  -----------------  -----------------
         C            1.770540388025    -0.614403502284    -0.000009497912    12.000000000000
         H            1.675017388025    -1.703033502284     0.000266502088     1.007825032230
         H            2.336447388025    -0.304279502284     0.881091502088     1.007825032230
         H            2.336071388025    -0.304717502284    -0.881511497912     1.007825032230
         C            0.441198388025     0.113349497716     0.000120502088    12.000000000000
         O            0.507430188025     1.344353997716     0.000005402088    15.994914619570
         N           -0.664391611975    -0.690282502284    -0.000124497912    14.003074004430
         H           -0.539594611975    -1.692426502284     0.000304502088     1.007825032230
         C           -2.009710611975    -0.149671502284     0.000012502088    12.000000000000
         H           -1.914373611975     0.935592497716    -0.001699497912     1.007825032230
         H           -2.561093611975    -0.465357502284    -0.890398497912     1.007825032230
         H           -2.559984611975    -0.462547502284     0.892120502088     1.007825032230

  Basis Set: AUG-CC-PVTZ
    Blend: AUG-CC-PVTZ
  Basis Set: (AUG-CC-PVTZ AUX)
    Blend: AUG-CC-PVTZ-JKFIT
	 Reference Energy          =    -247.0979380237282896 [Eh]
	 Singles Energy            =      -0.0000000000000000 [Eh]
	 Same-Spin Energy          =      -0.2464811011100752 [Eh]
	 Opposite-Spin Energy      =      -0.8107923819477172 [Eh]
	 Correlation Energy        =      -1.0572734830577923 [Eh]
	 Total Energy              =    -248.1552115067860882 [Eh]

	 ================> DF-SCS-MP2 Energies <==================
	-----------------------------------------------------------
	 SCS Same-Spin Scale       =       0.3333333333333333 [-]
	 SCS Opposite-Spin Scale   =       1.2000000000000000 [-]
	 SCS Same-Spin Energy      =      -0.0821603670366917 [Eh]
	 SCS Opposite-Spin Energy  =      -0.9729508583372606 [Eh]
	 SCS Correlation Energy    =      -1.0551112253739523 [Eh]
	 SCS Total Energy          =    -248.1530492491022528 [Eh]
	-----------------------------------------------------------

  Dipole Moment: [D]
     X:    -1.2349      Y:    -3.6872      Z:     0.0006     Total:     3.8885

*** Psi4 exiting successfully. Buy a developer a beer!
