                               Psi4 1.3.2 release

  ==> Input File <==

--------------------------------------------------------------------------
#psi4
#
memory 32 gb

molecule  {
0 1
  C        1.8115140    -0.5649830    -0.0000040
  H        1.7159910    -1.6536130     0.0002720
  H        2.3774210    -0.2548590     0.8810970
  H        2.3770450    -0.2552970    -0.8815060
  C        0.4821720     0.1627700     0.0001260
  O        0.4193660     1.3939540    -0.0000280
  N       -0.6234180    -0.6408620    -0.0001190
  H       -0.4986210    -1.6430060     0.0003100
  C       -2.1543140    -0.0256776     0.0000369
  H       -1.8734000     0.9850130    -0.0016940
  H       -2.5201200    -0.4159370    -0.8903930
  H       -2.5190110    -0.4131270     0.8921260
units angstrom
no_reorient  #important for SAPT in psi4, default
symmetry c1  #important for SAPT in psi4, default
}

set PROPERTIES_ORIGIN ["COM"]
properties('MP2/aug-cc-pvtz', properties = ['dipole'])
--------------------------------------------------------------------------

    Molecular point group: c1
  Charge       = 0
  Multiplicity = 1
  Basis Set: AUG-CC-PVTZ
    Blend: AUG-CC-PVTZ
  Basis Set: (AUG-CC-PVTZ AUX)
    Blend: AUG-CC-PVTZ-JKFIT

    Orbital Energies [Eh]
    ---------------------

    Doubly Occupied:

       1A    -20.504141     2A    -15.579635     3A    -11.343422
       4A    -11.268551     5A    -11.232543     6A     -1.358721
       7A     -1.192036     8A     -1.007456     9A     -0.944590
      10A     -0.771319    11A     -0.677331    12A     -0.638977
      13A     -0.620219    14A     -0.596401    15A     -0.592133
      16A     -0.562385    17A     -0.516571    18A     -0.504684
      19A     -0.411801    20A     -0.388632

  @DF-RHF Final Energy:  -247.07367343705076

   => Energetics <=

    Nuclear Repulsion Energy =            176.9188879150258629
    One-Electron Energy =                -686.5620246799481947
    Two-Electron Energy =                 262.5694633278715742
    Total Energy =                       -247.0736734370507861
  Basis Set: (AUG-CC-PVTZ AUX)
    Blend: AUG-CC-PVTZ-RI
    Molecular point group: c1

    Geometry (in Angstrom), charge = 0, multiplicity = 1:

       Center              X                  Y                   Z               Mass
    ------------   -----------------  -----------------  -----------------  -----------------
         C            1.829277010263    -0.626692590881    -0.000004085356    12.000000000000
         H            1.733754010263    -1.715322590881     0.000271914644     1.007825032230
         H            2.395184010263    -0.316568590881     0.881096914644     1.007825032230
         H            2.394808010263    -0.317006590881    -0.881506085356     1.007825032230
         C            0.499935010263     0.101060409119     0.000125914644    12.000000000000
         O            0.437129010263     1.332244409119    -0.000028085356    15.994914619570
         N           -0.605654989737    -0.702571590881    -0.000119085356    14.003074004430
         H           -0.480857989737    -1.704715590881     0.000309914644     1.007825032230
         C           -2.136550989737    -0.087387190881     0.000036814644    12.000000000000
         H           -1.855636989737     0.923303409119    -0.001694085356     1.007825032230
         H           -2.502356989737    -0.477646590881    -0.890393085356     1.007825032230
         H           -2.501247989737    -0.474836590881     0.892125914644     1.007825032230

  Basis Set: AUG-CC-PVTZ
    Blend: AUG-CC-PVTZ
  Basis Set: (AUG-CC-PVTZ AUX)
    Blend: AUG-CC-PVTZ-JKFIT
	 Reference Energy          =    -247.0736734370507577 [Eh]
	 Singles Energy            =      -0.0000000000000000 [Eh]
	 Same-Spin Energy          =      -0.2464735462443139 [Eh]
	 Opposite-Spin Energy      =      -0.8123987237700707 [Eh]
	 Correlation Energy        =      -1.0588722700143847 [Eh]
	 Total Energy              =    -248.1325457070651339 [Eh]

	 ================> DF-SCS-MP2 Energies <==================
	-----------------------------------------------------------
	 SCS Same-Spin Scale       =       0.3333333333333333 [-]
	 SCS Opposite-Spin Scale   =       1.2000000000000000 [-]
	 SCS Same-Spin Energy      =      -0.0821578487481046 [Eh]
	 SCS Opposite-Spin Energy  =      -0.9748784685240848 [Eh]
	 SCS Correlation Energy    =      -1.0570363172721895 [Eh]
	 SCS Total Energy          =    -248.1307097543229361 [Eh]
	-----------------------------------------------------------

  Dipole Moment: [D]
     X:    -1.3213      Y:    -3.6670      Z:     0.0008     Total:     3.8978

*** Psi4 exiting successfully. Buy a developer a beer!
