                               Psi4 1.3.2 release

  ==> Input File <==

--------------------------------------------------------------------------
#psi4
#
memory 32 gb

molecule  {
0 1
  C        1.8115140    -0.5649830    -0.0000040
  H        1.7159910    -1.6536130     0.0002720
  H        2.3774210    -0.2548590     0.8810970
  H        2.3770450    -0.2552970    -0.8815060
  C        0.4821720     0.1627700     0.0001260
  O        0.3978884     1.3926704    -0.0000343
  N       -0.6234180    -0.6408620    -0.0001190
  H       -0.4986210    -1.6430060     0.0003100
  C       -1.9687370    -0.1002510     0.0000180
  H       -1.8734000     0.9850130    -0.0016940
  H       -2.5201200    -0.4159370    -0.8903930
  H       -2.5190110    -0.4131270     0.8921260
units angstrom
no_reorient  #important for SAPT in psi4, default
symmetry c1  #important for SAPT in psi4, default
}

set PROPERTIES_ORIGIN ["COM"]
properties('MP2/aug-cc-pvtz', properties = ['dipole'])
--------------------------------------------------------------------------

    Molecular point group: c1
  Charge       = 0
  Multiplicity = 1
  Basis Set: AUG-CC-PVTZ
    Blend: AUG-CC-PVTZ
  Basis Set: (AUG-CC-PVTZ AUX)
    Blend: AUG-CC-PVTZ-JKFIT

    Orbital Energies [Eh]
    ---------------------

    Doubly Occupied:

       1A    -20.511154     2A    -15.588004     3A    -11.350834
       4A    -11.257238     5A    -11.239038     6A     -1.368654
       7A     -1.226315     8A     -1.017208     9A     -0.929847
      10A     -0.787645    11A     -0.688975    12A     -0.649799
      13A     -0.630687    14A     -0.586083    15A     -0.578666
      16A     -0.554000    17A     -0.542249    18A     -0.502690
      19A     -0.420790    20A     -0.390369

  @DF-RHF Final Energy:  -247.10103794000679

   => Energetics <=

    Nuclear Repulsion Energy =            179.7927990068053816
    One-Electron Energy =                -692.1471850675159203
    Two-Electron Energy =                 265.2533481207037767
    Total Energy =                       -247.1010379400067904
  Basis Set: (AUG-CC-PVTZ AUX)
    Blend: AUG-CC-PVTZ-RI
    Molecular point group: c1

    Geometry (in Angstrom), charge = 0, multiplicity = 1:

       Center              X                  Y                   Z               Mass
    ------------   -----------------  -----------------  -----------------  -----------------
         C            1.803495759527    -0.614161759408     0.000000398635    12.000000000000
         H            1.707972759527    -1.702791759408     0.000276398635     1.007825032230
         H            2.369402759527    -0.304037759408     0.881101398635     1.007825032230
         H            2.369026759527    -0.304475759408    -0.881501601365     1.007825032230
         C            0.474153759527     0.113591240592     0.000130398635    12.000000000000
         O            0.389870159527     1.343491640592    -0.000029901365    15.994914619570
         N           -0.631436240473    -0.690040759408    -0.000114601365    14.003074004430
         H           -0.506639240473    -1.692184759408     0.000314398635     1.007825032230
         C           -1.976755240473    -0.149429759408     0.000022398635    12.000000000000
         H           -1.881418240473     0.935834240592    -0.001689601365     1.007825032230
         H           -2.528138240473    -0.465115759408    -0.890388601365     1.007825032230
         H           -2.527029240473    -0.462305759408     0.892130398635     1.007825032230

  Basis Set: AUG-CC-PVTZ
    Blend: AUG-CC-PVTZ
  Basis Set: (AUG-CC-PVTZ AUX)
    Blend: AUG-CC-PVTZ-JKFIT
	 Reference Energy          =    -247.1010379400067904 [Eh]
	 Singles Energy            =      -0.0000000000000000 [Eh]
	 Same-Spin Energy          =      -0.2466531261042703 [Eh]
	 Opposite-Spin Energy      =      -0.8106523580628500 [Eh]
	 Correlation Energy        =      -1.0573054841671201 [Eh]
	 Total Energy              =    -248.1583434241739212 [Eh]

	 ================> DF-SCS-MP2 Energies <==================
	-----------------------------------------------------------
	 SCS Same-Spin Scale       =       0.3333333333333333 [-]
	 SCS Opposite-Spin Scale   =       1.2000000000000000 [-]
	 SCS Same-Spin Energy      =      -0.0822177087014234 [Eh]
	 SCS Opposite-Spin Energy  =      -0.9727828296754200 [Eh]
	 SCS Correlation Energy    =      -1.0550005383768433 [Eh]
	 SCS Total Energy          =    -248.1560384783836355 [Eh]
	-----------------------------------------------------------

  Dipole Moment: [D]
     X:    -0.7473      Y:    -3.7141      Z:     0.0006     Total:     3.7886

*** Psi4 exiting successfully. Buy a developer a beer!
