                               Psi4 1.3.2 release

  ==> Input File <==

--------------------------------------------------------------------------
#psi4
#
memory 32 gb

molecule  {
0 1
  C        1.8115140    -0.5649830    -0.0000040
  H        1.7159910    -1.6536130     0.0002720
  H        2.3774210    -0.2548590     0.8810970
  H        2.3770450    -0.2552970    -0.8815060
  C        0.5095449     0.1236959     0.0001152
  O        0.4193660     1.3939540    -0.0000280
  N       -0.6234180    -0.6408620    -0.0001190
  H       -0.4986210    -1.6430060     0.0003100
  C       -1.9687370    -0.1002510     0.0000180
  H       -1.8734000     0.9850130    -0.0016940
  H       -2.5201200    -0.4159370    -0.8903930
  H       -2.5190110    -0.4131270     0.8921260
units angstrom
no_reorient  #important for SAPT in psi4, default
symmetry c1  #important for SAPT in psi4, default
}

set PROPERTIES_ORIGIN ["COM"]
properties('MP2/aug-cc-pvtz', properties = ['dipole'])
--------------------------------------------------------------------------

    Molecular point group: c1
  Charge       = 0
  Multiplicity = 1
  Basis Set: AUG-CC-PVTZ
    Blend: AUG-CC-PVTZ
  Basis Set: (AUG-CC-PVTZ AUX)
    Blend: AUG-CC-PVTZ-JKFIT

    Orbital Energies [Eh]
    ---------------------

    Doubly Occupied:

       1A    -20.505083     2A    -15.592667     3A    -11.353496
       4A    -11.259589     5A    -11.240685     6A     -1.345791
       7A     -1.223094     8A     -1.029053     9A     -0.934441
      10A     -0.786348    11A     -0.691378    12A     -0.650008
      13A     -0.631738    14A     -0.589786    15A     -0.569532
      16A     -0.560256    17A     -0.540234    18A     -0.492504
      19A     -0.418362    20A     -0.386923

  @DF-RHF Final Energy:  -247.09437339279080

   => Energetics <=

    Nuclear Repulsion Energy =            179.4024817110326637
    One-Electron Energy =                -691.3917755762620345
    Two-Electron Energy =                 264.8949204724385140
    Total Energy =                       -247.0943733927908283
  Basis Set: (AUG-CC-PVTZ AUX)
    Blend: AUG-CC-PVTZ-RI
    Molecular point group: c1

    Geometry (in Angstrom), charge = 0, multiplicity = 1:

       Center              X                  Y                   Z               Mass
    ------------   -----------------  -----------------  -----------------  -----------------
         C            1.794296830660    -0.608024303356     0.000000793310    12.000000000000
         H            1.698773830660    -1.696654303356     0.000276793310     1.007825032230
         H            2.360203830660    -0.297900303356     0.881101793310     1.007825032230
         H            2.359827830660    -0.298338303356    -0.881501206690     1.007825032230
         C            0.492327730660     0.080654596644     0.000119993310    12.000000000000
         O            0.402148830660     1.350912696644    -0.000023206690    15.994914619570
         N           -0.640635169340    -0.683903303356    -0.000114206690    14.003074004430
         H           -0.515838169340    -1.686047303356     0.000314793310     1.007825032230
         C           -1.985954169340    -0.143292303356     0.000022793310    12.000000000000
         H           -1.890617169340     0.941971696644    -0.001689206690     1.007825032230
         H           -2.537337169340    -0.458978303356    -0.890388206690     1.007825032230
         H           -2.536228169340    -0.456168303356     0.892130793310     1.007825032230

  Basis Set: AUG-CC-PVTZ
    Blend: AUG-CC-PVTZ
  Basis Set: (AUG-CC-PVTZ AUX)
    Blend: AUG-CC-PVTZ-JKFIT
	 Reference Energy          =    -247.0943733927907999 [Eh]
	 Singles Energy            =      -0.0000000000000000 [Eh]
	 Same-Spin Energy          =      -0.2476693077637162 [Eh]
	 Opposite-Spin Energy      =      -0.8126157337501840 [Eh]
	 Correlation Energy        =      -1.0602850415139002 [Eh]
	 Total Energy              =    -248.1546584343047073 [Eh]

	 ================> DF-SCS-MP2 Energies <==================
	-----------------------------------------------------------
	 SCS Same-Spin Scale       =       0.3333333333333333 [-]
	 SCS Opposite-Spin Scale   =       1.2000000000000000 [-]
	 SCS Same-Spin Energy      =      -0.0825564359212387 [Eh]
	 SCS Opposite-Spin Energy  =      -0.9751388805002208 [Eh]
	 SCS Correlation Energy    =      -1.0576953164214595 [Eh]
	 SCS Total Energy          =    -248.1520687092122728 [Eh]
	-----------------------------------------------------------

  Dipole Moment: [D]
     X:    -0.7429      Y:    -3.9461      Z:     0.0006     Total:     4.0154

*** Psi4 exiting successfully. Buy a developer a beer!
