                               Psi4 1.4a3.dev225

  ==> Input File <==

--------------------------------------------------------------------------
#psi4
#
memory 32 gb

molecule  {
0 1
  C       -1.8103920    -0.5656140     0.0110420
  H       -1.7413530    -1.5922730    -0.3577540
  H       -2.5229550    -0.0084440    -0.5981450
  H       -2.1872940    -0.5855800     1.0374810
  C       -0.4835800     0.1666070    -0.0168160
  O       -0.4165860     1.3974030    -0.0026360
  N        0.6205880    -0.6399120    -0.0249480
  H        0.4923720    -1.6417740    -0.0116730
  C        1.9205659    -0.1219635     0.0138454
  H        1.8798420     0.9786710    -0.0752970
  H        2.4655150    -0.3449990     0.9590800
  H        2.5643020    -0.4906150    -0.8147010
units angstrom
no_reorient  #important for SAPT in psi4, default
symmetry c1  #important for SAPT in psi4, default
}

set PROPERTIES_ORIGIN ["COM"]
properties('MP2/aug-cc-pvtz', properties = ['dipole'])
--------------------------------------------------------------------------

    Molecular point group: c1
  Charge       = 0
  Multiplicity = 1
  Basis Set: AUG-CC-PVTZ
    Blend: AUG-CC-PVTZ
  Basis Set: (AUG-CC-PVTZ AUX)
    Blend: AUG-CC-PVTZ-JKFIT

    Orbital Energies [Eh]
    ---------------------

    Doubly Occupied:

       1A    -20.514664     2A    -15.589616     3A    -11.352654
       4A    -11.257771     5A    -11.239212     6A     -1.371854
       7A     -1.239330     8A     -1.019698     9A     -0.926473
      10A     -0.792955    11A     -0.693844    12A     -0.658133
      13A     -0.632897    14A     -0.583476    15A     -0.580947
      16A     -0.558686    17A     -0.531185    18A     -0.500906
      19A     -0.423175    20A     -0.389535

  @DF-RHF Final Energy:  -247.09826682634906

   => Energetics <=

    Nuclear Repulsion Energy =            180.4689689381602022
    One-Electron Energy =                -693.4204482473219286
    Two-Electron Energy =                 265.8532124828126939
    Total Energy =                       -247.0982668263490609
  Basis Set: (AUG-CC-PVTZ AUX)
    Blend: AUG-CC-PVTZ-RI
    Molecular point group: c1

    Geometry (in Angstrom), charge = 0, multiplicity = 1:

       Center              X                  Y                   Z               Mass
    ------------   -----------------  -----------------  -----------------  -----------------
         C           -1.789911941546    -0.612499443452     0.013157948364    12.000000000000
         H           -1.720872941546    -1.639158443452    -0.355638051636     1.007825032230
         H           -2.502474941546    -0.055329443452    -0.596029051636     1.007825032230
         H           -2.166813941546    -0.632465443452     1.039596948364     1.007825032230
         C           -0.463099941546     0.119721556548    -0.014700051636    12.000000000000
         O           -0.396105941546     1.350517556548    -0.000520051636    15.994914619570
         N            0.641068058454    -0.686797443452    -0.022832051636    14.003074004430
         H            0.512852058454    -1.688659443452    -0.009557051636     1.007825032230
         C            1.941045958454    -0.168848943452     0.015961348364    12.000000000000
         H            1.900322058454     0.931785556548    -0.073181051636     1.007825032230
         H            2.485995058454    -0.391884443452     0.961195948364     1.007825032230
         H            2.584782058454    -0.537500443452    -0.812585051636     1.007825032230

  Basis Set: AUG-CC-PVTZ
    Blend: AUG-CC-PVTZ
  Basis Set: (AUG-CC-PVTZ AUX)
    Blend: AUG-CC-PVTZ-JKFIT
	 Reference Energy          =    -247.0982668263490609 [Eh]
	 Singles Energy            =      -0.0000000000000000 [Eh]
	 Same-Spin Energy          =      -0.2469501115648342 [Eh]
	 Opposite-Spin Energy      =      -0.8107750960801262 [Eh]
	 Correlation Energy        =      -1.0577252076449604 [Eh]
	 Total Energy              =    -248.1559920339940106 [Eh]

	 ================> DF-SCS-MP2 Energies <==================
	-----------------------------------------------------------
	 SCS Same-Spin Scale       =       0.3333333333333333 [-]
	 SCS Opposite-Spin Scale   =       1.2000000000000000 [-]
	 SCS Same-Spin Energy      =      -0.0823167038549447 [Eh]
	 SCS Opposite-Spin Energy  =      -0.9729301152961514 [Eh]
	 SCS Correlation Energy    =      -1.0552468191510960 [Eh]
	 SCS Total Energy          =    -248.1535136455001691 [Eh]
	-----------------------------------------------------------

  Dipole Moment: [D]
     X:     0.6478      Y:    -3.7246      Z:     0.0588     Total:     3.7810

*** Psi4 exiting successfully. Buy a developer a beer!
