                               Psi4 1.4a3.dev225

  ==> Input File <==

--------------------------------------------------------------------------
#psi4
#
memory 32 gb

molecule  {
0 1
  C       -1.8103920    -0.5656140     0.0110420
  H       -1.7413530    -1.5922730    -0.3577540
  H       -2.5229550    -0.0084440    -0.5981450
  H       -2.1872940    -0.5855800     1.0374810
  C       -0.5010876     0.1569452    -0.0164484
  O       -0.4165860     1.3974030    -0.0026360
  N        0.6205880    -0.6399120    -0.0249480
  H        0.4923720    -1.6417740    -0.0116730
  C        1.9669970    -0.1034640     0.0152310
  H        1.8798420     0.9786710    -0.0752970
  H        2.4655150    -0.3449990     0.9590800
  H        2.5643020    -0.4906150    -0.8147010
units angstrom
no_reorient  #important for SAPT in psi4, default
symmetry c1  #important for SAPT in psi4, default
}

set PROPERTIES_ORIGIN ["COM"]
properties('MP2/aug-cc-pvtz', properties = ['dipole'])
--------------------------------------------------------------------------

    Molecular point group: c1
  Charge       = 0
  Multiplicity = 1
  Basis Set: AUG-CC-PVTZ
    Blend: AUG-CC-PVTZ
  Basis Set: (AUG-CC-PVTZ AUX)
    Blend: AUG-CC-PVTZ-JKFIT

    Orbital Energies [Eh]
    ---------------------

    Doubly Occupied:

       1A    -20.511819     2A    -15.587752     3A    -11.352265
       4A    -11.257655     5A    -11.239193     6A     -1.362426
       7A     -1.223373     8A     -1.022205     9A     -0.929892
      10A     -0.785069    11A     -0.689420    12A     -0.649428
      13A     -0.630707    14A     -0.587733    15A     -0.577545
      16A     -0.555757    17A     -0.541113    18A     -0.499714
      19A     -0.421985    20A     -0.389020

  @DF-RHF Final Energy:  -247.09940839164679

   => Energetics <=

    Nuclear Repulsion Energy =            179.5607920195772067
    One-Electron Energy =                -691.6922581896577640
    Two-Electron Energy =                 265.0320577784337388
    Total Energy =                       -247.0994083916468185
  Basis Set: (AUG-CC-PVTZ AUX)
    Blend: AUG-CC-PVTZ-RI
    Molecular point group: c1

    Geometry (in Angstrom), charge = 0, multiplicity = 1:

       Center              X                  Y                   Z               Mass
    ------------   -----------------  -----------------  -----------------  -----------------
         C           -1.794663055422    -0.613951166760     0.012869959260    12.000000000000
         H           -1.725624055422    -1.640610166760    -0.355926040740     1.007825032230
         H           -2.507226055422    -0.056781166760    -0.596317040740     1.007825032230
         H           -2.171565055422    -0.633917166760     1.039308959260     1.007825032230
         C           -0.485358655422     0.108608033240    -0.014620440740    12.000000000000
         O           -0.400857055422     1.349065833240    -0.000808040740    15.994914619570
         N            0.636316944578    -0.688249166760    -0.023120040740    14.003074004430
         H            0.508100944578    -1.690111166760    -0.009845040740     1.007825032230
         C            1.982725944578    -0.151801166760     0.017058959260    12.000000000000
         H            1.895570944578     0.930333833240    -0.073469040740     1.007825032230
         H            2.481243944578    -0.393336166760     0.960907959260     1.007825032230
         H            2.580030944578    -0.538952166760    -0.812873040740     1.007825032230

  Basis Set: AUG-CC-PVTZ
    Blend: AUG-CC-PVTZ
  Basis Set: (AUG-CC-PVTZ AUX)
    Blend: AUG-CC-PVTZ-JKFIT
	 Reference Energy          =    -247.0994083916467901 [Eh]
	 Singles Energy            =      -0.0000000000000000 [Eh]
	 Same-Spin Energy          =      -0.2469118162795349 [Eh]
	 Opposite-Spin Energy      =      -0.8112614769637713 [Eh]
	 Correlation Energy        =      -1.0581732932433061 [Eh]
	 Total Energy              =    -248.1575816848900899 [Eh]

	 ================> DF-SCS-MP2 Energies <==================
	-----------------------------------------------------------
	 SCS Same-Spin Scale       =       0.3333333333333333 [-]
	 SCS Opposite-Spin Scale   =       1.2000000000000000 [-]
	 SCS Same-Spin Energy      =      -0.0823039387598450 [Eh]
	 SCS Opposite-Spin Energy  =      -0.9735137723565255 [Eh]
	 SCS Correlation Energy    =      -1.0558177111163705 [Eh]
	 SCS Total Energy          =    -248.1552261027631516 [Eh]
	-----------------------------------------------------------

  Dipole Moment: [D]
     X:     0.7053      Y:    -3.7616      Z:     0.0689     Total:     3.8277

*** Psi4 exiting successfully. Buy a developer a beer!
