                               Psi4 1.3.2 release

  ==> Input File <==

--------------------------------------------------------------------------
#psi4
#
memory 32 gb

molecule  {
0 1
  C        1.8115140    -0.5649830    -0.0000040
  H        1.7159910    -1.6536130     0.0002720
  H        2.3774210    -0.2548590     0.8810970
  H        2.3770450    -0.2552970    -0.8815060
  C        0.4821720     0.1627700     0.0001260
  O        0.3764366     1.3910121    -0.0000406
  N       -0.6234180    -0.6408620    -0.0001190
  H       -0.4986210    -1.6430060     0.0003100
  C       -1.9687370    -0.1002510     0.0000180
  H       -1.8734000     0.9850130    -0.0016940
  H       -2.5201200    -0.4159370    -0.8903930
  H       -2.5190110    -0.4131270     0.8921260
units angstrom
no_reorient  #important for SAPT in psi4, default
symmetry c1  #important for SAPT in psi4, default
}

set PROPERTIES_ORIGIN ["COM"]
properties('MP2/aug-cc-pvtz', properties = ['dipole'])
--------------------------------------------------------------------------

    Molecular point group: c1
  Charge       = 0
  Multiplicity = 1
  Basis Set: AUG-CC-PVTZ
    Blend: AUG-CC-PVTZ
  Basis Set: (AUG-CC-PVTZ AUX)
    Blend: AUG-CC-PVTZ-JKFIT

    Orbital Energies [Eh]
    ---------------------

    Doubly Occupied:

       1A    -20.510830     2A    -15.586938     3A    -11.350825
       4A    -11.256333     5A    -11.240171     6A     -1.368988
       7A     -1.224923     8A     -1.017958     9A     -0.929445
      10A     -0.786789    11A     -0.689148    12A     -0.649641
      13A     -0.630447    14A     -0.586099    15A     -0.578963
      16A     -0.554418    17A     -0.541086    18A     -0.502953
      19A     -0.421076    20A     -0.389472

  @DF-RHF Final Energy:  -247.10074476230201

   => Energetics <=

    Nuclear Repulsion Energy =            179.8829834998155377
    One-Electron Energy =                -692.3344553255935807
    Two-Electron Energy =                 265.3507270634760289
    Total Energy =                       -247.1007447623020425
  Basis Set: (AUG-CC-PVTZ AUX)
    Blend: AUG-CC-PVTZ-RI
    Molecular point group: c1

    Geometry (in Angstrom), charge = 0, multiplicity = 1:

       Center              X                  Y                   Z               Mass
    ------------   -----------------  -----------------  -----------------  -----------------
         C            1.808192634654    -0.613798674351     0.000001778021    12.000000000000
         H            1.712669634654    -1.702428674351     0.000277778021     1.007825032230
         H            2.374099634654    -0.303674674351     0.881102778021     1.007825032230
         H            2.373723634654    -0.304112674351    -0.881500221979     1.007825032230
         C            0.478850634654     0.113954325649     0.000131778021    12.000000000000
         O            0.373115234654     1.342196425649    -0.000034821979    15.994914619570
         N           -0.626739365346    -0.689677674351    -0.000113221979    14.003074004430
         H           -0.501942365346    -1.691821674351     0.000315778021     1.007825032230
         C           -1.972058365346    -0.149066674351     0.000023778021    12.000000000000
         H           -1.876721365346     0.936197325649    -0.001688221979     1.007825032230
         H           -2.523441365346    -0.464752674351    -0.890387221979     1.007825032230
         H           -2.522332365346    -0.461942674351     0.892131778021     1.007825032230

  Basis Set: AUG-CC-PVTZ
    Blend: AUG-CC-PVTZ
  Basis Set: (AUG-CC-PVTZ AUX)
    Blend: AUG-CC-PVTZ-JKFIT
	 Reference Energy          =    -247.1007447623020141 [Eh]
	 Singles Energy            =      -0.0000000000000000 [Eh]
	 Same-Spin Energy          =      -0.2467078568660032 [Eh]
	 Opposite-Spin Energy      =      -0.8106882211466320 [Eh]
	 Correlation Energy        =      -1.0573960780126352 [Eh]
	 Total Energy              =    -248.1581408403146440 [Eh]

	 ================> DF-SCS-MP2 Energies <==================
	-----------------------------------------------------------
	 SCS Same-Spin Scale       =       0.3333333333333333 [-]
	 SCS Opposite-Spin Scale   =       1.2000000000000000 [-]
	 SCS Same-Spin Energy      =      -0.0822359522886677 [Eh]
	 SCS Opposite-Spin Energy  =      -0.9728258653759583 [Eh]
	 SCS Correlation Energy    =      -1.0550618176646260 [Eh]
	 SCS Total Energy          =    -248.1558065799666508 [Eh]
	-----------------------------------------------------------

  Dipole Moment: [D]
     X:    -0.6772      Y:    -3.7125      Z:     0.0006     Total:     3.7738

*** Psi4 exiting successfully. Buy a developer a beer!
