                               Psi4 1.4a3.dev225

  ==> Input File <==

--------------------------------------------------------------------------
#psi4
#
memory 32 gb

molecule  {
0 1
  C       -1.8103920    -0.5656140     0.0110420
  H       -1.7413530    -1.5922730    -0.3577540
  H       -2.5229550    -0.0084440    -0.5981450
  H       -2.1872940    -0.5855800     1.0374810
  C       -0.4835800     0.1666070    -0.0168160
  O       -0.4138686     1.4473258    -0.0020608
  N        0.6205880    -0.6399120    -0.0249480
  H        0.4923720    -1.6417740    -0.0116730
  C        1.9669970    -0.1034640     0.0152310
  H        1.8798420     0.9786710    -0.0752970
  H        2.4655150    -0.3449990     0.9590800
  H        2.5643020    -0.4906150    -0.8147010
units angstrom
no_reorient  #important for SAPT in psi4, default
symmetry c1  #important for SAPT in psi4, default
}

set PROPERTIES_ORIGIN ["COM"]
properties('MP2/aug-cc-pvtz', properties = ['dipole'])
--------------------------------------------------------------------------

    Molecular point group: c1
  Charge       = 0
  Multiplicity = 1
  Basis Set: AUG-CC-PVTZ
    Blend: AUG-CC-PVTZ
  Basis Set: (AUG-CC-PVTZ AUX)
    Blend: AUG-CC-PVTZ-JKFIT

    Orbital Energies [Eh]
    ---------------------

    Doubly Occupied:

       1A    -20.511524     2A    -15.595920     3A    -11.359776
       4A    -11.260009     5A    -11.241851     6A     -1.341347
       7A     -1.227235     8A     -1.020162     9A     -0.932351
      10A     -0.792787    11A     -0.687922    12A     -0.647028
      13A     -0.630534    14A     -0.587399    15A     -0.567996
      16A     -0.555086    17A     -0.543580    18A     -0.494339
      19A     -0.419139    20A     -0.390202

  @DF-RHF Final Energy:  -247.09258375221179

   => Energetics <=

    Nuclear Repulsion Energy =            178.3041097568842304
    One-Electron Energy =                -689.1810125795184376
    Two-Electron Energy =                 263.7843190704223844
    Total Energy =                       -247.0925837522117945
  Basis Set: (AUG-CC-PVTZ AUX)
    Blend: AUG-CC-PVTZ-RI
    Molecular point group: c1

    Geometry (in Angstrom), charge = 0, multiplicity = 1:

       Center              X                  Y                   Z               Mass
    ------------   -----------------  -----------------  -----------------  -----------------
         C           -1.798133913574    -0.626468865960     0.012804402878    12.000000000000
         H           -1.729094913574    -1.653127865960    -0.355991597122     1.007825032230
         H           -2.510696913574    -0.069298865960    -0.596382597122     1.007825032230
         H           -2.175035913574    -0.646434865960     1.039243402878     1.007825032230
         C           -0.471321913574     0.105752134040    -0.015053597122    12.000000000000
         O           -0.401610513574     1.386470934040    -0.000298397122    15.994914619570
         N            0.632846086426    -0.700766865960    -0.023185597122    14.003074004430
         H            0.504630086426    -1.702628865960    -0.009910597122     1.007825032230
         C            1.979255086426    -0.164318865960     0.016993402878    12.000000000000
         H            1.892100086426     0.917816134040    -0.073534597122     1.007825032230
         H            2.477773086426    -0.405853865960     0.960842402878     1.007825032230
         H            2.576560086426    -0.551469865960    -0.812938597122     1.007825032230

  Basis Set: AUG-CC-PVTZ
    Blend: AUG-CC-PVTZ
  Basis Set: (AUG-CC-PVTZ AUX)
    Blend: AUG-CC-PVTZ-JKFIT
	 Reference Energy          =    -247.0925837522117945 [Eh]
	 Singles Energy            =      -0.0000000000000000 [Eh]
	 Same-Spin Energy          =      -0.2476695843289103 [Eh]
	 Opposite-Spin Energy      =      -0.8134022623330117 [Eh]
	 Correlation Energy        =      -1.0610718466619220 [Eh]
	 Total Energy              =    -248.1536555988737121 [Eh]

	 ================> DF-SCS-MP2 Energies <==================
	-----------------------------------------------------------
	 SCS Same-Spin Scale       =       0.3333333333333333 [-]
	 SCS Opposite-Spin Scale   =       1.2000000000000000 [-]
	 SCS Same-Spin Energy      =      -0.0825565281096367 [Eh]
	 SCS Opposite-Spin Energy  =      -0.9760827147996141 [Eh]
	 SCS Correlation Energy    =      -1.0586392429092508 [Eh]
	 SCS Total Energy          =    -248.1512229951210315 [Eh]
	-----------------------------------------------------------

  Dipole Moment: [D]
     X:     0.8538      Y:    -4.0030      Z:     0.0659     Total:     4.0936

*** Psi4 exiting successfully. Buy a developer a beer!
