                               Psi4 1.4a3.dev225

  ==> Input File <==

--------------------------------------------------------------------------
#psi4
#
memory 32 gb

molecule  {
0 1
  C       -1.8103920    -0.5656140     0.0110420
  H       -1.7413530    -1.5922730    -0.3577540
  H       -2.5229550    -0.0084440    -0.5981450
  H       -2.1872940    -0.5855800     1.0374810
  C       -0.4835800     0.1666070    -0.0168160
  O       -0.4165860     1.3974030    -0.0026360
  N        0.6205880    -0.6399120    -0.0249480
  H        0.4923720    -1.6417740    -0.0116730
  C        2.0134281    -0.0849645     0.0166166
  H        1.8798420     0.9786710    -0.0752970
  H        2.4655150    -0.3449990     0.9590800
  H        2.5643020    -0.4906150    -0.8147010
units angstrom
no_reorient  #important for SAPT in psi4, default
symmetry c1  #important for SAPT in psi4, default
}

set PROPERTIES_ORIGIN ["COM"]
properties('MP2/aug-cc-pvtz', properties = ['dipole'])
--------------------------------------------------------------------------

    Molecular point group: c1
  Charge       = 0
  Multiplicity = 1
  Basis Set: AUG-CC-PVTZ
    Blend: AUG-CC-PVTZ
  Basis Set: (AUG-CC-PVTZ AUX)
    Blend: AUG-CC-PVTZ-JKFIT

    Orbital Energies [Eh]
    ---------------------

    Doubly Occupied:

       1A    -20.510571     2A    -15.586365     3A    -11.348945
       4A    -11.259207     5A    -11.236509     6A     -1.365989
       7A     -1.216700     8A     -1.013913     9A     -0.933373
      10A     -0.783278    11A     -0.684765    12A     -0.640955
      13A     -0.630711    14A     -0.589518    15A     -0.577255
      16A     -0.553965    17A     -0.545769    18A     -0.504756
      19A     -0.418748    20A     -0.391514

  @DF-RHF Final Energy:  -247.09912192035981

   => Energetics <=

    Nuclear Repulsion Energy =            178.9730520981186146
    One-Electron Energy =                -690.5587341823278393
    Two-Electron Energy =                 264.4865601638493899
    Total Energy =                       -247.0991219203598348
  Basis Set: (AUG-CC-PVTZ AUX)
    Blend: AUG-CC-PVTZ-RI
    Molecular point group: c1

    Geometry (in Angstrom), charge = 0, multiplicity = 1:

       Center              X                  Y                   Z               Mass
    ------------   -----------------  -----------------  -----------------  -----------------
         C           -1.805165935252    -0.618577077981     0.012702737661    12.000000000000
         H           -1.736126935252    -1.645236077981    -0.356093262339     1.007825032230
         H           -2.517728935252    -0.061407077981    -0.596484262339     1.007825032230
         H           -2.182067935252    -0.638543077981     1.039141737661     1.007825032230
         C           -0.478353935252     0.113643922019    -0.015155262339    12.000000000000
         O           -0.411359935252     1.344439922019    -0.000975262339    15.994914619570
         N            0.625814064748    -0.692875077981    -0.023287262339    14.003074004430
         H            0.497598064748    -1.694737077981    -0.010012262339     1.007825032230
         C            2.018654164748    -0.137927577981     0.018277337661    12.000000000000
         H            1.885068064748     0.925707922019    -0.073636262339     1.007825032230
         H            2.470741064748    -0.397962077981     0.960740737661     1.007825032230
         H            2.569528064748    -0.543578077981    -0.813040262339     1.007825032230

  Basis Set: AUG-CC-PVTZ
    Blend: AUG-CC-PVTZ
  Basis Set: (AUG-CC-PVTZ AUX)
    Blend: AUG-CC-PVTZ-JKFIT
	 Reference Energy          =    -247.0991219203598064 [Eh]
	 Singles Energy            =      -0.0000000000000000 [Eh]
	 Same-Spin Energy          =      -0.2463208184666945 [Eh]
	 Opposite-Spin Energy      =      -0.8106940799660763 [Eh]
	 Correlation Energy        =      -1.0570148984327707 [Eh]
	 Total Energy              =    -248.1561368187925893 [Eh]

	 ================> DF-SCS-MP2 Energies <==================
	-----------------------------------------------------------
	 SCS Same-Spin Scale       =       0.3333333333333333 [-]
	 SCS Opposite-Spin Scale   =       1.2000000000000000 [-]
	 SCS Same-Spin Energy      =      -0.0821069394888982 [Eh]
	 SCS Opposite-Spin Energy  =      -0.9728328959592916 [Eh]
	 SCS Correlation Energy    =      -1.0549398354481898 [Eh]
	 SCS Total Energy          =    -248.1540617558079873 [Eh]
	-----------------------------------------------------------

  Dipole Moment: [D]
     X:     0.9375      Y:    -3.7113      Z:     0.0728     Total:     3.8286

*** Psi4 exiting successfully. Buy a developer a beer!
