                               Psi4 1.3.2 release

  ==> Input File <==

--------------------------------------------------------------------------
#psi4
#
memory 32 gb

molecule  {
0 1
  C        1.8115140    -0.5649830    -0.0000040
  H        1.7159910    -1.6536130     0.0002720
  H        2.3774210    -0.2548590     0.8810970
  H        2.3770450    -0.2552970    -0.8815060
  C        0.3944563     0.2107903     0.0001346
  O        0.4193660     1.3939540    -0.0000280
  N       -0.6234180    -0.6408620    -0.0001190
  H       -0.4986210    -1.6430060     0.0003100
  C       -1.9687370    -0.1002510     0.0000180
  H       -1.8734000     0.9850130    -0.0016940
  H       -2.5201200    -0.4159370    -0.8903930
  H       -2.5190110    -0.4131270     0.8921260
units angstrom
no_reorient  #important for SAPT in psi4, default
symmetry c1  #important for SAPT in psi4, default
}

set PROPERTIES_ORIGIN ["COM"]
properties('MP2/aug-cc-pvtz', properties = ['dipole'])
--------------------------------------------------------------------------

    Molecular point group: c1
  Charge       = 0
  Multiplicity = 1
  Basis Set: AUG-CC-PVTZ
    Blend: AUG-CC-PVTZ
  Basis Set: (AUG-CC-PVTZ AUX)
    Blend: AUG-CC-PVTZ-JKFIT

    Orbital Energies [Eh]
    ---------------------

    Doubly Occupied:

       1A    -20.516488     2A    -15.591843     3A    -11.345769
       4A    -11.260362     5A    -11.228814     6A     -1.400356
       7A     -1.248039     8A     -0.994504     9A     -0.926695
      10A     -0.804589    11A     -0.686689    12A     -0.654295
      13A     -0.636971    14A     -0.583772    15A     -0.578448
      16A     -0.552863    17A     -0.540240    18A     -0.516751
      19A     -0.407610    20A     -0.402089

  @DF-RHF Final Energy:  -247.09358036234153

   => Energetics <=

    Nuclear Repulsion Energy =            180.4612970170791755
    One-Electron Energy =                -693.3553830816227901
    Two-Electron Energy =                 265.8005057022021447
    Total Energy =                       -247.0935803623415268
  Basis Set: (AUG-CC-PVTZ AUX)
    Blend: AUG-CC-PVTZ-RI
    Molecular point group: c1

    Geometry (in Angstrom), charge = 0, multiplicity = 1:

       Center              X                  Y                   Z               Mass
    ------------   -----------------  -----------------  -----------------  -----------------
         C            1.813201840234    -0.622330850363    -0.000002393428    12.000000000000
         H            1.717678840234    -1.710960850363     0.000273606572     1.007825032230
         H            2.379108840234    -0.312206850363     0.881098606572     1.007825032230
         H            2.378732840234    -0.312644850363    -0.881504393428     1.007825032230
         C            0.396144140234     0.153442449637     0.000136206572    12.000000000000
         O            0.421053840234     1.336606149637    -0.000026393428    15.994914619570
         N           -0.621730159766    -0.698209850363    -0.000117393428    14.003074004430
         H           -0.496933159766    -1.700353850363     0.000311606572     1.007825032230
         C           -1.967049159766    -0.157598850363     0.000019606572    12.000000000000
         H           -1.871712159766     0.927665149637    -0.001692393428     1.007825032230
         H           -2.518432159766    -0.473284850363    -0.890391393428     1.007825032230
         H           -2.517323159766    -0.470474850363     0.892127606572     1.007825032230

  Basis Set: AUG-CC-PVTZ
    Blend: AUG-CC-PVTZ
  Basis Set: (AUG-CC-PVTZ AUX)
    Blend: AUG-CC-PVTZ-JKFIT
	 Reference Energy          =    -247.0935803623415268 [Eh]
	 Singles Energy            =      -0.0000000000000000 [Eh]
	 Same-Spin Energy          =      -0.2455045645722355 [Eh]
	 Opposite-Spin Energy      =      -0.8086139685947076 [Eh]
	 Correlation Energy        =      -1.0541185331669432 [Eh]
	 Total Energy              =    -248.1476988955084835 [Eh]

	 ================> DF-SCS-MP2 Energies <==================
	-----------------------------------------------------------
	 SCS Same-Spin Scale       =       0.3333333333333333 [-]
	 SCS Opposite-Spin Scale   =       1.2000000000000000 [-]
	 SCS Same-Spin Energy      =      -0.0818348548574118 [Eh]
	 SCS Opposite-Spin Energy  =      -0.9703367623136491 [Eh]
	 SCS Correlation Energy    =      -1.0521716171710609 [Eh]
	 SCS Total Energy          =    -248.1457519795125961 [Eh]
	-----------------------------------------------------------

  Dipole Moment: [D]
     X:    -1.3224      Y:    -3.4690      Z:     0.0007     Total:     3.7125

*** Psi4 exiting successfully. Buy a developer a beer!
