                               Psi4 1.3.2 release

  ==> Input File <==

--------------------------------------------------------------------------
#psi4
#
memory 32 gb

molecule  {
0 1
  C        1.8240126    -0.5416719    -0.0000093
  H        1.7159910    -1.6536130     0.0002720
  H        2.3774210    -0.2548590     0.8810970
  H        2.3770450    -0.2552970    -0.8815060
  C        0.4821720     0.1627700     0.0001260
  O        0.4193660     1.3939540    -0.0000280
  N       -0.6234180    -0.6408620    -0.0001190
  H       -0.4986210    -1.6430060     0.0003100
  C       -1.9687370    -0.1002510     0.0000180
  H       -1.8734000     0.9850130    -0.0016940
  H       -2.5201200    -0.4159370    -0.8903930
  H       -2.5190110    -0.4131270     0.8921260
units angstrom
no_reorient  #important for SAPT in psi4, default
symmetry c1  #important for SAPT in psi4, default
}

set PROPERTIES_ORIGIN ["COM"]
properties('MP2/aug-cc-pvtz', properties = ['dipole'])
--------------------------------------------------------------------------

    Molecular point group: c1
  Charge       = 0
  Multiplicity = 1
  Basis Set: AUG-CC-PVTZ
    Blend: AUG-CC-PVTZ
  Basis Set: (AUG-CC-PVTZ AUX)
    Blend: AUG-CC-PVTZ-JKFIT

    Orbital Energies [Eh]
    ---------------------

    Doubly Occupied:

       1A    -20.510987     2A    -15.589521     3A    -11.350557
       4A    -11.258446     5A    -11.237898     6A     -1.368359
       7A     -1.227625     8A     -1.015935     9A     -0.930948
      10A     -0.788489    11A     -0.688823    12A     -0.648649
      13A     -0.632522    14A     -0.590296    15A     -0.574994
      16A     -0.551701    17A     -0.543301    18A     -0.504598
      19A     -0.419557    20A     -0.391217

  @DF-RHF Final Energy:  -247.10054141751564

   => Energetics <=

    Nuclear Repulsion Energy =            179.6883932053846138
    One-Electron Energy =                -691.9290256114890099
    Two-Electron Energy =                 265.1400909885887813
    Total Energy =                       -247.1005414175156147
  Basis Set: (AUG-CC-PVTZ AUX)
    Blend: AUG-CC-PVTZ-RI
    Molecular point group: c1

    Geometry (in Angstrom), charge = 0, multiplicity = 1:

       Center              X                  Y                   Z               Mass
    ------------   -----------------  -----------------  -----------------  -----------------
         C            1.809238755054    -0.594960897770    -0.000005410147    12.000000000000
         H            1.701217155054    -1.706901997770     0.000275889853     1.007825032230
         H            2.362647155054    -0.308147997770     0.881100889853     1.007825032230
         H            2.362271155054    -0.308585997770    -0.881502110147     1.007825032230
         C            0.467398155054     0.109481002230     0.000129889853    12.000000000000
         O            0.404592155054     1.340665002230    -0.000024110147    15.994914619570
         N           -0.638191844946    -0.694150997770    -0.000115110147    14.003074004430
         H           -0.513394844946    -1.696294997770     0.000313889853     1.007825032230
         C           -1.983510844946    -0.153539997770     0.000021889853    12.000000000000
         H           -1.888173844946     0.931724002230    -0.001690110147     1.007825032230
         H           -2.534893844946    -0.469225997770    -0.890389110147     1.007825032230
         H           -2.533784844946    -0.466415997770     0.892129889853     1.007825032230

  Basis Set: AUG-CC-PVTZ
    Blend: AUG-CC-PVTZ
  Basis Set: (AUG-CC-PVTZ AUX)
    Blend: AUG-CC-PVTZ-JKFIT
	 Reference Energy          =    -247.1005414175156432 [Eh]
	 Singles Energy            =      -0.0000000000000000 [Eh]
	 Same-Spin Energy          =      -0.2465328900265779 [Eh]
	 Opposite-Spin Energy      =      -0.8106151217432553 [Eh]
	 Correlation Energy        =      -1.0571480117698333 [Eh]
	 Total Energy              =    -248.1576894292854831 [Eh]

	 ================> DF-SCS-MP2 Energies <==================
	-----------------------------------------------------------
	 SCS Same-Spin Scale       =       0.3333333333333333 [-]
	 SCS Opposite-Spin Scale   =       1.2000000000000000 [-]
	 SCS Same-Spin Energy      =      -0.0821776300088593 [Eh]
	 SCS Opposite-Spin Energy  =      -0.9727381460919063 [Eh]
	 SCS Correlation Energy    =      -1.0549157761007657 [Eh]
	 SCS Total Energy          =    -248.1554571936163995 [Eh]
	-----------------------------------------------------------

  Dipole Moment: [D]
     X:    -0.8254      Y:    -3.6989      Z:     0.0006     Total:     3.7899

*** Psi4 exiting successfully. Buy a developer a beer!
