                               Psi4 1.3.2 release

  ==> Input File <==

--------------------------------------------------------------------------
#psi4
#
memory 32 gb

molecule  {
0 1
  C        1.7986105    -0.5880724     0.0000013
  H        1.7159910    -1.6536130     0.0002720
  H        2.3774210    -0.2548590     0.8810970
  H        2.3770450    -0.2552970    -0.8815060
  C        0.4821720     0.1627700     0.0001260
  O        0.4193660     1.3939540    -0.0000280
  N       -0.6234180    -0.6408620    -0.0001190
  H       -0.4986210    -1.6430060     0.0003100
  C       -1.9687370    -0.1002510     0.0000180
  H       -1.8734000     0.9850130    -0.0016940
  H       -2.5201200    -0.4159370    -0.8903930
  H       -2.5190110    -0.4131270     0.8921260
units angstrom
no_reorient  #important for SAPT in psi4, default
symmetry c1  #important for SAPT in psi4, default
}

set PROPERTIES_ORIGIN ["COM"]
properties('MP2/aug-cc-pvtz', properties = ['dipole'])
--------------------------------------------------------------------------

    Molecular point group: c1
  Charge       = 0
  Multiplicity = 1
  Basis Set: AUG-CC-PVTZ
    Blend: AUG-CC-PVTZ
  Basis Set: (AUG-CC-PVTZ AUX)
    Blend: AUG-CC-PVTZ-JKFIT

    Orbital Energies [Eh]
    ---------------------

    Doubly Occupied:

       1A    -20.512000     2A    -15.588626     3A    -11.351270
       4A    -11.257819     5A    -11.238143     6A     -1.368434
       7A     -1.227792     8A     -1.017100     9A     -0.929581
      10A     -0.788590    11A     -0.689385    12A     -0.651351
      13A     -0.629679    14A     -0.582779    15A     -0.581858
      16A     -0.554068    17A     -0.543182    18A     -0.499963
      19A     -0.421243    20A     -0.391326

  @DF-RHF Final Energy:  -247.10016382913145

   => Energetics <=

    Nuclear Repulsion Energy =            179.7311719097427840
    One-Electron Energy =                -692.0142923190302326
    Two-Electron Energy =                 265.1829565801560307
    Total Energy =                       -247.1001638291314180
  Basis Set: (AUG-CC-PVTZ AUX)
    Blend: AUG-CC-PVTZ-RI
    Molecular point group: c1

    Geometry (in Angstrom), charge = 0, multiplicity = 1:

       Center              X                  Y                   Z               Mass
    ------------   -----------------  -----------------  -----------------  -----------------
         C            1.788009326750    -0.633739427421     0.000003448646    12.000000000000
         H            1.705389826750    -1.699280027421     0.000274148646     1.007825032230
         H            2.366819826750    -0.300526027421     0.881099148646     1.007825032230
         H            2.366443826750    -0.300964027421    -0.881503851354     1.007825032230
         C            0.471570826750     0.117102972579     0.000128148646    12.000000000000
         O            0.408764826750     1.348286972579    -0.000025851354    15.994914619570
         N           -0.634019173250    -0.686529027421    -0.000116851354    14.003074004430
         H           -0.509222173250    -1.688673027421     0.000312148646     1.007825032230
         C           -1.979338173250    -0.145918027421     0.000020148646    12.000000000000
         H           -1.884001173250     0.939345972579    -0.001691851354     1.007825032230
         H           -2.530721173250    -0.461604027421    -0.890390851354     1.007825032230
         H           -2.529612173250    -0.458794027421     0.892128148646     1.007825032230

  Basis Set: AUG-CC-PVTZ
    Blend: AUG-CC-PVTZ
  Basis Set: (AUG-CC-PVTZ AUX)
    Blend: AUG-CC-PVTZ-JKFIT
	 Reference Energy          =    -247.1001638291314464 [Eh]
	 Singles Energy            =      -0.0000000000000000 [Eh]
	 Same-Spin Energy          =      -0.2467066474223639 [Eh]
	 Opposite-Spin Energy      =      -0.8107228483104061 [Eh]
	 Correlation Energy        =      -1.0574294957327699 [Eh]
	 Total Energy              =    -248.1575933248642230 [Eh]

	 ================> DF-SCS-MP2 Energies <==================
	-----------------------------------------------------------
	 SCS Same-Spin Scale       =       0.3333333333333333 [-]
	 SCS Opposite-Spin Scale   =       1.2000000000000000 [-]
	 SCS Same-Spin Energy      =      -0.0822355491407880 [Eh]
	 SCS Opposite-Spin Energy  =      -0.9728674179724872 [Eh]
	 SCS Correlation Energy    =      -1.0551029671132752 [Eh]
	 SCS Total Energy          =    -248.1552667962447174 [Eh]
	-----------------------------------------------------------

  Dipole Moment: [D]
     X:    -0.8107      Y:    -3.7266      Z:     0.0006     Total:     3.8137

*** Psi4 exiting successfully. Buy a developer a beer!
