                               Psi4 1.4a3.dev225

  ==> Input File <==

--------------------------------------------------------------------------
#psi4
#
memory 32 gb

molecule  {
0 1
  C       -1.8103920    -0.5656140     0.0110420
  H       -1.7413530    -1.5922730    -0.3577540
  H       -2.5229550    -0.0084440    -0.5981450
  H       -2.1872940    -0.5855800     1.0374810
  C       -0.4835800     0.1666070    -0.0168160
  O       -0.4165860     1.3974030    -0.0026360
  N        0.6044379    -0.6281154    -0.0248291
  H        0.4923720    -1.6417740    -0.0116730
  C        1.9669970    -0.1034640     0.0152310
  H        1.8798420     0.9786710    -0.0752970
  H        2.4655150    -0.3449990     0.9590800
  H        2.5643020    -0.4906150    -0.8147010
units angstrom
no_reorient  #important for SAPT in psi4, default
symmetry c1  #important for SAPT in psi4, default
}

set PROPERTIES_ORIGIN ["COM"]
properties('MP2/aug-cc-pvtz', properties = ['dipole'])
--------------------------------------------------------------------------

    Molecular point group: c1
  Charge       = 0
  Multiplicity = 1
  Basis Set: AUG-CC-PVTZ
    Blend: AUG-CC-PVTZ
  Basis Set: (AUG-CC-PVTZ AUX)
    Blend: AUG-CC-PVTZ-JKFIT

    Orbital Energies [Eh]
    ---------------------

    Doubly Occupied:

       1A    -20.508942     2A    -15.590212     3A    -11.347637
       4A    -11.260033     5A    -11.236612     6A     -1.368376
       7A     -1.228590     8A     -1.016215     9A     -0.931613
      10A     -0.789202    11A     -0.688321    12A     -0.648557
      13A     -0.632154    14A     -0.585584    15A     -0.576161
      16A     -0.550363    17A     -0.544793    18A     -0.504098
      19A     -0.419021    20A     -0.392089

  @DF-RHF Final Energy:  -247.10086615135450

   => Energetics <=

    Nuclear Repulsion Energy =            179.9582720858366827
    One-Electron Energy =                -692.4811264120883152
    Two-Electron Energy =                 265.4219881748970806
    Total Energy =                       -247.1008661513545235
  Basis Set: (AUG-CC-PVTZ AUX)
    Blend: AUG-CC-PVTZ-RI
    Molecular point group: c1

    Geometry (in Angstrom), charge = 0, multiplicity = 1:

       Center              X                  Y                   Z               Mass
    ------------   -----------------  -----------------  -----------------  -----------------
         C           -1.794443216436    -0.617799484715     0.012907551739    12.000000000000
         H           -1.725404216436    -1.644458484715    -0.355888448261     1.007825032230
         H           -2.507006216436    -0.060629484715    -0.596279448261     1.007825032230
         H           -2.171345216436    -0.637765484715     1.039346551739     1.007825032230
         C           -0.467631216436     0.114421515285    -0.014950448261    12.000000000000
         O           -0.400637216436     1.345217515285    -0.000770448261    15.994914619570
         N            0.620386683564    -0.680300884715    -0.022963548261    14.003074004430
         H            0.508320783564    -1.693959484715    -0.009807448261     1.007825032230
         C            1.982945783564    -0.155649484715     0.017096551739    12.000000000000
         H            1.895790783564     0.926485515285    -0.073431448261     1.007825032230
         H            2.481463783564    -0.397184484715     0.960945551739     1.007825032230
         H            2.580250783564    -0.542800484715    -0.812835448261     1.007825032230

  Basis Set: AUG-CC-PVTZ
    Blend: AUG-CC-PVTZ
  Basis Set: (AUG-CC-PVTZ AUX)
    Blend: AUG-CC-PVTZ-JKFIT
	 Reference Energy          =    -247.1008661513544951 [Eh]
	 Singles Energy            =      -0.0000000000000000 [Eh]
	 Same-Spin Energy          =      -0.2465053631274691 [Eh]
	 Opposite-Spin Energy      =      -0.8104471330766611 [Eh]
	 Correlation Energy        =      -1.0569524962041301 [Eh]
	 Total Energy              =    -248.1578186475586278 [Eh]

	 ================> DF-SCS-MP2 Energies <==================
	-----------------------------------------------------------
	 SCS Same-Spin Scale       =       0.3333333333333333 [-]
	 SCS Opposite-Spin Scale   =       1.2000000000000000 [-]
	 SCS Same-Spin Energy      =      -0.0821684543758230 [Eh]
	 SCS Opposite-Spin Energy  =      -0.9725365596919933 [Eh]
	 SCS Correlation Energy    =      -1.0547050140678162 [Eh]
	 SCS Total Energy          =    -248.1555711654223160 [Eh]
	-----------------------------------------------------------

  Dipole Moment: [D]
     X:     0.9012      Y:    -3.7921      Z:     0.0651     Total:     3.8983

*** Psi4 exiting successfully. Buy a developer a beer!
