                               Psi4 1.3.2 release

  ==> Input File <==

--------------------------------------------------------------------------
#psi4
#
memory 32 gb

molecule  {
0 1
  C        1.8115140    -0.5649830    -0.0000040
  H        1.7159910    -1.6536130     0.0002720
  H        2.3774210    -0.2548590     0.8810970
  H        2.3770450    -0.2552970    -0.8815060
  C        0.3067405     0.2588106     0.0001432
  O        0.4193660     1.3939540    -0.0000280
  N       -0.6234180    -0.6408620    -0.0001190
  H       -0.4986210    -1.6430060     0.0003100
  C       -1.9687370    -0.1002510     0.0000180
  H       -1.8734000     0.9850130    -0.0016940
  H       -2.5201200    -0.4159370    -0.8903930
  H       -2.5190110    -0.4131270     0.8921260
units angstrom
no_reorient  #important for SAPT in psi4, default
symmetry c1  #important for SAPT in psi4, default
}

set PROPERTIES_ORIGIN ["COM"]
properties('MP2/aug-cc-pvtz', properties = ['dipole'])
--------------------------------------------------------------------------

    Molecular point group: c1
  Charge       = 0
  Multiplicity = 1
  Basis Set: AUG-CC-PVTZ
    Blend: AUG-CC-PVTZ
  Basis Set: (AUG-CC-PVTZ AUX)
    Blend: AUG-CC-PVTZ-JKFIT

    Orbital Energies [Eh]
    ---------------------

    Doubly Occupied:

       1A    -20.524938     2A    -15.596891     3A    -11.346371
       4A    -11.263806     5A    -11.214868     6A     -1.433517
       7A     -1.269572     8A     -0.982655     9A     -0.916888
      10A     -0.822728    11A     -0.688916    12A     -0.663231
      13A     -0.648006    14A     -0.592329    15A     -0.576526
      16A     -0.557546    17A     -0.530627    18A     -0.522707
      19A     -0.413929    20A     -0.381797

  @DF-RHF Final Energy:  -247.06291704901020

   => Energetics <=

    Nuclear Repulsion Energy =            181.2195020343340275
    One-Electron Energy =                -694.6691439690042671
    Two-Electron Energy =                 266.3867248856600440
    Total Energy =                       -247.0629170490101956
  Basis Set: (AUG-CC-PVTZ AUX)
    Blend: AUG-CC-PVTZ-RI
    Molecular point group: c1

    Geometry (in Angstrom), charge = 0, multiplicity = 1:

       Center              X                  Y                   Z               Mass
    ------------   -----------------  -----------------  -----------------  -----------------
         C            1.827610461408    -0.630218896888    -0.000003806106    12.000000000000
         H            1.732087461408    -1.718848896888     0.000272193894     1.007825032230
         H            2.393517461408    -0.320094896888     0.881097193894     1.007825032230
         H            2.393141461408    -0.320532896888    -0.881505806106     1.007825032230
         C            0.322836961408     0.193574703112     0.000143393894    12.000000000000
         O            0.435462461408     1.328718103112    -0.000027806106    15.994914619570
         N           -0.607321538592    -0.706097896888    -0.000118806106    14.003074004430
         H           -0.482524538592    -1.708241896888     0.000310193894     1.007825032230
         C           -1.952640538592    -0.165486896888     0.000018193894    12.000000000000
         H           -1.857303538592     0.919777103112    -0.001693806106     1.007825032230
         H           -2.504023538592    -0.481172896888    -0.890392806106     1.007825032230
         H           -2.502914538592    -0.478362896888     0.892126193894     1.007825032230

  Basis Set: AUG-CC-PVTZ
    Blend: AUG-CC-PVTZ
  Basis Set: (AUG-CC-PVTZ AUX)
    Blend: AUG-CC-PVTZ-JKFIT
	 Reference Energy          =    -247.0629170490101956 [Eh]
	 Singles Energy            =      -0.0000000000000000 [Eh]
	 Same-Spin Energy          =      -0.2455057795834695 [Eh]
	 Opposite-Spin Energy      =      -0.8086354465633724 [Eh]
	 Correlation Energy        =      -1.0541412261468419 [Eh]
	 Total Energy              =    -248.1170582751570350 [Eh]

	 ================> DF-SCS-MP2 Energies <==================
	-----------------------------------------------------------
	 SCS Same-Spin Scale       =       0.3333333333333333 [-]
	 SCS Opposite-Spin Scale   =       1.2000000000000000 [-]
	 SCS Same-Spin Energy      =      -0.0818352598611565 [Eh]
	 SCS Opposite-Spin Energy  =      -0.9703625358760468 [Eh]
	 SCS Correlation Energy    =      -1.0521977957372033 [Eh]
	 SCS Total Energy          =    -248.1151148447474100 [Eh]
	-----------------------------------------------------------

  Dipole Moment: [D]
     X:    -1.9342      Y:    -3.1441      Z:     0.0007     Total:     3.6914

*** Psi4 exiting successfully. Buy a developer a beer!
