                               Psi4 1.3.2 release

  ==> Input File <==

--------------------------------------------------------------------------
#psi4
#
memory 32 gb

molecule  {
0 1
  C        1.7281608    -0.6999504     0.0000283
  H        1.7159910    -1.6536130     0.0002720
  H        2.3774210    -0.2548590     0.8810970
  H        2.3770450    -0.2552970    -0.8815060
  C        0.4821720     0.1627700     0.0001260
  O        0.4193660     1.3939540    -0.0000280
  N       -0.6234180    -0.6408620    -0.0001190
  H       -0.4986210    -1.6430060     0.0003100
  C       -1.9687370    -0.1002510     0.0000180
  H       -1.8734000     0.9850130    -0.0016940
  H       -2.5201200    -0.4159370    -0.8903930
  H       -2.5190110    -0.4131270     0.8921260
units angstrom
no_reorient  #important for SAPT in psi4, default
symmetry c1  #important for SAPT in psi4, default
}

set PROPERTIES_ORIGIN ["COM"]
properties('MP2/aug-cc-pvtz', properties = ['dipole'])
--------------------------------------------------------------------------

    Molecular point group: c1
  Charge       = 0
  Multiplicity = 1
  Basis Set: AUG-CC-PVTZ
    Blend: AUG-CC-PVTZ
  Basis Set: (AUG-CC-PVTZ AUX)
    Blend: AUG-CC-PVTZ-JKFIT

    Orbital Energies [Eh]
    ---------------------

    Doubly Occupied:

       1A    -20.515683     2A    -15.586855     3A    -11.355252
       4A    -11.256475     5A    -11.242706     6A     -1.369973
       7A     -1.229218     8A     -1.022184     9A     -0.927842
      10A     -0.791270    11A     -0.704309    12A     -0.655533
      13A     -0.626339    14A     -0.603612    15A     -0.564651
      16A     -0.548562    17A     -0.539681    18A     -0.483322
      19A     -0.424789    20A     -0.392203

  @DF-RHF Final Energy:  -247.06819111847778

   => Energetics <=

    Nuclear Repulsion Energy =            179.9153455565582362
    One-Electron Energy =                -692.2861575207758733
    Two-Electron Energy =                 265.3026208457398525
    Total Energy =                       -247.0681911184777846
  Basis Set: (AUG-CC-PVTZ AUX)
    Blend: AUG-CC-PVTZ-RI
    Molecular point group: c1

    Geometry (in Angstrom), charge = 0, multiplicity = 1:

       Center              X                  Y                   Z               Mass
    ------------   -----------------  -----------------  -----------------  -----------------
         C            1.729132034903    -0.727239806517     0.000026013495    12.000000000000
         H            1.716962234903    -1.680902406517     0.000269713495     1.007825032230
         H            2.378392234903    -0.282148406517     0.881094713495     1.007825032230
         H            2.378016234903    -0.282586406517    -0.881508286505     1.007825032230
         C            0.483143234903     0.135480593483     0.000123713495    12.000000000000
         O            0.420337234903     1.366664593483    -0.000030286505    15.994914619570
         N           -0.622446765097    -0.668151406517    -0.000121286505    14.003074004430
         H           -0.497649765097    -1.670295406517     0.000307713495     1.007825032230
         C           -1.967765765097    -0.127540406517     0.000015713495    12.000000000000
         H           -1.872428765097     0.957723593483    -0.001696286505     1.007825032230
         H           -2.519148765097    -0.443226406517    -0.890395286505     1.007825032230
         H           -2.518039765097    -0.440416406517     0.892123713495     1.007825032230

  Basis Set: AUG-CC-PVTZ
    Blend: AUG-CC-PVTZ
  Basis Set: (AUG-CC-PVTZ AUX)
    Blend: AUG-CC-PVTZ-JKFIT
	 Reference Energy          =    -247.0681911184777846 [Eh]
	 Singles Energy            =      -0.0000000000000000 [Eh]
	 Same-Spin Energy          =      -0.2476491637292717 [Eh]
	 Opposite-Spin Energy      =      -0.8124626303318080 [Eh]
	 Correlation Energy        =      -1.0601117940610798 [Eh]
	 Total Energy              =    -248.1283029125388566 [Eh]

	 ================> DF-SCS-MP2 Energies <==================
	-----------------------------------------------------------
	 SCS Same-Spin Scale       =       0.3333333333333333 [-]
	 SCS Opposite-Spin Scale   =       1.2000000000000000 [-]
	 SCS Same-Spin Energy      =      -0.0825497212430906 [Eh]
	 SCS Opposite-Spin Energy  =      -0.9749551563981695 [Eh]
	 SCS Correlation Energy    =      -1.0575048776412601 [Eh]
	 SCS Total Energy          =    -248.1256959961190489 [Eh]
	-----------------------------------------------------------

  Dipole Moment: [D]
     X:    -0.8013      Y:    -3.7405      Z:     0.0006     Total:     3.8254

*** Psi4 exiting successfully. Buy a developer a beer!
