                               Psi4 1.3.2 release

  ==> Input File <==

--------------------------------------------------------------------------
#psi4
#
memory 32 gb

molecule  {
0 1
  C        1.8115140    -0.5649830    -0.0000040
  H        1.7159910    -1.6536130     0.0002720
  H        2.3774210    -0.2548590     0.8810970
  H        2.3770450    -0.2552970    -0.8815060
  C        0.5355374     0.0836903     0.0001811
  O        0.4193660     1.3939540    -0.0000280
  N       -0.6234180    -0.6408620    -0.0001190
  H       -0.4986210    -1.6430060     0.0003100
  C       -1.9687370    -0.1002510     0.0000180
  H       -1.8734000     0.9850130    -0.0016940
  H       -2.5201200    -0.4159370    -0.8903930
  H       -2.5190110    -0.4131270     0.8921260
units angstrom
no_reorient  #important for SAPT in psi4, default
symmetry c1  #important for SAPT in psi4, default
}

set PROPERTIES_ORIGIN ["COM"]
properties('MP2/aug-cc-pvtz', properties = ['dipole'])
--------------------------------------------------------------------------

    Molecular point group: c1
  Charge       = 0
  Multiplicity = 1
  Basis Set: AUG-CC-PVTZ
    Blend: AUG-CC-PVTZ
  Basis Set: (AUG-CC-PVTZ AUX)
    Blend: AUG-CC-PVTZ-JKFIT

    Orbital Energies [Eh]
    ---------------------

    Doubly Occupied:

       1A    -20.498550     2A    -15.596741     3A    -11.356098
       4A    -11.261244     5A    -11.242754     6A     -1.327155
       7A     -1.216419     8A     -1.042224     9A     -0.938681
      10A     -0.784512    11A     -0.694816    12A     -0.651948
      13A     -0.633675    14A     -0.593587    15A     -0.570402
      16A     -0.560999    17A     -0.532175    18A     -0.483726
      19A     -0.413427    20A     -0.381824

  @DF-RHF Final Energy:  -247.08102176282190

   => Energetics <=

    Nuclear Repulsion Energy =            179.1365381696889756
    One-Electron Energy =                -690.8732082733779407
    Two-Electron Energy =                 264.6556483408671170
    Total Energy =                       -247.0810217628218766
  Basis Set: (AUG-CC-PVTZ AUX)
    Blend: AUG-CC-PVTZ-RI
    Molecular point group: c1

    Geometry (in Angstrom), charge = 0, multiplicity = 1:

       Center              X                  Y                   Z               Mass
    ------------   -----------------  -----------------  -----------------  -----------------
         C            1.790027177007    -0.601452790183    -0.000010031743    12.000000000000
         H            1.694504177007    -1.690082790183     0.000265968257     1.007825032230
         H            2.355934177007    -0.291328790183     0.881090968257     1.007825032230
         H            2.355558177007    -0.291766790183    -0.881512031743     1.007825032230
         C            0.514050577007     0.047220509817     0.000175068257    12.000000000000
         O            0.397879177007     1.357484209817    -0.000034031743    15.994914619570
         N           -0.644904822993    -0.677331790183    -0.000125031743    14.003074004430
         H           -0.520107822993    -1.679475790183     0.000303968257     1.007825032230
         C           -1.990223822993    -0.136720790183     0.000011968257    12.000000000000
         H           -1.894886822993     0.948543209817    -0.001700031743     1.007825032230
         H           -2.541606822993    -0.452406790183    -0.890399031743     1.007825032230
         H           -2.540497822993    -0.449596790183     0.892119968257     1.007825032230

  Basis Set: AUG-CC-PVTZ
    Blend: AUG-CC-PVTZ
  Basis Set: (AUG-CC-PVTZ AUX)
    Blend: AUG-CC-PVTZ-JKFIT
	 Reference Energy          =    -247.0810217628219050 [Eh]
	 Singles Energy            =      -0.0000000000000000 [Eh]
	 Same-Spin Energy          =      -0.2488902185367954 [Eh]
	 Opposite-Spin Energy      =      -0.8148959863274575 [Eh]
	 Correlation Energy        =      -1.0637862048642530 [Eh]
	 Total Energy              =    -248.1448079676861482 [Eh]

	 ================> DF-SCS-MP2 Energies <==================
	-----------------------------------------------------------
	 SCS Same-Spin Scale       =       0.3333333333333333 [-]
	 SCS Opposite-Spin Scale   =       1.2000000000000000 [-]
	 SCS Same-Spin Energy      =      -0.0829634061789318 [Eh]
	 SCS Opposite-Spin Energy  =      -0.9778751835929490 [Eh]
	 SCS Correlation Energy    =      -1.0608385897718808 [Eh]
	 SCS Total Energy          =    -248.1418603525937954 [Eh]
	-----------------------------------------------------------

  Dipole Moment: [D]
     X:    -0.6873      Y:    -4.1670      Z:     0.0006     Total:     4.2233

*** Psi4 exiting successfully. Buy a developer a beer!
