                               Psi4 1.3.2 release

  ==> Input File <==

--------------------------------------------------------------------------
#psi4
#
memory 32 gb

molecule  {
0 1
  C        1.8115140    -0.5649830    -0.0000040
  H        1.7159910    -1.6536130     0.0002720
  H        2.3774210    -0.2548590     0.8810970
  H        2.3770450    -0.2552970    -0.8815060
  C        0.4821720     0.1627700     0.0001260
  O        0.4295553     1.1942137    -0.0000030
  N       -0.6234180    -0.6408620    -0.0001190
  H       -0.4986210    -1.6430060     0.0003100
  C       -1.9687370    -0.1002510     0.0000180
  H       -1.8734000     0.9850130    -0.0016940
  H       -2.5201200    -0.4159370    -0.8903930
  H       -2.5190110    -0.4131270     0.8921260
units angstrom
no_reorient  #important for SAPT in psi4, default
symmetry c1  #important for SAPT in psi4, default
}

set PROPERTIES_ORIGIN ["COM"]
properties('MP2/aug-cc-pvtz', properties = ['dipole'])
--------------------------------------------------------------------------

    Molecular point group: c1
  Charge       = 0
  Multiplicity = 1
  Basis Set: AUG-CC-PVTZ
    Blend: AUG-CC-PVTZ
  Basis Set: (AUG-CC-PVTZ AUX)
    Blend: AUG-CC-PVTZ-JKFIT

    Orbital Energies [Eh]
    ---------------------

    Doubly Occupied:

       1A    -20.513095     2A    -15.556248     3A    -11.310403
       4A    -11.250629     5A    -11.219132     6A     -1.514522
       7A     -1.216092     8A     -1.002922     9A     -0.921593
      10A     -0.774495    11A     -0.711975    12A     -0.665472
      13A     -0.662140    14A     -0.612635    15A     -0.585716
      16A     -0.544787    17A     -0.540181    18A     -0.536453
      19A     -0.412492    20A     -0.386538

  @DF-RHF Final Energy:  -247.04006649535754

   => Energetics <=

    Nuclear Repulsion Energy =            186.2166491220145019
    One-Electron Energy =                -704.6383916791738784
    Two-Electron Energy =                 271.3816760618018975
    Total Energy =                       -247.0400664953575074
  Basis Set: (AUG-CC-PVTZ AUX)
    Blend: AUG-CC-PVTZ-RI
    Molecular point group: c1

    Geometry (in Angstrom), charge = 0, multiplicity = 1:

       Center              X                  Y                   Z               Mass
    ------------   -----------------  -----------------  -----------------  -----------------
         C            1.796562286582    -0.570709632412    -0.000006454505    12.000000000000
         H            1.701039286582    -1.659339632412     0.000269545495     1.007825032230
         H            2.362469286582    -0.260585632412     0.881094545495     1.007825032230
         H            2.362093286582    -0.261023632412    -0.881508454505     1.007825032230
         C            0.467220286582     0.157043367588     0.000123545495    12.000000000000
         O            0.414603586582     1.188487067588    -0.000005454505    15.994914619570
         N           -0.638369713418    -0.646588632412    -0.000121454505    14.003074004430
         H           -0.513572713418    -1.648732632412     0.000307545495     1.007825032230
         C           -1.983688713418    -0.105977632412     0.000015545495    12.000000000000
         H           -1.888351713418     0.979286367588    -0.001696454505     1.007825032230
         H           -2.535071713418    -0.421663632412    -0.890395454505     1.007825032230
         H           -2.533962713418    -0.418853632412     0.892123545495     1.007825032230

  Basis Set: AUG-CC-PVTZ
    Blend: AUG-CC-PVTZ
  Basis Set: (AUG-CC-PVTZ AUX)
    Blend: AUG-CC-PVTZ-JKFIT
	 Reference Energy          =    -247.0400664953575358 [Eh]
	 Singles Energy            =      -0.0000000000000000 [Eh]
	 Same-Spin Energy          =      -0.2424631546956956 [Eh]
	 Opposite-Spin Energy      =      -0.7999415299471997 [Eh]
	 Correlation Energy        =      -1.0424046846428952 [Eh]
	 Total Energy              =    -248.0824711800004252 [Eh]

	 ================> DF-SCS-MP2 Energies <==================
	-----------------------------------------------------------
	 SCS Same-Spin Scale       =       0.3333333333333333 [-]
	 SCS Opposite-Spin Scale   =       1.2000000000000000 [-]
	 SCS Same-Spin Energy      =      -0.0808210515652319 [Eh]
	 SCS Opposite-Spin Energy  =      -0.9599298359366396 [Eh]
	 SCS Correlation Energy    =      -1.0407508875018714 [Eh]
	 SCS Total Energy          =    -248.0808173828594079 [Eh]
	-----------------------------------------------------------

  Dipole Moment: [D]
     X:    -0.5944      Y:    -2.4288      Z:     0.0007     Total:     2.5005

*** Psi4 exiting successfully. Buy a developer a beer!
