                               Psi4 1.3.2 release

  ==> Input File <==

--------------------------------------------------------------------------
#psi4
#
memory 32 gb

molecule  {
0 1
  C        1.8115140    -0.5649830    -0.0000040
  H        1.7159910    -1.6536130     0.0002720
  H        2.3774210    -0.2548590     0.8810970
  H        2.3770450    -0.2552970    -0.8815060
  C        0.4821720     0.1627700     0.0001260
  O        0.4193660     1.3939540    -0.0000280
  N       -0.6234180    -0.6408620    -0.0001190
  H       -0.4986210    -1.6430060     0.0003100
  C       -2.0615255    -0.0629643     0.0000274
  H       -1.8734000     0.9850130    -0.0016940
  H       -2.5201200    -0.4159370    -0.8903930
  H       -2.5190110    -0.4131270     0.8921260
units angstrom
no_reorient  #important for SAPT in psi4, default
symmetry c1  #important for SAPT in psi4, default
}

set PROPERTIES_ORIGIN ["COM"]
properties('MP2/aug-cc-pvtz', properties = ['dipole'])
--------------------------------------------------------------------------

    Molecular point group: c1
  Charge       = 0
  Multiplicity = 1
  Basis Set: AUG-CC-PVTZ
    Blend: AUG-CC-PVTZ
  Basis Set: (AUG-CC-PVTZ AUX)
    Blend: AUG-CC-PVTZ-JKFIT

    Orbital Energies [Eh]
    ---------------------

    Doubly Occupied:

       1A    -20.507651     2A    -15.585093     3A    -11.347182
       4A    -11.261464     5A    -11.235249     6A     -1.363148
       7A     -1.207765     8A     -1.011370     9A     -0.937473
      10A     -0.779425    11A     -0.681808    12A     -0.633269
      13A     -0.631809    14A     -0.592602    15A     -0.579169
      16A     -0.560681    17A     -0.537551    18A     -0.504884
      19A     -0.416132    20A     -0.391242

  @DF-RHF Final Energy:  -247.09339814267196

   => Energetics <=

    Nuclear Repulsion Energy =            178.2706173736295057
    One-Electron Energy =                -689.1980989772580415
    Two-Electron Energy =                 263.8340834609565491
    Total Energy =                       -247.0933981426719583
  Basis Set: (AUG-CC-PVTZ AUX)
    Blend: AUG-CC-PVTZ-RI
    Molecular point group: c1

    Geometry (in Angstrom), charge = 0, multiplicity = 1:

       Center              X                  Y                   Z               Mass
    ------------   -----------------  -----------------  -----------------  -----------------
         C            1.814035122875    -0.620567697360    -0.000002524840    12.000000000000
         H            1.718512122875    -1.709197697360     0.000273475160     1.007825032230
         H            2.379942122875    -0.310443697360     0.881098475160     1.007825032230
         H            2.379566122875    -0.310881697360    -0.881504524840     1.007825032230
         C            0.484693122875     0.107185302640     0.000127475160    12.000000000000
         O            0.421887122875     1.338369302640    -0.000026524840    15.994914619570
         N           -0.620896877125    -0.696446697360    -0.000117524840    14.003074004430
         H           -0.496099877125    -1.698590697360     0.000311475160     1.007825032230
         C           -2.059004377125    -0.118548997360     0.000028875160    12.000000000000
         H           -1.870878877125     0.929428302640    -0.001692524840     1.007825032230
         H           -2.517598877125    -0.471521697360    -0.890391524840     1.007825032230
         H           -2.516489877125    -0.468711697360     0.892127475160     1.007825032230

  Basis Set: AUG-CC-PVTZ
    Blend: AUG-CC-PVTZ
  Basis Set: (AUG-CC-PVTZ AUX)
    Blend: AUG-CC-PVTZ-JKFIT
	 Reference Energy          =    -247.0933981426719583 [Eh]
	 Singles Energy            =      -0.0000000000000000 [Eh]
	 Same-Spin Energy          =      -0.2462831460107286 [Eh]
	 Opposite-Spin Energy      =      -0.8110745822711870 [Eh]
	 Correlation Energy        =      -1.0573577282819155 [Eh]
	 Total Energy              =    -248.1507558709538728 [Eh]

	 ================> DF-SCS-MP2 Energies <==================
	-----------------------------------------------------------
	 SCS Same-Spin Scale       =       0.3333333333333333 [-]
	 SCS Opposite-Spin Scale   =       1.2000000000000000 [-]
	 SCS Same-Spin Energy      =      -0.0820943820035762 [Eh]
	 SCS Opposite-Spin Energy  =      -0.9732894987254244 [Eh]
	 SCS Correlation Energy    =      -1.0553838807290006 [Eh]
	 SCS Total Energy          =    -248.1487820234009689 [Eh]
	-----------------------------------------------------------

  Dipole Moment: [D]
     X:    -1.0868      Y:    -3.6956      Z:     0.0008     Total:     3.8521

*** Psi4 exiting successfully. Buy a developer a beer!
