                               Psi4 1.4a3.dev225

  ==> Input File <==

--------------------------------------------------------------------------
#psi4
#
memory 32 gb

molecule  {
0 1
  C       -1.8103920    -0.5656140     0.0110420
  H       -1.7413530    -1.5922730    -0.3577540
  H       -2.5229550    -0.0084440    -0.5981450
  H       -2.1872940    -0.5855800     1.0374810
  C       -0.4835800     0.1666070    -0.0168160
  O       -0.4165860     1.3974030    -0.0026360
  N        0.5802127    -0.6104206    -0.0246506
  H        0.4923720    -1.6417740    -0.0116730
  C        1.9669970    -0.1034640     0.0152310
  H        1.8798420     0.9786710    -0.0752970
  H        2.4655150    -0.3449990     0.9590800
  H        2.5643020    -0.4906150    -0.8147010
units angstrom
no_reorient  #important for SAPT in psi4, default
symmetry c1  #important for SAPT in psi4, default
}

set PROPERTIES_ORIGIN ["COM"]
properties('MP2/aug-cc-pvtz', properties = ['dipole'])
--------------------------------------------------------------------------

    Molecular point group: c1
  Charge       = 0
  Multiplicity = 1
  Basis Set: AUG-CC-PVTZ
    Blend: AUG-CC-PVTZ
  Basis Set: (AUG-CC-PVTZ AUX)
    Blend: AUG-CC-PVTZ-JKFIT

    Orbital Energies [Eh]
    ---------------------

    Doubly Occupied:

       1A    -20.503416     2A    -15.593218     3A    -11.342648
       4A    -11.263174     5A    -11.234751     6A     -1.368319
       7A     -1.230827     8A     -1.015639     9A     -0.934558
      10A     -0.790807    11A     -0.687841    12A     -0.647005
      13A     -0.633944    14A     -0.584873    15A     -0.573264
      16A     -0.549675    17A     -0.542459    18A     -0.505869
      19A     -0.415917    20A     -0.393229

  @DF-RHF Final Energy:  -247.09830643807004

   => Energetics <=

    Nuclear Repulsion Energy =            180.3546612439031378
    One-Electron Energy =                -693.2830649344954281
    Two-Electron Energy =                 265.8300972525222505
    Total Energy =                       -247.0983064380700398
  Basis Set: (AUG-CC-PVTZ AUX)
    Blend: AUG-CC-PVTZ-RI
    Molecular point group: c1

    Geometry (in Angstrom), charge = 0, multiplicity = 1:

       Center              X                  Y                   Z               Mass
    ------------   -----------------  -----------------  -----------------  -----------------
         C           -1.789799623908    -0.621191301545     0.012873336077    12.000000000000
         H           -1.720760623908    -1.647850301545    -0.355922663923     1.007825032230
         H           -2.502362623908    -0.064021301545    -0.596313663923     1.007825032230
         H           -2.166701623908    -0.641157301545     1.039312336077     1.007825032230
         C           -0.462987623908     0.111029698455    -0.014984663923    12.000000000000
         O           -0.395993623908     1.341825698455    -0.000804663923    15.994914619570
         N            0.600805076092    -0.665997901545    -0.022819263923    14.003074004430
         H            0.512964376092    -1.697351301545    -0.009841663923     1.007825032230
         C            1.987589376092    -0.159041301545     0.017062336077    12.000000000000
         H            1.900434376092     0.923093698455    -0.073465663923     1.007825032230
         H            2.486107376092    -0.400576301545     0.960911336077     1.007825032230
         H            2.584894376092    -0.546192301545    -0.812869663923     1.007825032230

  Basis Set: AUG-CC-PVTZ
    Blend: AUG-CC-PVTZ
  Basis Set: (AUG-CC-PVTZ AUX)
    Blend: AUG-CC-PVTZ-JKFIT
	 Reference Energy          =    -247.0983064380700398 [Eh]
	 Singles Energy            =      -0.0000000000000000 [Eh]
	 Same-Spin Energy          =      -0.2464810376496503 [Eh]
	 Opposite-Spin Energy      =      -0.8103305406366235 [Eh]
	 Correlation Energy        =      -1.0568115782862737 [Eh]
	 Total Energy              =    -248.1551180163563117 [Eh]

	 ================> DF-SCS-MP2 Energies <==================
	-----------------------------------------------------------
	 SCS Same-Spin Scale       =       0.3333333333333333 [-]
	 SCS Opposite-Spin Scale   =       1.2000000000000000 [-]
	 SCS Same-Spin Energy      =      -0.0821603458832168 [Eh]
	 SCS Opposite-Spin Energy  =      -0.9723966487639482 [Eh]
	 SCS Correlation Energy    =      -1.0545569946471649 [Eh]
	 SCS Total Energy          =    -248.1528634327171972 [Eh]
	-----------------------------------------------------------

  Dipole Moment: [D]
     X:     1.0561      Y:    -3.9024      Z:     0.0632     Total:     4.0433

*** Psi4 exiting successfully. Buy a developer a beer!
