                               Psi4 1.4a3.dev225

  ==> Input File <==

--------------------------------------------------------------------------
#psi4
#
memory 32 gb

molecule  {
0 1
  C       -1.8103920    -0.5656140     0.0110420
  H       -1.7413530    -1.5922730    -0.3577540
  H       -2.5229550    -0.0084440    -0.5981450
  H       -2.1872940    -0.5855800     1.0374810
  C       -0.4835800     0.1666070    -0.0168160
  O       -0.4193034     1.3474802    -0.0032112
  N        0.6205880    -0.6399120    -0.0249480
  H        0.4923720    -1.6417740    -0.0116730
  C        1.9669970    -0.1034640     0.0152310
  H        1.8798420     0.9786710    -0.0752970
  H        2.4655150    -0.3449990     0.9590800
  H        2.5643020    -0.4906150    -0.8147010
units angstrom
no_reorient  #important for SAPT in psi4, default
symmetry c1  #important for SAPT in psi4, default
}

set PROPERTIES_ORIGIN ["COM"]
properties('MP2/aug-cc-pvtz', properties = ['dipole'])
--------------------------------------------------------------------------

    Molecular point group: c1
  Charge       = 0
  Multiplicity = 1
  Basis Set: AUG-CC-PVTZ
    Blend: AUG-CC-PVTZ
  Basis Set: (AUG-CC-PVTZ AUX)
    Blend: AUG-CC-PVTZ-JKFIT

    Orbital Energies [Eh]
    ---------------------

    Doubly Occupied:

       1A    -20.513236     2A    -15.580211     3A    -11.341053
       4A    -11.256070     5A    -11.233551     6A     -1.400556
       7A     -1.225523     8A     -1.013098     9A     -0.927294
      10A     -0.783341    11A     -0.691282    12A     -0.652593
      13A     -0.633353    14A     -0.588868    15A     -0.585174
      16A     -0.551466    17A     -0.542131    18A     -0.513067
      19A     -0.421307    20A     -0.391018

  @DF-RHF Final Energy:  -247.10313997389659

   => Energetics <=

    Nuclear Repulsion Energy =            181.1860799301995542
    One-Electron Energy =                -694.8900564796209665
    Two-Electron Energy =                 266.6008365755248519
    Total Energy =                       -247.1031399738965888
  Basis Set: (AUG-CC-PVTZ AUX)
    Blend: AUG-CC-PVTZ-RI
    Molecular point group: c1

    Geometry (in Angstrom), charge = 0, multiplicity = 1:

       Center              X                  Y                   Z               Mass
    ------------   -----------------  -----------------  -----------------  -----------------
         C           -1.796943963223    -0.604607655473     0.013056283147    12.000000000000
         H           -1.727904963223    -1.631266655473    -0.355739716853     1.007825032230
         H           -2.509506963223    -0.047437655473    -0.596130716853     1.007825032230
         H           -2.173845963223    -0.624573655473     1.039495283147     1.007825032230
         C           -0.470131963223     0.127613344527    -0.014801716853    12.000000000000
         O           -0.405855363223     1.308486544527    -0.001196916853    15.994914619570
         N            0.634036036777    -0.678905655473    -0.022933716853    14.003074004430
         H            0.505820036777    -1.680767655473    -0.009658716853     1.007825032230
         C            1.980445036777    -0.142457655473     0.017245283147    12.000000000000
         H            1.893290036777     0.939677344527    -0.073282716853     1.007825032230
         H            2.478963036777    -0.383992655473     0.961094283147     1.007825032230
         H            2.577750036777    -0.529608655473    -0.812686716853     1.007825032230

  Basis Set: AUG-CC-PVTZ
    Blend: AUG-CC-PVTZ
  Basis Set: (AUG-CC-PVTZ AUX)
    Blend: AUG-CC-PVTZ-JKFIT
	 Reference Energy          =    -247.1031399738965888 [Eh]
	 Singles Energy            =      -0.0000000000000000 [Eh]
	 Same-Spin Energy          =      -0.2454267124786062 [Eh]
	 Opposite-Spin Energy      =      -0.8077801632692203 [Eh]
	 Correlation Energy        =      -1.0532068757478266 [Eh]
	 Total Energy              =    -248.1563468496444216 [Eh]

	 ================> DF-SCS-MP2 Energies <==================
	-----------------------------------------------------------
	 SCS Same-Spin Scale       =       0.3333333333333333 [-]
	 SCS Opposite-Spin Scale   =       1.2000000000000000 [-]
	 SCS Same-Spin Energy      =      -0.0818089041595354 [Eh]
	 SCS Opposite-Spin Energy  =      -0.9693361959230643 [Eh]
	 SCS Correlation Energy    =      -1.0511451000825998 [Eh]
	 SCS Total Energy          =    -248.1542850739791959 [Eh]
	-----------------------------------------------------------

  Dipole Moment: [D]
     X:     0.7408      Y:    -3.4215      Z:     0.0669     Total:     3.5014

*** Psi4 exiting successfully. Buy a developer a beer!
