                               Psi4 1.3.2 release

  ==> Input File <==

--------------------------------------------------------------------------
#psi4
#
memory 32 gb

molecule  {
0 1
  C        1.8115140    -0.5649830    -0.0000040
  H        1.7159910    -1.6536130     0.0002720
  H        2.3774210    -0.2548590     0.8810970
  H        2.3770450    -0.2552970    -0.8815060
  C        0.6576035     0.0667294     0.0001088
  O        0.4193660     1.3939540    -0.0000280
  N       -0.6234180    -0.6408620    -0.0001190
  H       -0.4986210    -1.6430060     0.0003100
  C       -1.9687370    -0.1002510     0.0000180
  H       -1.8734000     0.9850130    -0.0016940
  H       -2.5201200    -0.4159370    -0.8903930
  H       -2.5190110    -0.4131270     0.8921260
units angstrom
no_reorient  #important for SAPT in psi4, default
symmetry c1  #important for SAPT in psi4, default
}

set PROPERTIES_ORIGIN ["COM"]
properties('MP2/aug-cc-pvtz', properties = ['dipole'])
--------------------------------------------------------------------------

    Molecular point group: c1
  Charge       = 0
  Multiplicity = 1
  Basis Set: AUG-CC-PVTZ
    Blend: AUG-CC-PVTZ
  Basis Set: (AUG-CC-PVTZ AUX)
    Blend: AUG-CC-PVTZ-JKFIT

    Orbital Energies [Eh]
    ---------------------

    Doubly Occupied:

       1A    -20.503406     2A    -15.585472     3A    -11.367451
       4A    -11.254245     5A    -11.247088     6A     -1.309164
       7A     -1.189415     8A     -1.086447     9A     -0.925373
      10A     -0.767462    11A     -0.695473    12A     -0.658908
      13A     -0.642997    14A     -0.594892    15A     -0.586099
      16A     -0.557703    17A     -0.512742    18A     -0.464599
      19A     -0.414366    20A     -0.371138

  @DF-RHF Final Energy:  -247.02950891812512

   => Energetics <=

    Nuclear Repulsion Energy =            178.4863885126976015
    One-Electron Energy =                -689.5629153576703629
    Two-Electron Energy =                 264.0470179268476159
    Total Energy =                       -247.0295089181251456
  Basis Set: (AUG-CC-PVTZ AUX)
    Blend: AUG-CC-PVTZ-RI
    Molecular point group: c1

    Geometry (in Angstrom), charge = 0, multiplicity = 1:

       Center              X                  Y                   Z               Mass
    ------------   -----------------  -----------------  -----------------  -----------------
         C            1.769976009566    -0.598666710789     0.000001844604    12.000000000000
         H            1.674453009566    -1.687296710789     0.000277844604     1.007825032230
         H            2.335883009566    -0.288542710789     0.881102844604     1.007825032230
         H            2.335507009566    -0.288980710789    -0.881500155396     1.007825032230
         C            0.616065509566     0.033045689211     0.000114644604    12.000000000000
         O            0.377828009566     1.360270289211    -0.000022155396    15.994914619570
         N           -0.664955990434    -0.674545710789    -0.000113155396    14.003074004430
         H           -0.540158990434    -1.676689710789     0.000315844604     1.007825032230
         C           -2.010274990434    -0.133934710789     0.000023844604    12.000000000000
         H           -1.914937990434     0.951329289211    -0.001688155396     1.007825032230
         H           -2.561657990434    -0.449620710789    -0.890387155396     1.007825032230
         H           -2.560548990434    -0.446810710789     0.892131844604     1.007825032230

  Basis Set: AUG-CC-PVTZ
    Blend: AUG-CC-PVTZ
  Basis Set: (AUG-CC-PVTZ AUX)
    Blend: AUG-CC-PVTZ-JKFIT
	 Reference Energy          =    -247.0295089181251171 [Eh]
	 Singles Energy            =      -0.0000000000000000 [Eh]
	 Same-Spin Energy          =      -0.2520738092642806 [Eh]
	 Opposite-Spin Energy      =      -0.8205321182119657 [Eh]
	 Correlation Energy        =      -1.0726059274762463 [Eh]
	 Total Energy              =    -248.1021148456013634 [Eh]

	 ================> DF-SCS-MP2 Energies <==================
	-----------------------------------------------------------
	 SCS Same-Spin Scale       =       0.3333333333333333 [-]
	 SCS Opposite-Spin Scale   =       1.2000000000000000 [-]
	 SCS Same-Spin Energy      =      -0.0840246030880935 [Eh]
	 SCS Opposite-Spin Energy  =      -0.9846385418543588 [Eh]
	 SCS Correlation Energy    =      -1.0686631449424524 [Eh]
	 SCS Total Energy          =    -248.0981720630675795 [Eh]
	-----------------------------------------------------------

  Dipole Moment: [D]
     X:     0.0937      Y:    -4.0831      Z:     0.0005     Total:     4.0842

*** Psi4 exiting successfully. Buy a developer a beer!
