                               Psi4 1.4a3.dev225

  ==> Input File <==

--------------------------------------------------------------------------
#psi4
#
memory 32 gb

molecule  {
0 1
  C       -1.8103920    -0.5656140     0.0110420
  H       -1.7413530    -1.5922730    -0.3577540
  H       -2.5229550    -0.0084440    -0.5981450
  H       -2.1872940    -0.5855800     1.0374810
  C       -0.4835800     0.1666070    -0.0168160
  O       -0.4165860     1.3974030    -0.0026360
  N        0.6205880    -0.6399120    -0.0249480
  H        0.4898334    -1.6616105    -0.0114102
  C        1.9669970    -0.1034640     0.0152310
  H        1.8798420     0.9786710    -0.0752970
  H        2.4655150    -0.3449990     0.9590800
  H        2.5643020    -0.4906150    -0.8147010
units angstrom
no_reorient  #important for SAPT in psi4, default
symmetry c1  #important for SAPT in psi4, default
}

set PROPERTIES_ORIGIN ["COM"]
properties('MP2/aug-cc-pvtz', properties = ['dipole'])
--------------------------------------------------------------------------

    Molecular point group: c1
  Charge       = 0
  Multiplicity = 1
  Basis Set: AUG-CC-PVTZ
    Blend: AUG-CC-PVTZ
  Basis Set: (AUG-CC-PVTZ AUX)
    Blend: AUG-CC-PVTZ-JKFIT

    Orbital Energies [Eh]
    ---------------------

    Doubly Occupied:

       1A    -20.512457     2A    -15.590024     3A    -11.350727
       4A    -11.258026     5A    -11.237722     6A     -1.368504
       7A     -1.224979     8A     -1.016499     9A     -0.929106
      10A     -0.783546    11A     -0.687846    12A     -0.649357
      13A     -0.630974    14A     -0.586035    15A     -0.578132
      16A     -0.552696    17A     -0.542408    18A     -0.503081
      19A     -0.420780    20A     -0.390750

  @DF-RHF Final Energy:  -247.09999497609084

   => Energetics <=

    Nuclear Repulsion Energy =            179.5963074286524090
    One-Electron Energy =                -691.7653051762645191
    Two-Electron Energy =                 265.0690027715212977
    Total Energy =                       -247.0999949760908407
  Basis Set: (AUG-CC-PVTZ AUX)
    Blend: AUG-CC-PVTZ-RI
    Molecular point group: c1

    Geometry (in Angstrom), charge = 0, multiplicity = 1:

       Center              X                  Y                   Z               Mass
    ------------   -----------------  -----------------  -----------------  -----------------
         C           -1.797503916252    -0.615264599322     0.012926717463    12.000000000000
         H           -1.728464916252    -1.641923599322    -0.355869282537     1.007825032230
         H           -2.510066916252    -0.058094599322    -0.596260282537     1.007825032230
         H           -2.174405916252    -0.635230599322     1.039365717463     1.007825032230
         C           -0.470691916252     0.116956400678    -0.014931282537    12.000000000000
         O           -0.403697916252     1.347752400678    -0.000751282537    15.994914619570
         N            0.633476083748    -0.689562599322    -0.023063282537    14.003074004430
         H            0.502721483748    -1.711261099322    -0.009525482537     1.007825032230
         C            1.979885083748    -0.153114599322     0.017115717463    12.000000000000
         H            1.892730083748     0.929020400678    -0.073412282537     1.007825032230
         H            2.478403083748    -0.394649599322     0.960964717463     1.007825032230
         H            2.577190083748    -0.540265599322    -0.812816282537     1.007825032230

  Basis Set: AUG-CC-PVTZ
    Blend: AUG-CC-PVTZ
  Basis Set: (AUG-CC-PVTZ AUX)
    Blend: AUG-CC-PVTZ-JKFIT
	 Reference Energy          =    -247.0999949760908407 [Eh]
	 Singles Energy            =      -0.0000000000000000 [Eh]
	 Same-Spin Energy          =      -0.2466964873174681 [Eh]
	 Opposite-Spin Energy      =      -0.8109591995338281 [Eh]
	 Correlation Energy        =      -1.0576556868512963 [Eh]
	 Total Energy              =    -248.1576506629421317 [Eh]

	 ================> DF-SCS-MP2 Energies <==================
	-----------------------------------------------------------
	 SCS Same-Spin Scale       =       0.3333333333333333 [-]
	 SCS Opposite-Spin Scale   =       1.2000000000000000 [-]
	 SCS Same-Spin Energy      =      -0.0822321624391560 [Eh]
	 SCS Opposite-Spin Energy  =      -0.9731510394405937 [Eh]
	 SCS Correlation Energy    =      -1.0553832018797498 [Eh]
	 SCS Total Energy          =    -248.1553781779705901 [Eh]
	-----------------------------------------------------------

  Dipole Moment: [D]
     X:     0.8012      Y:    -3.7345      Z:     0.0666     Total:     3.8200

*** Psi4 exiting successfully. Buy a developer a beer!
