                               Psi4 1.4a3.dev225

  ==> Input File <==

--------------------------------------------------------------------------
#psi4
#
memory 32 gb

molecule  {
0 1
  C       -1.8103920    -0.5656140     0.0110420
  H       -1.7413530    -1.5922730    -0.3577540
  H       -2.5229550    -0.0084440    -0.5981450
  H       -2.1872940    -0.5855800     1.0374810
  C       -0.4835800     0.1666070    -0.0168160
  O       -0.4165860     1.3974030    -0.0026360
  N        0.6205880    -0.6399120    -0.0249480
  H        0.4923720    -1.6417740    -0.0116730
  C        1.9855694    -0.0960642     0.0157852
  H        1.8798420     0.9786710    -0.0752970
  H        2.4655150    -0.3449990     0.9590800
  H        2.5643020    -0.4906150    -0.8147010
units angstrom
no_reorient  #important for SAPT in psi4, default
symmetry c1  #important for SAPT in psi4, default
}

set PROPERTIES_ORIGIN ["COM"]
properties('MP2/aug-cc-pvtz', properties = ['dipole'])
--------------------------------------------------------------------------

    Molecular point group: c1
  Charge       = 0
  Multiplicity = 1
  Basis Set: AUG-CC-PVTZ
    Blend: AUG-CC-PVTZ
  Basis Set: (AUG-CC-PVTZ AUX)
    Blend: AUG-CC-PVTZ-JKFIT

    Orbital Energies [Eh]
    ---------------------

    Doubly Occupied:

       1A    -20.511735     2A    -15.587489     3A    -11.350045
       4A    -11.258385     5A    -11.237308     6A     -1.367590
       7A     -1.222890     8A     -1.015509     9A     -0.931195
      10A     -0.786043    11A     -0.686994    12A     -0.646107
      13A     -0.630795    14A     -0.587449    15A     -0.577678
      16A     -0.551726    17A     -0.546591    18A     -0.503893
      19A     -0.420043    20A     -0.391371

  @DF-RHF Final Energy:  -247.10081715534608

   => Energetics <=

    Nuclear Repulsion Energy =            179.4086401193444260
    One-Electron Energy =                -691.3972407527571704
    Two-Electron Energy =                 264.8877834780666376
    Total Energy =                       -247.1008171553460784
  Basis Set: (AUG-CC-PVTZ AUX)
    Blend: AUG-CC-PVTZ-RI
    Molecular point group: c1

    Geometry (in Angstrom), charge = 0, multiplicity = 1:

       Center              X                  Y                   Z               Mass
    ------------   -----------------  -----------------  -----------------  -----------------
         C           -1.800589730570    -0.616753787622     0.012839307442    12.000000000000
         H           -1.731550730570    -1.643412787622    -0.355956692558     1.007825032230
         H           -2.513152730570    -0.059583787622    -0.596347692558     1.007825032230
         H           -2.177491730570    -0.636719787622     1.039278307442     1.007825032230
         C           -0.473777730570     0.115467212378    -0.015018692558    12.000000000000
         O           -0.406783730570     1.346263212378    -0.000838692558    15.994914619570
         N            0.630390269430    -0.691051787622    -0.023150692558    14.003074004430
         H            0.502174269430    -1.692913787622    -0.009875692558     1.007825032230
         C            1.995371669430    -0.147203987622     0.017582507442    12.000000000000
         H            1.889644269430     0.927531212378    -0.073499692558     1.007825032230
         H            2.475317269430    -0.396138787622     0.960877307442     1.007825032230
         H            2.574104269430    -0.541754787622    -0.812903692558     1.007825032230

  Basis Set: AUG-CC-PVTZ
    Blend: AUG-CC-PVTZ
  Basis Set: (AUG-CC-PVTZ AUX)
    Blend: AUG-CC-PVTZ-JKFIT
	 Reference Energy          =    -247.1008171553460784 [Eh]
	 Singles Energy            =      -0.0000000000000000 [Eh]
	 Same-Spin Energy          =      -0.2464421305180780 [Eh]
	 Opposite-Spin Energy      =      -0.8106048947602652 [Eh]
	 Correlation Energy        =      -1.0570470252783433 [Eh]
	 Total Energy              =    -248.1578641806244150 [Eh]

	 ================> DF-SCS-MP2 Energies <==================
	-----------------------------------------------------------
	 SCS Same-Spin Scale       =       0.3333333333333333 [-]
	 SCS Opposite-Spin Scale   =       1.2000000000000000 [-]
	 SCS Same-Spin Energy      =      -0.0821473768393593 [Eh]
	 SCS Opposite-Spin Energy  =      -0.9727258737123182 [Eh]
	 SCS Correlation Energy    =      -1.0548732505516776 [Eh]
	 SCS Total Energy          =    -248.1556904058977580 [Eh]
	-----------------------------------------------------------

  Dipole Moment: [D]
     X:     0.8548      Y:    -3.7166      Z:     0.0691     Total:     3.8143

*** Psi4 exiting successfully. Buy a developer a beer!
