                               Psi4 1.3.2 release

  ==> Input File <==

--------------------------------------------------------------------------
#psi4
#
memory 32 gb

molecule  {
0 1
  C        1.8115140    -0.5649830    -0.0000040
  H        1.7159910    -1.6536130     0.0002720
  H        2.3774210    -0.2548590     0.8810970
  H        2.3770450    -0.2552970    -0.8815060
  C        0.4821720     0.1627700     0.0001260
  O        0.3336359     1.3865738    -0.0000530
  N       -0.6234180    -0.6408620    -0.0001190
  H       -0.4986210    -1.6430060     0.0003100
  C       -1.9687370    -0.1002510     0.0000180
  H       -1.8734000     0.9850130    -0.0016940
  H       -2.5201200    -0.4159370    -0.8903930
  H       -2.5190110    -0.4131270     0.8921260
units angstrom
no_reorient  #important for SAPT in psi4, default
symmetry c1  #important for SAPT in psi4, default
}

set PROPERTIES_ORIGIN ["COM"]
properties('MP2/aug-cc-pvtz', properties = ['dipole'])
--------------------------------------------------------------------------

    Molecular point group: c1
  Charge       = 0
  Multiplicity = 1
  Basis Set: AUG-CC-PVTZ
    Blend: AUG-CC-PVTZ
  Basis Set: (AUG-CC-PVTZ AUX)
    Blend: AUG-CC-PVTZ-JKFIT

    Orbital Energies [Eh]
    ---------------------

    Doubly Occupied:

       1A    -20.510128     2A    -15.584786     3A    -11.350833
       4A    -11.254473     5A    -11.242425     6A     -1.369773
       7A     -1.222058     8A     -1.019461     9A     -0.928590
      10A     -0.785048    11A     -0.689550    12A     -0.649339
      13A     -0.630023    14A     -0.586100    15A     -0.579644
      16A     -0.555211    17A     -0.538623    18A     -0.503436
      19A     -0.421402    20A     -0.387638

  @DF-RHF Final Energy:  -247.09958149362146

   => Energetics <=

    Nuclear Repulsion Energy =            180.0793044515997110
    One-Electron Energy =                -692.7406898164634867
    Two-Electron Energy =                 265.5618038712423186
    Total Energy =                       -247.0995814936214856
  Basis Set: (AUG-CC-PVTZ AUX)
    Blend: AUG-CC-PVTZ-RI
    Molecular point group: c1

    Geometry (in Angstrom), charge = 0, multiplicity = 1:

       Center              X                  Y                   Z               Mass
    ------------   -----------------  -----------------  -----------------  -----------------
         C            1.817563854935    -0.612826907839     0.000004493003    12.000000000000
         H            1.722040854935    -1.701456907839     0.000280493003     1.007825032230
         H            2.383470854935    -0.302702907839     0.881105493003     1.007825032230
         H            2.383094854935    -0.303140907839    -0.881497506997     1.007825032230
         C            0.488221854935     0.114926092161     0.000134493003    12.000000000000
         O            0.339685754935     1.338729892161    -0.000044506997    15.994914619570
         N           -0.617368145065    -0.688705907839    -0.000110506997    14.003074004430
         H           -0.492571145065    -1.690849907839     0.000318493003     1.007825032230
         C           -1.962687145065    -0.148094907839     0.000026493003    12.000000000000
         H           -1.867350145065     0.937169092161    -0.001685506997     1.007825032230
         H           -2.514070145065    -0.463780907839    -0.890384506997     1.007825032230
         H           -2.512961145065    -0.460970907839     0.892134493003     1.007825032230

  Basis Set: AUG-CC-PVTZ
    Blend: AUG-CC-PVTZ
  Basis Set: (AUG-CC-PVTZ AUX)
    Blend: AUG-CC-PVTZ-JKFIT
	 Reference Energy          =    -247.0995814936214572 [Eh]
	 Singles Energy            =      -0.0000000000000000 [Eh]
	 Same-Spin Energy          =      -0.2468408287685005 [Eh]
	 Opposite-Spin Energy      =      -0.8108042803063475 [Eh]
	 Correlation Energy        =      -1.0576451090748480 [Eh]
	 Total Energy              =    -248.1572266026963121 [Eh]

	 ================> DF-SCS-MP2 Energies <==================
	-----------------------------------------------------------
	 SCS Same-Spin Scale       =       0.3333333333333333 [-]
	 SCS Opposite-Spin Scale   =       1.2000000000000000 [-]
	 SCS Same-Spin Energy      =      -0.0822802762561668 [Eh]
	 SCS Opposite-Spin Energy  =      -0.9729651363676171 [Eh]
	 SCS Correlation Energy    =      -1.0552454126237838 [Eh]
	 SCS Total Energy          =    -248.1548269062452334 [Eh]
	-----------------------------------------------------------

  Dipole Moment: [D]
     X:    -0.5367      Y:    -3.7053      Z:     0.0007     Total:     3.7440

*** Psi4 exiting successfully. Buy a developer a beer!
