                               Psi4 1.3.2 release

  ==> Input File <==

--------------------------------------------------------------------------
#psi4
#
memory 32 gb

molecule  {
0 1
  C        1.7853060    -0.6109330     0.0000066
  H        1.7159910    -1.6536130     0.0002720
  H        2.3774210    -0.2548590     0.8810970
  H        2.3770450    -0.2552970    -0.8815060
  C        0.4821720     0.1627700     0.0001260
  O        0.4193660     1.3939540    -0.0000280
  N       -0.6234180    -0.6408620    -0.0001190
  H       -0.4986210    -1.6430060     0.0003100
  C       -1.9687370    -0.1002510     0.0000180
  H       -1.8734000     0.9850130    -0.0016940
  H       -2.5201200    -0.4159370    -0.8903930
  H       -2.5190110    -0.4131270     0.8921260
units angstrom
no_reorient  #important for SAPT in psi4, default
symmetry c1  #important for SAPT in psi4, default
}

set PROPERTIES_ORIGIN ["COM"]
properties('MP2/aug-cc-pvtz', properties = ['dipole'])
--------------------------------------------------------------------------

    Molecular point group: c1
  Charge       = 0
  Multiplicity = 1
  Basis Set: AUG-CC-PVTZ
    Blend: AUG-CC-PVTZ
  Basis Set: (AUG-CC-PVTZ AUX)
    Blend: AUG-CC-PVTZ-JKFIT

    Orbital Energies [Eh]
    ---------------------

    Doubly Occupied:

       1A    -20.512606     2A    -15.588216     3A    -11.351813
       4A    -11.257524     5A    -11.238614     6A     -1.368590
       7A     -1.227958     8A     -1.017864     9A     -0.929012
      10A     -0.788801    11A     -0.690667    12A     -0.652700
      13A     -0.628666    14A     -0.587517    15A     -0.577810
      16A     -0.553600    17A     -0.542878    18A     -0.497227
      19A     -0.422017    20A     -0.391434

  @DF-RHF Final Energy:  -247.09750100003660

   => Energetics <=

    Nuclear Repulsion Energy =            179.7586020929071537
    One-Electron Energy =                -692.0611776304118621
    Two-Electron Energy =                 265.2050745374680787
    Total Energy =                       -247.0975010000366296
  Basis Set: (AUG-CC-PVTZ AUX)
    Blend: AUG-CC-PVTZ-RI
    Molecular point group: c1

    Geometry (in Angstrom), charge = 0, multiplicity = 1:

       Center              X                  Y                   Z               Mass
    ------------   -----------------  -----------------  -----------------  -----------------
         C            1.776890288211    -0.652844834796     0.000007878042    12.000000000000
         H            1.707575288211    -1.695524834796     0.000273278042     1.007825032230
         H            2.369005288211    -0.296770834796     0.881098278042     1.007825032230
         H            2.368629288211    -0.297208834796    -0.881504721958     1.007825032230
         C            0.473756288211     0.120858165204     0.000127278042    12.000000000000
         O            0.410950288211     1.352042165204    -0.000026721958    15.994914619570
         N           -0.631833711789    -0.682773834796    -0.000117721958    14.003074004430
         H           -0.507036711789    -1.684917834796     0.000311278042     1.007825032230
         C           -1.977152711789    -0.142162834796     0.000019278042    12.000000000000
         H           -1.881815711789     0.943101165204    -0.001692721958     1.007825032230
         H           -2.528535711789    -0.457848834796    -0.890391721958     1.007825032230
         H           -2.527426711789    -0.455038834796     0.892127278042     1.007825032230

  Basis Set: AUG-CC-PVTZ
    Blend: AUG-CC-PVTZ
  Basis Set: (AUG-CC-PVTZ AUX)
    Blend: AUG-CC-PVTZ-JKFIT
	 Reference Energy          =    -247.0975010000366012 [Eh]
	 Singles Energy            =      -0.0000000000000000 [Eh]
	 Same-Spin Energy          =      -0.2468354159146732 [Eh]
	 Opposite-Spin Energy      =      -0.8108946425316601 [Eh]
	 Correlation Energy        =      -1.0577300584463334 [Eh]
	 Total Energy              =    -248.1552310584829399 [Eh]

	 ================> DF-SCS-MP2 Energies <==================
	-----------------------------------------------------------
	 SCS Same-Spin Scale       =       0.3333333333333333 [-]
	 SCS Opposite-Spin Scale   =       1.2000000000000000 [-]
	 SCS Same-Spin Energy      =      -0.0822784719715577 [Eh]
	 SCS Opposite-Spin Energy  =      -0.9730735710379921 [Eh]
	 SCS Correlation Energy    =      -1.0553520430095498 [Eh]
	 SCS Total Energy          =    -248.1528530430461501 [Eh]
	-----------------------------------------------------------

  Dipole Moment: [D]
     X:    -0.8055      Y:    -3.7356      Z:     0.0006     Total:     3.8214

*** Psi4 exiting successfully. Buy a developer a beer!
