                               Psi4 1.3.2 release

  ==> Input File <==

--------------------------------------------------------------------------
#psi4
#
memory 32 gb

molecule  {
0 1
  C        1.8115140    -0.5649830    -0.0000040
  H        1.7159910    -1.6536130     0.0002720
  H        2.3774210    -0.2548590     0.8810970
  H        2.3770450    -0.2552970    -0.8815060
  C        0.4821720     0.1627700     0.0001260
  O        0.4193660     1.3939540    -0.0000280
  N       -0.6234180    -0.6408620    -0.0001190
  H       -0.4986210    -1.6430060     0.0003100
  C       -1.9687370    -0.1002510     0.0000180
  H       -1.8734000     0.9850130    -0.0016940
  H       -2.5201200    -0.4159370    -0.8903930
  H       -2.5190110    -0.4131270     0.8921260
units angstrom
no_reorient  #important for SAPT in psi4, default
symmetry c1  #important for SAPT in psi4, default
}

set PROPERTIES_ORIGIN ["COM"]
properties('MP2/aug-cc-pvtz', properties = ['dipole'])
--------------------------------------------------------------------------

    Molecular point group: c1
  Charge       = 0
  Multiplicity = 1
  Basis Set: AUG-CC-PVTZ
    Blend: AUG-CC-PVTZ
  Basis Set: (AUG-CC-PVTZ AUX)
    Blend: AUG-CC-PVTZ-JKFIT

    Orbital Energies [Eh]
    ---------------------

    Doubly Occupied:

       1A    -20.511460     2A    -15.589062     3A    -11.350852
       4A    -11.258126     5A    -11.237902     6A     -1.368357
       7A     -1.227682     8A     -1.016458     9A     -0.930231
      10A     -0.788491    11A     -0.688820    12A     -0.649962
      13A     -0.630944    14A     -0.586059    15A     -0.578393
      16A     -0.553579    17A     -0.543358    18A     -0.502412
      19A     -0.420426    20A     -0.391253

  @DF-RHF Final Energy:  -247.10114295415249

   => Energetics <=

    Nuclear Repulsion Energy =            179.7078831898487863
    One-Electron Energy =                -691.9703949324964469
    Two-Electron Energy =                 265.1613687884952242
    Total Energy =                       -247.1011429541524649
  Basis Set: (AUG-CC-PVTZ AUX)
    Blend: AUG-CC-PVTZ-RI
    Molecular point group: c1

    Geometry (in Angstrom), charge = 0, multiplicity = 1:

       Center              X                  Y                   Z               Mass
    ------------   -----------------  -----------------  -----------------  -----------------
         C            1.798793235487    -0.614442803839    -0.000000980751    12.000000000000
         H            1.703270235487    -1.703072803839     0.000275019249     1.007825032230
         H            2.364700235487    -0.304318803839     0.881100019249     1.007825032230
         H            2.364324235487    -0.304756803839    -0.881502980751     1.007825032230
         C            0.469451235487     0.113310196161     0.000129019249    12.000000000000
         O            0.406645235487     1.344494196161    -0.000024980751    15.994914619570
         N           -0.636138764513    -0.690321803839    -0.000115980751    14.003074004430
         H           -0.511341764513    -1.692465803839     0.000313019249     1.007825032230
         C           -1.981457764513    -0.149710803839     0.000021019249    12.000000000000
         H           -1.886120764513     0.935553196161    -0.001690980751     1.007825032230
         H           -2.532840764513    -0.465396803839    -0.890389980751     1.007825032230
         H           -2.531731764513    -0.462586803839     0.892129019249     1.007825032230

  Basis Set: AUG-CC-PVTZ
    Blend: AUG-CC-PVTZ
  Basis Set: (AUG-CC-PVTZ AUX)
    Blend: AUG-CC-PVTZ-JKFIT
	 Reference Energy          =    -247.1011429541524933 [Eh]
	 Singles Energy            =      -0.0000000000000000 [Eh]
	 Same-Spin Energy          =      -0.2466060783061270 [Eh]
	 Opposite-Spin Energy      =      -0.8106310049521714 [Eh]
	 Correlation Energy        =      -1.0572370832582985 [Eh]
	 Total Energy              =    -248.1583800374107796 [Eh]

	 ================> DF-SCS-MP2 Energies <==================
	-----------------------------------------------------------
	 SCS Same-Spin Scale       =       0.3333333333333333 [-]
	 SCS Opposite-Spin Scale   =       1.2000000000000000 [-]
	 SCS Same-Spin Energy      =      -0.0822020261020423 [Eh]
	 SCS Opposite-Spin Energy  =      -0.9727572059426057 [Eh]
	 SCS Correlation Energy    =      -1.0549592320446481 [Eh]
	 SCS Total Energy          =    -248.1561021861971312 [Eh]
	-----------------------------------------------------------

  Dipole Moment: [D]
     X:    -0.8173      Y:    -3.7144      Z:     0.0006     Total:     3.8032

*** Psi4 exiting successfully. Buy a developer a beer!
