                               Psi4 1.3.2 release

  ==> Input File <==

--------------------------------------------------------------------------
#psi4
#
memory 32 gb

molecule  {
0 1
  C        1.7575103    -0.6559404     0.0000174
  H        1.7159910    -1.6536130     0.0002720
  H        2.3774210    -0.2548590     0.8810970
  H        2.3770450    -0.2552970    -0.8815060
  C        0.4821720     0.1627700     0.0001260
  O        0.4193660     1.3939540    -0.0000280
  N       -0.6234180    -0.6408620    -0.0001190
  H       -0.4986210    -1.6430060     0.0003100
  C       -1.9687370    -0.1002510     0.0000180
  H       -1.8734000     0.9850130    -0.0016940
  H       -2.5201200    -0.4159370    -0.8903930
  H       -2.5190110    -0.4131270     0.8921260
units angstrom
no_reorient  #important for SAPT in psi4, default
symmetry c1  #important for SAPT in psi4, default
}

set PROPERTIES_ORIGIN ["COM"]
properties('MP2/aug-cc-pvtz', properties = ['dipole'])
--------------------------------------------------------------------------

    Molecular point group: c1
  Charge       = 0
  Multiplicity = 1
  Basis Set: AUG-CC-PVTZ
    Blend: AUG-CC-PVTZ
  Basis Set: (AUG-CC-PVTZ AUX)
    Blend: AUG-CC-PVTZ-JKFIT

    Orbital Energies [Eh]
    ---------------------

    Doubly Occupied:

       1A    -20.514014     2A    -15.587476     3A    -11.353277
       4A    -11.256972     5A    -11.240226     6A     -1.369131
       7A     -1.228465     8A     -1.019768     9A     -0.928174
      10A     -0.789655    11A     -0.695824    12A     -0.654761
      13A     -0.627220    14A     -0.596424    15A     -0.570522
      16A     -0.551248    17A     -0.541838    18A     -0.490853
      19A     -0.423462    20A     -0.391755

  @DF-RHF Final Energy:  -247.08674406079570

   => Energetics <=

    Nuclear Repulsion Energy =            179.8270874734444362
    One-Electron Energy =                -692.1655308766237340
    Two-Electron Energy =                 265.2516993423836311
    Total Energy =                       -247.0867440607956951
  Basis Set: (AUG-CC-PVTZ AUX)
    Blend: AUG-CC-PVTZ-RI
    Molecular point group: c1

    Geometry (in Angstrom), charge = 0, multiplicity = 1:

       Center              X                  Y                   Z               Mass
    ------------   -----------------  -----------------  -----------------  -----------------
         C            1.753660444209    -0.690459101785     0.000016903982    12.000000000000
         H            1.712141144209    -1.688131701785     0.000271503982     1.007825032230
         H            2.373571144209    -0.289377701785     0.881096503982     1.007825032230
         H            2.373195144209    -0.289815701785    -0.881506496018     1.007825032230
         C            0.478322144209     0.128251298215     0.000125503982    12.000000000000
         O            0.415516144209     1.359435298215    -0.000028496018    15.994914619570
         N           -0.627267855791    -0.675380701785    -0.000119496018    14.003074004430
         H           -0.502470855791    -1.677524701785     0.000309503982     1.007825032230
         C           -1.972586855791    -0.134769701785     0.000017503982    12.000000000000
         H           -1.877249855791     0.950494298215    -0.001694496018     1.007825032230
         H           -2.523969855791    -0.450455701785    -0.890393496018     1.007825032230
         H           -2.522860855791    -0.447645701785     0.892125503982     1.007825032230

  Basis Set: AUG-CC-PVTZ
    Blend: AUG-CC-PVTZ
  Basis Set: (AUG-CC-PVTZ AUX)
    Blend: AUG-CC-PVTZ-JKFIT
	 Reference Energy          =    -247.0867440607956951 [Eh]
	 Singles Energy            =      -0.0000000000000000 [Eh]
	 Same-Spin Energy          =      -0.2471808879038657 [Eh]
	 Opposite-Spin Energy      =      -0.8114944671970419 [Eh]
	 Correlation Energy        =      -1.0586753551009076 [Eh]
	 Total Energy              =    -248.1454194158966118 [Eh]

	 ================> DF-SCS-MP2 Energies <==================
	-----------------------------------------------------------
	 SCS Same-Spin Scale       =       0.3333333333333333 [-]
	 SCS Opposite-Spin Scale   =       1.2000000000000000 [-]
	 SCS Same-Spin Energy      =      -0.0823936293012886 [Eh]
	 SCS Opposite-Spin Energy  =      -0.9737933606364502 [Eh]
	 SCS Correlation Energy    =      -1.0561869899377387 [Eh]
	 SCS Total Energy          =    -248.1429310507334378 [Eh]
	-----------------------------------------------------------

  Dipole Moment: [D]
     X:    -0.7999      Y:    -3.7441      Z:     0.0006     Total:     3.8286

*** Psi4 exiting successfully. Buy a developer a beer!
