                               Psi4 1.3.2 release

  ==> Input File <==

--------------------------------------------------------------------------
#psi4
#
memory 32 gb

molecule  {
0 1
  C        1.8115140    -0.5649830    -0.0000040
  H        1.7159910    -1.6536130     0.0002720
  H        2.3774210    -0.2548590     0.8810970
  H        2.3770450    -0.2552970    -0.8815060
  C        0.4821720     0.1627700     0.0001260
  O        0.4193660     1.3939540    -0.0000280
  N       -0.6234180    -0.6408620    -0.0001190
  H       -0.4986210    -1.6430060     0.0003100
  C       -1.7831600    -0.1748244    -0.0000009
  H       -1.8734000     0.9850130    -0.0016940
  H       -2.5201200    -0.4159370    -0.8903930
  H       -2.5190110    -0.4131270     0.8921260
units angstrom
no_reorient  #important for SAPT in psi4, default
symmetry c1  #important for SAPT in psi4, default
}

set PROPERTIES_ORIGIN ["COM"]
properties('MP2/aug-cc-pvtz', properties = ['dipole'])
--------------------------------------------------------------------------

    Molecular point group: c1
  Charge       = 0
  Multiplicity = 1
  Basis Set: AUG-CC-PVTZ
    Blend: AUG-CC-PVTZ
  Basis Set: (AUG-CC-PVTZ AUX)
    Blend: AUG-CC-PVTZ-JKFIT

    Orbital Energies [Eh]
    ---------------------

    Doubly Occupied:

       1A    -20.521706     2A    -15.593667     3A    -11.359188
       4A    -11.261929     5A    -11.243993     6A     -1.385905
       7A     -1.285643     8A     -1.030933     9A     -0.921145
      10A     -0.811428    11A     -0.716370    12A     -0.677788
      13A     -0.645625    14A     -0.591421    15A     -0.583100
      16A     -0.569376    17A     -0.492628    18A     -0.490295
      19A     -0.430746    20A     -0.375722

  @DF-RHF Final Energy:  -247.04960747201420

   => Energetics <=

    Nuclear Repulsion Energy =            183.0225638306710323
    One-Electron Energy =                -698.1671282093730042
    Two-Electron Energy =                 268.0949569066877416
    Total Energy =                       -247.0496074720142019
  Basis Set: (AUG-CC-PVTZ AUX)
    Blend: AUG-CC-PVTZ-RI
    Molecular point group: c1

    Geometry (in Angstrom), charge = 0, multiplicity = 1:

       Center              X                  Y                   Z               Mass
    ------------   -----------------  -----------------  -----------------  -----------------
         C            1.768309460710    -0.602193016796     0.000002123855    12.000000000000
         H            1.672786460710    -1.690823016796     0.000278123855     1.007825032230
         H            2.334216460710    -0.292069016796     0.881103123855     1.007825032230
         H            2.333840460710    -0.292507016796    -0.881499876145     1.007825032230
         C            0.438967460710     0.125559983204     0.000132123855    12.000000000000
         O            0.376161460710     1.356743983204    -0.000021876145    15.994914619570
         N           -0.666622539290    -0.678072016796    -0.000112876145    14.003074004430
         H           -0.541825539290    -1.680216016796     0.000316123855     1.007825032230
         C           -1.826364539290    -0.212034416796     0.000005223855    12.000000000000
         H           -1.916604539290     0.947802983204    -0.001687876145     1.007825032230
         H           -2.563324539290    -0.453147016796    -0.890386876145     1.007825032230
         H           -2.562215539290    -0.450337016796     0.892132123855     1.007825032230

  Basis Set: AUG-CC-PVTZ
    Blend: AUG-CC-PVTZ
  Basis Set: (AUG-CC-PVTZ AUX)
    Blend: AUG-CC-PVTZ-JKFIT
	 Reference Energy          =    -247.0496074720142019 [Eh]
	 Singles Energy            =      -0.0000000000000000 [Eh]
	 Same-Spin Energy          =      -0.2493301694167896 [Eh]
	 Opposite-Spin Energy      =      -0.8132436863099830 [Eh]
	 Correlation Energy        =      -1.0625738557267725 [Eh]
	 Total Energy              =    -248.1121813277409842 [Eh]

	 ================> DF-SCS-MP2 Energies <==================
	-----------------------------------------------------------
	 SCS Same-Spin Scale       =       0.3333333333333333 [-]
	 SCS Opposite-Spin Scale   =       1.2000000000000000 [-]
	 SCS Same-Spin Energy      =      -0.0831100564722632 [Eh]
	 SCS Opposite-Spin Energy  =      -0.9758924235719796 [Eh]
	 SCS Correlation Energy    =      -1.0590024800442428 [Eh]
	 SCS Total Energy          =    -248.1086099520584582 [Eh]
	-----------------------------------------------------------

  Dipole Moment: [D]
     X:    -0.1214      Y:    -3.7130      Z:     0.0001     Total:     3.7150

*** Psi4 exiting successfully. Buy a developer a beer!
