                               Psi4 1.3.2 release

  ==> Input File <==

--------------------------------------------------------------------------
#psi4
#
memory 32 gb

molecule  {
0 1
  C        1.8361024    -0.5181463    -0.0000145
  H        1.7159910    -1.6536130     0.0002720
  H        2.3774210    -0.2548590     0.8810970
  H        2.3770450    -0.2552970    -0.8815060
  C        0.4821720     0.1627700     0.0001260
  O        0.4193660     1.3939540    -0.0000280
  N       -0.6234180    -0.6408620    -0.0001190
  H       -0.4986210    -1.6430060     0.0003100
  C       -1.9687370    -0.1002510     0.0000180
  H       -1.8734000     0.9850130    -0.0016940
  H       -2.5201200    -0.4159370    -0.8903930
  H       -2.5190110    -0.4131270     0.8921260
units angstrom
no_reorient  #important for SAPT in psi4, default
symmetry c1  #important for SAPT in psi4, default
}

set PROPERTIES_ORIGIN ["COM"]
properties('MP2/aug-cc-pvtz', properties = ['dipole'])
--------------------------------------------------------------------------

    Molecular point group: c1
  Charge       = 0
  Multiplicity = 1
  Basis Set: AUG-CC-PVTZ
    Blend: AUG-CC-PVTZ
  Basis Set: (AUG-CC-PVTZ AUX)
    Blend: AUG-CC-PVTZ-JKFIT

    Orbital Energies [Eh]
    ---------------------

    Doubly Occupied:

       1A    -20.510580     2A    -15.590003     3A    -11.350384
       4A    -11.258776     5A    -11.238136     6A     -1.368442
       7A     -1.227620     8A     -1.015525     9A     -0.931720
      10A     -0.788566    11A     -0.689259    12A     -0.647493
      13A     -0.634479    14A     -0.594434    15A     -0.572992
      16A     -0.548681    17A     -0.542474    18A     -0.506548
      19A     -0.418624    20A     -0.391217

  @DF-RHF Final Energy:  -247.09846781248754

   => Energetics <=

    Nuclear Repulsion Energy =            179.6723336705410645
    One-Electron Energy =                -691.8896970895691538
    Two-Electron Energy =                 265.1188956065404909
    Total Energy =                       -247.0984678124875700
  Basis Set: (AUG-CC-PVTZ AUX)
    Blend: AUG-CC-PVTZ-RI
    Molecular point group: c1

    Geometry (in Angstrom), charge = 0, multiplicity = 1:

       Center              X                  Y                   Z               Mass
    ------------   -----------------  -----------------  -----------------  -----------------
         C            1.819342626085    -0.575299726508    -0.000009755970    12.000000000000
         H            1.699231226085    -1.710766426508     0.000276744030     1.007825032230
         H            2.360661226085    -0.312012426508     0.881101744030     1.007825032230
         H            2.360285226085    -0.312450426508    -0.881501255970     1.007825032230
         C            0.465412226085     0.105616573492     0.000130744030    12.000000000000
         O            0.402606226085     1.336800573492    -0.000023255970    15.994914619570
         N           -0.640177773915    -0.698015426508    -0.000114255970    14.003074004430
         H           -0.515380773915    -1.700159426508     0.000314744030     1.007825032230
         C           -1.985496773915    -0.157404426508     0.000022744030    12.000000000000
         H           -1.890159773915     0.927859573492    -0.001689255970     1.007825032230
         H           -2.536879773915    -0.473090426508    -0.890388255970     1.007825032230
         H           -2.535770773915    -0.470280426508     0.892130744030     1.007825032230

  Basis Set: AUG-CC-PVTZ
    Blend: AUG-CC-PVTZ
  Basis Set: (AUG-CC-PVTZ AUX)
    Blend: AUG-CC-PVTZ-JKFIT
	 Reference Energy          =    -247.0984678124875416 [Eh]
	 Singles Energy            =      -0.0000000000000000 [Eh]
	 Same-Spin Energy          =      -0.2464862977689894 [Eh]
	 Opposite-Spin Energy      =      -0.8106713959418781 [Eh]
	 Correlation Energy        =      -1.0571576937108675 [Eh]
	 Total Energy              =    -248.1556255061984189 [Eh]

	 ================> DF-SCS-MP2 Energies <==================
	-----------------------------------------------------------
	 SCS Same-Spin Scale       =       0.3333333333333333 [-]
	 SCS Opposite-Spin Scale   =       1.2000000000000000 [-]
	 SCS Same-Spin Energy      =      -0.0821620992563298 [Eh]
	 SCS Opposite-Spin Energy  =      -0.9728056751302536 [Eh]
	 SCS Correlation Energy    =      -1.0549677743865833 [Eh]
	 SCS Total Energy          =    -248.1534355868741386 [Eh]
	-----------------------------------------------------------

  Dipole Moment: [D]
     X:    -0.8346      Y:    -3.6803      Z:     0.0006     Total:     3.7738

*** Psi4 exiting successfully. Buy a developer a beer!
