                               Psi4 1.3.2 release

  ==> Input File <==

--------------------------------------------------------------------------
#psi4
#
memory 32 gb

molecule  {
0 1
  C        1.8115140    -0.5649830    -0.0000040
  H        1.7159910    -1.6536130     0.0002720
  H        2.3774210    -0.2548590     0.8810970
  H        2.3770450    -0.2552970    -0.8815060
  C        0.4679783     0.1819428     0.0001313
  O        0.4193660     1.3939540    -0.0000280
  N       -0.6234180    -0.6408620    -0.0001190
  H       -0.4986210    -1.6430060     0.0003100
  C       -1.9687370    -0.1002510     0.0000180
  H       -1.8734000     0.9850130    -0.0016940
  H       -2.5201200    -0.4159370    -0.8903930
  H       -2.5190110    -0.4131270     0.8921260
units angstrom
no_reorient  #important for SAPT in psi4, default
symmetry c1  #important for SAPT in psi4, default
}

set PROPERTIES_ORIGIN ["COM"]
properties('MP2/aug-cc-pvtz', properties = ['dipole'])
--------------------------------------------------------------------------

    Molecular point group: c1
  Charge       = 0
  Multiplicity = 1
  Basis Set: AUG-CC-PVTZ
    Blend: AUG-CC-PVTZ
  Basis Set: (AUG-CC-PVTZ AUX)
    Blend: AUG-CC-PVTZ-JKFIT

    Orbital Energies [Eh]
    ---------------------

    Doubly Occupied:

       1A    -20.514637     2A    -15.587475     3A    -11.349603
       4A    -11.257491     5A    -11.236180     6A     -1.380832
       7A     -1.229427     8A     -1.010429     9A     -0.928131
      10A     -0.789709    11A     -0.688075    12A     -0.650671
      13A     -0.631048    14A     -0.584336    15A     -0.582993
      16A     -0.551136    17A     -0.543601    18A     -0.507584
      19A     -0.420077    20A     -0.393156

  @DF-RHF Final Energy:  -247.10191676712438

   => Energetics <=

    Nuclear Repulsion Energy =            179.8749104198089412
    One-Electron Energy =                -692.2804745604836398
    Two-Electron Energy =                 265.3036473735502341
    Total Energy =                       -247.1019167671244077
  Basis Set: (AUG-CC-PVTZ AUX)
    Blend: AUG-CC-PVTZ-RI
    Molecular point group: c1

    Geometry (in Angstrom), charge = 0, multiplicity = 1:

       Center              X                  Y                   Z               Mass
    ------------   -----------------  -----------------  -----------------  -----------------
         C            1.801124761237    -0.617592220615    -0.000001851354    12.000000000000
         H            1.705601761237    -1.706222220615     0.000274148646     1.007825032230
         H            2.367031761237    -0.307468220615     0.881099148646     1.007825032230
         H            2.366655761237    -0.307906220615    -0.881503851354     1.007825032230
         C            0.457589061237     0.129333579385     0.000133448646    12.000000000000
         O            0.408976761237     1.341344779385    -0.000025851354    15.994914619570
         N           -0.633807238763    -0.693471220615    -0.000116851354    14.003074004430
         H           -0.509010238763    -1.695615220615     0.000312148646     1.007825032230
         C           -1.979126238763    -0.152860220615     0.000020148646    12.000000000000
         H           -1.883789238763     0.932403779385    -0.001691851354     1.007825032230
         H           -2.530509238763    -0.468546220615    -0.890390851354     1.007825032230
         H           -2.529400238763    -0.465736220615     0.892128148646     1.007825032230

  Basis Set: AUG-CC-PVTZ
    Blend: AUG-CC-PVTZ
  Basis Set: (AUG-CC-PVTZ AUX)
    Blend: AUG-CC-PVTZ-JKFIT
	 Reference Energy          =    -247.1019167671243792 [Eh]
	 Singles Energy            =      -0.0000000000000000 [Eh]
	 Same-Spin Energy          =      -0.2461427681421756 [Eh]
	 Opposite-Spin Energy      =      -0.8097676843741992 [Eh]
	 Correlation Energy        =      -1.0559104525163747 [Eh]
	 Total Energy              =    -248.1578272196407511 [Eh]

	 ================> DF-SCS-MP2 Energies <==================
	-----------------------------------------------------------
	 SCS Same-Spin Scale       =       0.3333333333333333 [-]
	 SCS Opposite-Spin Scale   =       1.2000000000000000 [-]
	 SCS Same-Spin Energy      =      -0.0820475893807252 [Eh]
	 SCS Opposite-Spin Energy  =      -0.9717212212490390 [Eh]
	 SCS Correlation Energy    =      -1.0537688106297642 [Eh]
	 SCS Total Energy          =    -248.1556855777541557 [Eh]
	-----------------------------------------------------------

  Dipole Moment: [D]
     X:    -0.8637      Y:    -3.5934      Z:     0.0006     Total:     3.6957

*** Psi4 exiting successfully. Buy a developer a beer!
