                               Psi4 1.3.2 release

  ==> Input File <==

--------------------------------------------------------------------------
#psi4
#
memory 32 gb

molecule  {
0 1
  C        1.8115140    -0.5649830    -0.0000040
  H        1.7159910    -1.6536130     0.0002720
  H        2.3774210    -0.2548590     0.8810970
  H        2.3770450    -0.2552970    -0.8815060
  C        0.4821720     0.1627700     0.0001260
  O        0.4193660     1.3939540    -0.0000280
  N       -0.6234180    -0.6408620    -0.0001190
  H       -0.4862635    -1.7422395     0.0003525
  C       -1.9687370    -0.1002510     0.0000180
  H       -1.8734000     0.9850130    -0.0016940
  H       -2.5201200    -0.4159370    -0.8903930
  H       -2.5190110    -0.4131270     0.8921260
units angstrom
no_reorient  #important for SAPT in psi4, default
symmetry c1  #important for SAPT in psi4, default
}

set PROPERTIES_ORIGIN ["COM"]
properties('MP2/aug-cc-pvtz', properties = ['dipole'])
--------------------------------------------------------------------------

    Molecular point group: c1
  Charge       = 0
  Multiplicity = 1
  Basis Set: AUG-CC-PVTZ
    Blend: AUG-CC-PVTZ
  Basis Set: (AUG-CC-PVTZ AUX)
    Blend: AUG-CC-PVTZ-JKFIT

    Orbital Energies [Eh]
    ---------------------

    Doubly Occupied:

       1A    -20.511133     2A    -15.597706     3A    -11.350643
       4A    -11.258163     5A    -11.237280     6A     -1.367430
       7A     -1.217504     8A     -1.015771     9A     -0.927356
      10A     -0.768036    11A     -0.684138    12A     -0.648735
      13A     -0.630189    14A     -0.585520    15A     -0.577336
      16A     -0.549647    17A     -0.539415    18A     -0.501998
      19A     -0.419772    20A     -0.389749

  @DF-RHF Final Energy:  -247.09040863220847

   => Energetics <=

    Nuclear Repulsion Energy =            179.1932082231222978
    One-Electron Energy =                -691.0121928073584741
    Two-Electron Energy =                 264.7285759520277679
    Total Energy =                       -247.0904086322084368
  Basis Set: (AUG-CC-PVTZ AUX)
    Blend: AUG-CC-PVTZ-RI
    Molecular point group: c1

    Geometry (in Angstrom), charge = 0, multiplicity = 1:

       Center              X                  Y                   Z               Mass
    ------------   -----------------  -----------------  -----------------  -----------------
         C            1.798622753260    -0.613073793276    -0.000001567074    12.000000000000
         H            1.703099753260    -1.701703793276     0.000274432926     1.007825032230
         H            2.364529753260    -0.302949793276     0.881099432926     1.007825032230
         H            2.364153753260    -0.303387793276    -0.881503567074     1.007825032230
         C            0.469280753260     0.114679206724     0.000128432926    12.000000000000
         O            0.406474753260     1.345863206724    -0.000025567074    15.994914619570
         N           -0.636309246740    -0.688952793276    -0.000116567074    14.003074004430
         H           -0.499154746740    -1.790330293276     0.000354932926     1.007825032230
         C           -1.981628246740    -0.148341793276     0.000020432926    12.000000000000
         H           -1.886291246740     0.936922206724    -0.001691567074     1.007825032230
         H           -2.533011246740    -0.464027793276    -0.890390567074     1.007825032230
         H           -2.531902246740    -0.461217793276     0.892128432926     1.007825032230

  Basis Set: AUG-CC-PVTZ
    Blend: AUG-CC-PVTZ
  Basis Set: (AUG-CC-PVTZ AUX)
    Blend: AUG-CC-PVTZ-JKFIT
	 Reference Energy          =    -247.0904086322084652 [Eh]
	 Singles Energy            =      -0.0000000000000000 [Eh]
	 Same-Spin Energy          =      -0.2473413254048335 [Eh]
	 Opposite-Spin Energy      =      -0.8125876009543258 [Eh]
	 Correlation Energy        =      -1.0599289263591594 [Eh]
	 Total Energy              =    -248.1503375585676281 [Eh]

	 ================> DF-SCS-MP2 Energies <==================
	-----------------------------------------------------------
	 SCS Same-Spin Scale       =       0.3333333333333333 [-]
	 SCS Opposite-Spin Scale   =       1.2000000000000000 [-]
	 SCS Same-Spin Energy      =      -0.0824471084682778 [Eh]
	 SCS Opposite-Spin Energy  =      -0.9751051211451909 [Eh]
	 SCS Correlation Energy    =      -1.0575522296134687 [Eh]
	 SCS Total Energy          =    -248.1479608618219288 [Eh]
	-----------------------------------------------------------

  Dipole Moment: [D]
     X:    -0.8340      Y:    -3.7864      Z:     0.0007     Total:     3.8772

*** Psi4 exiting successfully. Buy a developer a beer!
