                               Psi4 1.3.2 release

  ==> Input File <==

--------------------------------------------------------------------------
#psi4
#
memory 32 gb

molecule  {
0 1
  C        1.8115140    -0.5649830    -0.0000040
  H        1.7159910    -1.6536130     0.0002720
  H        2.3774210    -0.2548590     0.8810970
  H        2.3770450    -0.2552970    -0.8815060
  C        0.4821720     0.1627700     0.0001260
  O        0.5054020     1.3953360    -0.0000022
  N       -0.6234180    -0.6408620    -0.0001190
  H       -0.4986210    -1.6430060     0.0003100
  C       -1.9687370    -0.1002510     0.0000180
  H       -1.8734000     0.9850130    -0.0016940
  H       -2.5201200    -0.4159370    -0.8903930
  H       -2.5190110    -0.4131270     0.8921260
units angstrom
no_reorient  #important for SAPT in psi4, default
symmetry c1  #important for SAPT in psi4, default
}

set PROPERTIES_ORIGIN ["COM"]
properties('MP2/aug-cc-pvtz', properties = ['dipole'])
--------------------------------------------------------------------------

    Molecular point group: c1
  Charge       = 0
  Multiplicity = 1
  Basis Set: AUG-CC-PVTZ
    Blend: AUG-CC-PVTZ
  Basis Set: (AUG-CC-PVTZ AUX)
    Blend: AUG-CC-PVTZ-JKFIT

    Orbital Energies [Eh]
    ---------------------

    Doubly Occupied:

       1A    -20.512516     2A    -15.593217     3A    -11.351001
       4A    -11.261518     5A    -11.233331     6A     -1.367537
       7A     -1.232894     8A     -1.013478     9A     -0.931561
      10A     -0.791782    11A     -0.688362    12A     -0.650638
      13A     -0.632131    14A     -0.585904    15A     -0.577536
      16A     -0.552342    17A     -0.546815    18A     -0.501145
      19A     -0.418194    20A     -0.394651

  @DF-RHF Final Energy:  -247.09972680497097

   => Energetics <=

    Nuclear Repulsion Energy =            179.4202450542630061
    One-Electron Energy =                -691.3668375069171361
    Two-Electron Energy =                 264.8468656476832166
    Total Energy =                       -247.0997268049709419
  Basis Set: (AUG-CC-PVTZ AUX)
    Blend: AUG-CC-PVTZ-RI
    Molecular point group: c1

    Geometry (in Angstrom), charge = 0, multiplicity = 1:

       Center              X                  Y                   Z               Mass
    ------------   -----------------  -----------------  -----------------  -----------------
         C            1.779955639184    -0.614745392965    -0.000006629665    12.000000000000
         H            1.684432639184    -1.703375392965     0.000269370335     1.007825032230
         H            2.345862639184    -0.304621392965     0.881094370335     1.007825032230
         H            2.345486639184    -0.305059392965    -0.881508629665     1.007825032230
         C            0.450613639184     0.113007607035     0.000123370335    12.000000000000
         O            0.473843639184     1.345573607035    -0.000004829665    15.994914619570
         N           -0.654976360816    -0.690624392965    -0.000121629665    14.003074004430
         H           -0.530179360816    -1.692768392965     0.000307370335     1.007825032230
         C           -2.000295360816    -0.150013392965     0.000015370335    12.000000000000
         H           -1.904958360816     0.935250607035    -0.001696629665     1.007825032230
         H           -2.551678360816    -0.465699392965    -0.890395629665     1.007825032230
         H           -2.550569360816    -0.462889392965     0.892123370335     1.007825032230

  Basis Set: AUG-CC-PVTZ
    Blend: AUG-CC-PVTZ
  Basis Set: (AUG-CC-PVTZ AUX)
    Blend: AUG-CC-PVTZ-JKFIT
	 Reference Energy          =    -247.0997268049709703 [Eh]
	 Singles Energy            =      -0.0000000000000000 [Eh]
	 Same-Spin Energy          =      -0.2464931280963767 [Eh]
	 Opposite-Spin Energy      =      -0.8106854966128947 [Eh]
	 Correlation Energy        =      -1.0571786247092714 [Eh]
	 Total Energy              =    -248.1569054296802506 [Eh]

	 ================> DF-SCS-MP2 Energies <==================
	-----------------------------------------------------------
	 SCS Same-Spin Scale       =       0.3333333333333333 [-]
	 SCS Opposite-Spin Scale   =       1.2000000000000000 [-]
	 SCS Same-Spin Energy      =      -0.0821643760321255 [Eh]
	 SCS Opposite-Spin Energy  =      -0.9728225959354736 [Eh]
	 SCS Correlation Energy    =      -1.0549869719675991 [Eh]
	 SCS Total Energy          =    -248.1547137769385643 [Eh]
	-----------------------------------------------------------

  Dipole Moment: [D]
     X:    -1.0964      Y:    -3.7017      Z:     0.0006     Total:     3.8607

*** Psi4 exiting successfully. Buy a developer a beer!
