                               Psi4 1.4a3.dev225

  ==> Input File <==

--------------------------------------------------------------------------
#psi4
#
memory 32 gb

molecule  {
0 1
  C       -1.8103920    -0.5656140     0.0110420
  H       -1.7413530    -1.5922730    -0.3577540
  H       -2.5229550    -0.0084440    -0.5981450
  H       -2.1872940    -0.5855800     1.0374810
  C       -0.5273489     0.1424525    -0.0158970
  O       -0.4165860     1.3974030    -0.0026360
  N        0.6205880    -0.6399120    -0.0249480
  H        0.4923720    -1.6417740    -0.0116730
  C        1.9669970    -0.1034640     0.0152310
  H        1.8798420     0.9786710    -0.0752970
  H        2.4655150    -0.3449990     0.9590800
  H        2.5643020    -0.4906150    -0.8147010
units angstrom
no_reorient  #important for SAPT in psi4, default
symmetry c1  #important for SAPT in psi4, default
}

set PROPERTIES_ORIGIN ["COM"]
properties('MP2/aug-cc-pvtz', properties = ['dipole'])
--------------------------------------------------------------------------

    Molecular point group: c1
  Charge       = 0
  Multiplicity = 1
  Basis Set: AUG-CC-PVTZ
    Blend: AUG-CC-PVTZ
  Basis Set: (AUG-CC-PVTZ AUX)
    Blend: AUG-CC-PVTZ-JKFIT

    Orbital Energies [Eh]
    ---------------------

    Doubly Occupied:

       1A    -20.510810     2A    -15.587186     3A    -11.354676
       4A    -11.257114     5A    -11.240979     6A     -1.353090
       7A     -1.217562     8A     -1.031233     9A     -0.929762
      10A     -0.780992    11A     -0.690621    12A     -0.649655
      13A     -0.630638    14A     -0.589952    15A     -0.576592
      16A     -0.558873    17A     -0.537821    18A     -0.494327
      19A     -0.422759    20A     -0.385968

  @DF-RHF Final Energy:  -247.09476250952076

   => Energetics <=

    Nuclear Repulsion Energy =            179.3513384714076153
    One-Electron Energy =                -691.2909861053065015
    Two-Electron Energy =                 264.8448851243780950
    Total Energy =                       -247.0947625095207627
  Basis Set: (AUG-CC-PVTZ AUX)
    Blend: AUG-CC-PVTZ-RI
    Molecular point group: c1

    Geometry (in Angstrom), charge = 0, multiplicity = 1:

       Center              X                  Y                   Z               Mass
    ------------   -----------------  -----------------  -----------------  -----------------
         C           -1.790349247382    -0.611570525826     0.012779383631    12.000000000000
         H           -1.721310247382    -1.638229525826    -0.356016616369     1.007825032230
         H           -2.502912247382    -0.054400525826    -0.596407616369     1.007825032230
         H           -2.167251247382    -0.631536525826     1.039218383631     1.007825032230
         C           -0.507306147382     0.096495974174    -0.014159616369    12.000000000000
         O           -0.396543247382     1.351446474174    -0.000898616369    15.994914619570
         N            0.640630752618    -0.685868525826    -0.023210616369    14.003074004430
         H            0.512414752618    -1.687730525826    -0.009935616369     1.007825032230
         C            1.987039752618    -0.149420525826     0.016968383631    12.000000000000
         H            1.899884752618     0.932714474174    -0.073559616369     1.007825032230
         H            2.485557752618    -0.390955525826     0.960817383631     1.007825032230
         H            2.584344752618    -0.536571525826    -0.812963616369     1.007825032230

  Basis Set: AUG-CC-PVTZ
    Blend: AUG-CC-PVTZ
  Basis Set: (AUG-CC-PVTZ AUX)
    Blend: AUG-CC-PVTZ-JKFIT
	 Reference Energy          =    -247.0947625095207627 [Eh]
	 Singles Energy            =      -0.0000000000000000 [Eh]
	 Same-Spin Energy          =      -0.2475329957494606 [Eh]
	 Opposite-Spin Energy      =      -0.8124115853066094 [Eh]
	 Correlation Energy        =      -1.0599445810560701 [Eh]
	 Total Energy              =    -248.1547070905768351 [Eh]

	 ================> DF-SCS-MP2 Energies <==================
	-----------------------------------------------------------
	 SCS Same-Spin Scale       =       0.3333333333333333 [-]
	 SCS Opposite-Spin Scale   =       1.2000000000000000 [-]
	 SCS Same-Spin Energy      =      -0.0825109985831535 [Eh]
	 SCS Opposite-Spin Energy  =      -0.9748939023679313 [Eh]
	 SCS Correlation Energy    =      -1.0574049009510849 [Eh]
	 SCS Total Energy          =    -248.1521674104718613 [Eh]
	-----------------------------------------------------------

  Dipole Moment: [D]
     X:     0.5693      Y:    -3.8210      Z:     0.0731     Total:     3.8638

*** Psi4 exiting successfully. Buy a developer a beer!
