                               Psi4 1.3.2 release

  ==> Input File <==

--------------------------------------------------------------------------
#psi4
#
memory 32 gb

molecule  {
0 1
  C        1.8115140    -0.5649830    -0.0000040
  H        1.7159910    -1.6536130     0.0002720
  H        2.3774210    -0.2548590     0.8810970
  H        2.3770450    -0.2552970    -0.8815060
  C        0.5698877     0.1147497     0.0001174
  O        0.4193660     1.3939540    -0.0000280
  N       -0.6234180    -0.6408620    -0.0001190
  H       -0.4986210    -1.6430060     0.0003100
  C       -1.9687370    -0.1002510     0.0000180
  H       -1.8734000     0.9850130    -0.0016940
  H       -2.5201200    -0.4159370    -0.8903930
  H       -2.5190110    -0.4131270     0.8921260
units angstrom
no_reorient  #important for SAPT in psi4, default
symmetry c1  #important for SAPT in psi4, default
}

set PROPERTIES_ORIGIN ["COM"]
properties('MP2/aug-cc-pvtz', properties = ['dipole'])
--------------------------------------------------------------------------

    Molecular point group: c1
  Charge       = 0
  Multiplicity = 1
  Basis Set: AUG-CC-PVTZ
    Blend: AUG-CC-PVTZ
  Basis Set: (AUG-CC-PVTZ AUX)
    Blend: AUG-CC-PVTZ-JKFIT

    Orbital Energies [Eh]
    ---------------------

    Doubly Occupied:

       1A    -20.507747     2A    -15.587330     3A    -11.359030
       4A    -11.256309     5A    -11.243517     6A     -1.337640
       7A     -1.208271     8A     -1.047785     9A     -0.929295
      10A     -0.775373    11A     -0.692862    12A     -0.651837
      13A     -0.631867    14A     -0.593029    15A     -0.576801
      16A     -0.562025    17A     -0.531436    18A     -0.484403
      19A     -0.421344    20A     -0.381032

  @DF-RHF Final Energy:  -247.08123924987262

   => Energetics <=

    Nuclear Repulsion Energy =            179.0276384550189164
    One-Electron Energy =                -690.6598851034013933
    Two-Electron Energy =                 264.5510073985098529
    Total Energy =                       -247.0812392498726240
  Basis Set: (AUG-CC-PVTZ AUX)
    Blend: AUG-CC-PVTZ-RI
    Molecular point group: c1

    Geometry (in Angstrom), charge = 0, multiplicity = 1:

       Center              X                  Y                   Z               Mass
    ------------   -----------------  -----------------  -----------------  -----------------
         C            1.784384630740    -0.606554757314     0.000000431927    12.000000000000
         H            1.688861630740    -1.695184757314     0.000276431927     1.007825032230
         H            2.350291630740    -0.296430757314     0.881101431927     1.007825032230
         H            2.349915630740    -0.296868757314    -0.881501568073     1.007825032230
         C            0.542758330740     0.073177942686     0.000121831927    12.000000000000
         O            0.392236630740     1.352382242686    -0.000023568073    15.994914619570
         N           -0.650547369260    -0.682433757314    -0.000114568073    14.003074004430
         H           -0.525750369260    -1.684577757314     0.000314431927     1.007825032230
         C           -1.995866369260    -0.141822757314     0.000022431927    12.000000000000
         H           -1.900529369260     0.943441242686    -0.001689568073     1.007825032230
         H           -2.547249369260    -0.457508757314    -0.890388568073     1.007825032230
         H           -2.546140369260    -0.454698757314     0.892130431927     1.007825032230

  Basis Set: AUG-CC-PVTZ
    Blend: AUG-CC-PVTZ
  Basis Set: (AUG-CC-PVTZ AUX)
    Blend: AUG-CC-PVTZ-JKFIT
	 Reference Energy          =    -247.0812392498726240 [Eh]
	 Singles Energy            =      -0.0000000000000000 [Eh]
	 Same-Spin Energy          =      -0.2488299461575715 [Eh]
	 Opposite-Spin Energy      =      -0.8147000363681629 [Eh]
	 Correlation Energy        =      -1.0635299825257345 [Eh]
	 Total Energy              =    -248.1447692323983460 [Eh]

	 ================> DF-SCS-MP2 Energies <==================
	-----------------------------------------------------------
	 SCS Same-Spin Scale       =       0.3333333333333333 [-]
	 SCS Opposite-Spin Scale   =       1.2000000000000000 [-]
	 SCS Same-Spin Energy      =      -0.0829433153858572 [Eh]
	 SCS Opposite-Spin Energy  =      -0.9776400436417955 [Eh]
	 SCS Correlation Energy    =      -1.0605833590276526 [Eh]
	 SCS Total Energy          =    -248.1418226089002701 [Eh]
	-----------------------------------------------------------

  Dipole Moment: [D]
     X:    -0.3642      Y:    -3.9078      Z:     0.0006     Total:     3.9247

*** Psi4 exiting successfully. Buy a developer a beer!
