                               Psi4 1.4a3.dev225

  ==> Input File <==

--------------------------------------------------------------------------
#psi4
#
memory 32 gb

molecule  {
0 1
  C       -1.8103920    -0.5656140     0.0110420
  H       -1.7413530    -1.5922730    -0.3577540
  H       -2.5229550    -0.0084440    -0.5981450
  H       -2.1872940    -0.5855800     1.0374810
  C       -0.4660724     0.1762688    -0.0171836
  O       -0.4165860     1.3974030    -0.0026360
  N        0.6205880    -0.6399120    -0.0249480
  H        0.4923720    -1.6417740    -0.0116730
  C        1.9669970    -0.1034640     0.0152310
  H        1.8798420     0.9786710    -0.0752970
  H        2.4655150    -0.3449990     0.9590800
  H        2.5643020    -0.4906150    -0.8147010
units angstrom
no_reorient  #important for SAPT in psi4, default
symmetry c1  #important for SAPT in psi4, default
}

set PROPERTIES_ORIGIN ["COM"]
properties('MP2/aug-cc-pvtz', properties = ['dipole'])
--------------------------------------------------------------------------

    Molecular point group: c1
  Charge       = 0
  Multiplicity = 1
  Basis Set: AUG-CC-PVTZ
    Blend: AUG-CC-PVTZ
  Basis Set: (AUG-CC-PVTZ AUX)
    Blend: AUG-CC-PVTZ-JKFIT

    Orbital Energies [Eh]
    ---------------------

    Doubly Occupied:

       1A    -20.513314     2A    -15.588617     3A    -11.349420
       4A    -11.258413     5A    -11.236355     6A     -1.375075
       7A     -1.231240     8A     -1.011442     9A     -0.929499
      10A     -0.790942    11A     -0.688045    12A     -0.650026
      13A     -0.631838    14A     -0.584522    15A     -0.579269
      16A     -0.551856    17A     -0.544123    18A     -0.506495
      19A     -0.419372    20A     -0.393159

  @DF-RHF Final Energy:  -247.10165910391905

   => Energetics <=

    Nuclear Repulsion Energy =            179.8520090738745125
    One-Electron Energy =                -692.2412963392772554
    Two-Electron Energy =                 265.2876281614837808
    Total Energy =                       -247.1016591039190189
  Basis Set: (AUG-CC-PVTZ AUX)
    Blend: AUG-CC-PVTZ-RI
    Molecular point group: c1

    Geometry (in Angstrom), charge = 0, multiplicity = 1:

       Center              X                  Y                   Z               Mass
    ------------   -----------------  -----------------  -----------------  -----------------
         C           -1.800414821376    -0.617125354673     0.012990726765    12.000000000000
         H           -1.731375821376    -1.643784354673    -0.355805273235     1.007825032230
         H           -2.512977821376    -0.059955354673    -0.596196273235     1.007825032230
         H           -2.177316821376    -0.637091354673     1.039429726765     1.007825032230
         C           -0.456095221376     0.124757445327    -0.015234873235    12.000000000000
         O           -0.406608821376     1.345891645327    -0.000687273235    15.994914619570
         N            0.630565178624    -0.691423354673    -0.022999273235    14.003074004430
         H            0.502349178624    -1.693285354673    -0.009724273235     1.007825032230
         C            1.976974178624    -0.154975354673     0.017179726765    12.000000000000
         H            1.889819178624     0.927159645327    -0.073348273235     1.007825032230
         H            2.475492178624    -0.396510354673     0.961028726765     1.007825032230
         H            2.574279178624    -0.542126354673    -0.812752273235     1.007825032230

  Basis Set: AUG-CC-PVTZ
    Blend: AUG-CC-PVTZ
  Basis Set: (AUG-CC-PVTZ AUX)
    Blend: AUG-CC-PVTZ-JKFIT
	 Reference Energy          =    -247.1016591039190473 [Eh]
	 Singles Energy            =      -0.0000000000000000 [Eh]
	 Same-Spin Energy          =      -0.2462416038488930 [Eh]
	 Opposite-Spin Energy      =      -0.8100174803805987 [Eh]
	 Correlation Energy        =      -1.0562590842294917 [Eh]
	 Total Energy              =    -248.1579181881485283 [Eh]

	 ================> DF-SCS-MP2 Energies <==================
	-----------------------------------------------------------
	 SCS Same-Spin Scale       =       0.3333333333333333 [-]
	 SCS Opposite-Spin Scale   =       1.2000000000000000 [-]
	 SCS Same-Spin Energy      =      -0.0820805346162976 [Eh]
	 SCS Opposite-Spin Energy  =      -0.9720209764567185 [Eh]
	 SCS Correlation Energy    =      -1.0541015110730161 [Eh]
	 SCS Total Energy          =    -248.1557606149920616 [Eh]
	-----------------------------------------------------------

  Dipole Moment: [D]
     X:     0.8924      Y:    -3.6753      Z:     0.0638     Total:     3.7827

*** Psi4 exiting successfully. Buy a developer a beer!
