                               Psi4 1.4a3.dev225

  ==> Input File <==

--------------------------------------------------------------------------
#psi4
#
memory 32 gb

molecule  {
0 1
  C       -1.8103920    -0.5656140     0.0110420
  H       -1.7413530    -1.5922730    -0.3577540
  H       -2.5229550    -0.0084440    -0.5981450
  H       -2.1872940    -0.5855800     1.0374810
  C       -0.4835800     0.1666070    -0.0168160
  O       -0.4165860     1.3974030    -0.0026360
  N        0.6609633    -0.6694034    -0.0252454
  H        0.4923720    -1.6417740    -0.0116730
  C        1.9669970    -0.1034640     0.0152310
  H        1.8798420     0.9786710    -0.0752970
  H        2.4655150    -0.3449990     0.9590800
  H        2.5643020    -0.4906150    -0.8147010
units angstrom
no_reorient  #important for SAPT in psi4, default
symmetry c1  #important for SAPT in psi4, default
}

set PROPERTIES_ORIGIN ["COM"]
properties('MP2/aug-cc-pvtz', properties = ['dipole'])
--------------------------------------------------------------------------

    Molecular point group: c1
  Charge       = 0
  Multiplicity = 1
  Basis Set: AUG-CC-PVTZ
    Blend: AUG-CC-PVTZ
  Basis Set: (AUG-CC-PVTZ AUX)
    Blend: AUG-CC-PVTZ-JKFIT

    Orbital Energies [Eh]
    ---------------------

    Doubly Occupied:

       1A    -20.521191     2A    -15.582984     3A    -11.357990
       4A    -11.253349     5A    -11.240875     6A     -1.370382
       7A     -1.224799     8A     -1.017809     9A     -0.925879
      10A     -0.784248    11A     -0.689663    12A     -0.652304
      13A     -0.629141    14A     -0.587807    15A     -0.584682
      16A     -0.561345    17A     -0.536556    18A     -0.501704
      19A     -0.424940    20A     -0.387780

  @DF-RHF Final Energy:  -247.09693954605456

   => Energetics <=

    Nuclear Repulsion Energy =            179.1059139812639955
    One-Electron Energy =                -690.7348489258650943
    Two-Electron Energy =                 264.5319953985465418
    Total Energy =                       -247.0969395460545570
  Basis Set: (AUG-CC-PVTZ AUX)
    Blend: AUG-CC-PVTZ-RI
    Molecular point group: c1

    Geometry (in Angstrom), charge = 0, multiplicity = 1:

       Center              X                  Y                   Z               Mass
    ------------   -----------------  -----------------  -----------------  -----------------
         C           -1.805278252890    -0.609885219888     0.012987349948    12.000000000000
         H           -1.736239252890    -1.636544219888    -0.355808650052     1.007825032230
         H           -2.517841252890    -0.052715219888    -0.596199650052     1.007825032230
         H           -2.182180252890    -0.629851219888     1.039426349948     1.007825032230
         C           -0.478466252890     0.122335780112    -0.014870650052    12.000000000000
         O           -0.411472252890     1.353131780112    -0.000690650052    15.994914619570
         N            0.666077047110    -0.713674619888    -0.023300050052    14.003074004430
         H            0.497485747110    -1.686045219888    -0.009727650052     1.007825032230
         C            1.972110747110    -0.147735219888     0.017176349948    12.000000000000
         H            1.884955747110     0.934399780112    -0.073351650052     1.007825032230
         H            2.470628747110    -0.389270219888     0.961025349948     1.007825032230
         H            2.569415747110    -0.534886219888    -0.812755650052     1.007825032230

  Basis Set: AUG-CC-PVTZ
    Blend: AUG-CC-PVTZ
  Basis Set: (AUG-CC-PVTZ AUX)
    Blend: AUG-CC-PVTZ-JKFIT
	 Reference Energy          =    -247.0969395460545570 [Eh]
	 Singles Energy            =      -0.0000000000000000 [Eh]
	 Same-Spin Energy          =      -0.2467872946106620 [Eh]
	 Opposite-Spin Energy      =      -0.8112266854788311 [Eh]
	 Correlation Energy        =      -1.0580139800894932 [Eh]
	 Total Energy              =    -248.1549535261440553 [Eh]

	 ================> DF-SCS-MP2 Energies <==================
	-----------------------------------------------------------
	 SCS Same-Spin Scale       =       0.3333333333333333 [-]
	 SCS Opposite-Spin Scale   =       1.2000000000000000 [-]
	 SCS Same-Spin Energy      =      -0.0822624315368873 [Eh]
	 SCS Opposite-Spin Energy  =      -0.9734720225745973 [Eh]
	 SCS Correlation Energy    =      -1.0557344541114846 [Eh]
	 SCS Total Energy          =    -248.1526740001660301 [Eh]
	-----------------------------------------------------------

  Dipole Moment: [D]
     X:     0.5395      Y:    -3.5418      Z:     0.0695     Total:     3.5833

*** Psi4 exiting successfully. Buy a developer a beer!
