                               Psi4 1.3.2 release

  ==> Input File <==

--------------------------------------------------------------------------
#psi4
#
memory 32 gb

molecule  {
0 1
  C        1.8115140    -0.5649830    -0.0000040
  H        1.7159910    -1.6536130     0.0002720
  H        2.3774210    -0.2548590     0.8810970
  H        2.3770450    -0.2552970    -0.8815060
  C        0.4821720     0.1627700     0.0001260
  O        0.4193660     1.3939540    -0.0000280
  N       -0.4616406    -0.5232692    -0.0000831
  H       -0.4986210    -1.6430060     0.0003100
  C       -1.9687370    -0.1002510     0.0000180
  H       -1.8734000     0.9850130    -0.0016940
  H       -2.5201200    -0.4159370    -0.8903930
  H       -2.5190110    -0.4131270     0.8921260
units angstrom
no_reorient  #important for SAPT in psi4, default
symmetry c1  #important for SAPT in psi4, default
}

set PROPERTIES_ORIGIN ["COM"]
properties('MP2/aug-cc-pvtz', properties = ['dipole'])
--------------------------------------------------------------------------

    Molecular point group: c1
  Charge       = 0
  Multiplicity = 1
  Basis Set: AUG-CC-PVTZ
    Blend: AUG-CC-PVTZ
  Basis Set: (AUG-CC-PVTZ AUX)
    Blend: AUG-CC-PVTZ-JKFIT

    Orbital Energies [Eh]
    ---------------------

    Doubly Occupied:

       1A    -20.473160     2A    -15.606582     3A    -11.313320
       4A    -11.280529     5A    -11.225694     6A     -1.382019
       7A     -1.243298     8A     -1.013703     9A     -0.949703
      10A     -0.793995    11A     -0.689029    12A     -0.648866
      13A     -0.638401    14A     -0.584579    15A     -0.570903
      16A     -0.555024    17A     -0.519728    18A     -0.501784
      19A     -0.396771    20A     -0.392028

  @DF-RHF Final Energy:  -247.03462839858139

   => Energetics <=

    Nuclear Repulsion Energy =            182.6980544591314981
    One-Electron Energy =                -697.9071337325999593
    Two-Electron Energy =                 268.1744508748870430
    Total Energy =                       -247.0346283985813898
  Basis Set: (AUG-CC-PVTZ AUX)
    Blend: AUG-CC-PVTZ-RI
    Molecular point group: c1

    Geometry (in Angstrom), charge = 0, multiplicity = 1:

       Center              X                  Y                   Z               Mass
    ------------   -----------------  -----------------  -----------------  -----------------
         C            1.767783034297    -0.636983507215    -0.000007862220    12.000000000000
         H            1.672260034297    -1.725613507215     0.000268137780     1.007825032230
         H            2.333690034297    -0.326859507215     0.881093137780     1.007825032230
         H            2.333314034297    -0.327297507215    -0.881509862220     1.007825032230
         C            0.438441034297     0.090769492785     0.000122137780    12.000000000000
         O            0.375635034297     1.321953492785    -0.000031862220    15.994914619570
         N           -0.505371565703    -0.595269707215    -0.000086962220    14.003074004430
         H           -0.542351965703    -1.715006507215     0.000306137780     1.007825032230
         C           -2.012467965703    -0.172251507215     0.000014137780    12.000000000000
         H           -1.917130965703     0.913012492785    -0.001697862220     1.007825032230
         H           -2.563850965703    -0.487937507215    -0.890396862220     1.007825032230
         H           -2.562741965703    -0.485127507215     0.892122137780     1.007825032230

  Basis Set: AUG-CC-PVTZ
    Blend: AUG-CC-PVTZ
  Basis Set: (AUG-CC-PVTZ AUX)
    Blend: AUG-CC-PVTZ-JKFIT
	 Reference Energy          =    -247.0346283985813898 [Eh]
	 Singles Energy            =      -0.0000000000000000 [Eh]
	 Same-Spin Energy          =      -0.2473070874409189 [Eh]
	 Opposite-Spin Energy      =      -0.8116298054036503 [Eh]
	 Correlation Energy        =      -1.0589368928445693 [Eh]
	 Total Energy              =    -248.0935652914259606 [Eh]

	 ================> DF-SCS-MP2 Energies <==================
	-----------------------------------------------------------
	 SCS Same-Spin Scale       =       0.3333333333333333 [-]
	 SCS Opposite-Spin Scale   =       1.2000000000000000 [-]
	 SCS Same-Spin Energy      =      -0.0824356958136396 [Eh]
	 SCS Opposite-Spin Energy  =      -0.9739557664843803 [Eh]
	 SCS Correlation Energy    =      -1.0563914622980199 [Eh]
	 SCS Total Energy          =    -248.0910198608794133 [Eh]
	-----------------------------------------------------------

  Dipole Moment: [D]
     X:    -1.8157      Y:    -4.4641      Z:     0.0006     Total:     4.8193

*** Psi4 exiting successfully. Buy a developer a beer!
