                               Psi4 1.3.2 release

  ==> Input File <==

--------------------------------------------------------------------------
#psi4
#
memory 32 gb

molecule  {
0 1
  C        1.8115140    -0.5649830    -0.0000040
  H        1.7159910    -1.6536130     0.0002720
  H        2.3774210    -0.2548590     0.8810970
  H        2.3770450    -0.2552970    -0.8815060
  C        0.4821720     0.1627700     0.0001260
  O        0.4091767     1.5936943    -0.0000530
  N       -0.6234180    -0.6408620    -0.0001190
  H       -0.4986210    -1.6430060     0.0003100
  C       -1.9687370    -0.1002510     0.0000180
  H       -1.8734000     0.9850130    -0.0016940
  H       -2.5201200    -0.4159370    -0.8903930
  H       -2.5190110    -0.4131270     0.8921260
units angstrom
no_reorient  #important for SAPT in psi4, default
symmetry c1  #important for SAPT in psi4, default
}

set PROPERTIES_ORIGIN ["COM"]
properties('MP2/aug-cc-pvtz', properties = ['dipole'])
--------------------------------------------------------------------------

    Molecular point group: c1
  Charge       = 0
  Multiplicity = 1
  Basis Set: AUG-CC-PVTZ
    Blend: AUG-CC-PVTZ
  Basis Set: (AUG-CC-PVTZ AUX)
    Blend: AUG-CC-PVTZ-JKFIT

    Orbital Energies [Eh]
    ---------------------

    Doubly Occupied:

       1A    -20.505949     2A    -15.618443     3A    -11.380378
       4A    -11.265969     5A    -11.252025     6A     -1.295803
       7A     -1.205796     8A     -1.029882     9A     -0.940377
      10A     -0.807844    11A     -0.691678    12A     -0.643652
      13A     -0.632704    14A     -0.591343    15A     -0.564734
      16A     -0.551430    17A     -0.522381    18A     -0.477854
      19A     -0.407850    20A     -0.383362

  @DF-RHF Final Energy:  -247.04646535910291

   => Energetics <=

    Nuclear Repulsion Energy =            174.5117803732844095
    One-Electron Energy =                -681.5775852229028260
    Two-Electron Energy =                 260.0193394905155060
    Total Energy =                       -247.0464653591029105
  Basis Set: (AUG-CC-PVTZ AUX)
    Blend: AUG-CC-PVTZ-RI
    Molecular point group: c1

    Geometry (in Angstrom), charge = 0, multiplicity = 1:

       Center              X                  Y                   Z               Mass
    ------------   -----------------  -----------------  -----------------  -----------------
         C            1.801024184392    -0.658175975265     0.000004493003    12.000000000000
         H            1.705501184392    -1.746805975265     0.000280493003     1.007825032230
         H            2.366931184392    -0.348051975265     0.881105493003     1.007825032230
         H            2.366555184392    -0.348489975265    -0.881497506997     1.007825032230
         C            0.471682184392     0.069577024735     0.000134493003    12.000000000000
         O            0.398686884392     1.500501324735    -0.000044506997    15.994914619570
         N           -0.633907815608    -0.734054975265    -0.000110506997    14.003074004430
         H           -0.509110815608    -1.736198975265     0.000318493003     1.007825032230
         C           -1.979226815608    -0.193443975265     0.000026493003    12.000000000000
         H           -1.883889815608     0.891820024735    -0.001685506997     1.007825032230
         H           -2.530609815608    -0.509129975265    -0.890384506997     1.007825032230
         H           -2.529500815608    -0.506319975265     0.892134493003     1.007825032230

  Basis Set: AUG-CC-PVTZ
    Blend: AUG-CC-PVTZ
  Basis Set: (AUG-CC-PVTZ AUX)
    Blend: AUG-CC-PVTZ-JKFIT
	 Reference Energy          =    -247.0464653591029105 [Eh]
	 Singles Energy            =      -0.0000000000000000 [Eh]
	 Same-Spin Energy          =      -0.2502345627261918 [Eh]
	 Opposite-Spin Energy      =      -0.8204753111909024 [Eh]
	 Correlation Energy        =      -1.0707098739170942 [Eh]
	 Total Energy              =    -248.1171752330199922 [Eh]

	 ================> DF-SCS-MP2 Energies <==================
	-----------------------------------------------------------
	 SCS Same-Spin Scale       =       0.3333333333333333 [-]
	 SCS Opposite-Spin Scale   =       1.2000000000000000 [-]
	 SCS Same-Spin Energy      =      -0.0834115209087306 [Eh]
	 SCS Opposite-Spin Energy  =      -0.9845703734290829 [Eh]
	 SCS Correlation Energy    =      -1.0679818943378134 [Eh]
	 SCS Total Energy          =    -248.1144472534407157 [Eh]
	-----------------------------------------------------------

  Dipole Moment: [D]
     X:    -1.0285      Y:    -4.8246      Z:     0.0006     Total:     4.9330

*** Psi4 exiting successfully. Buy a developer a beer!
