                               Psi4 1.4a3.dev225

  ==> Input File <==

--------------------------------------------------------------------------
#psi4
#
memory 32 gb

molecule  {
0 1
  C       -1.8103920    -0.5656140     0.0110420
  H       -1.7413530    -1.5922730    -0.3577540
  H       -2.5229550    -0.0084440    -0.5981450
  H       -2.1872940    -0.5855800     1.0374810
  C       -0.4835800     0.1666070    -0.0168160
  O       -0.4165860     1.3974030    -0.0026360
  N        0.6205880    -0.6399120    -0.0249480
  H        0.4949106    -1.6219375    -0.0119358
  C        1.9669970    -0.1034640     0.0152310
  H        1.8798420     0.9786710    -0.0752970
  H        2.4655150    -0.3449990     0.9590800
  H        2.5643020    -0.4906150    -0.8147010
units angstrom
no_reorient  #important for SAPT in psi4, default
symmetry c1  #important for SAPT in psi4, default
}

set PROPERTIES_ORIGIN ["COM"]
properties('MP2/aug-cc-pvtz', properties = ['dipole'])
--------------------------------------------------------------------------

    Molecular point group: c1
  Charge       = 0
  Multiplicity = 1
  Basis Set: AUG-CC-PVTZ
    Blend: AUG-CC-PVTZ
  Basis Set: (AUG-CC-PVTZ AUX)
    Blend: AUG-CC-PVTZ-JKFIT

    Orbital Energies [Eh]
    ---------------------

    Doubly Occupied:

       1A    -20.512626     2A    -15.586242     3A    -11.350841
       4A    -11.258031     5A    -11.237966     6A     -1.368962
       7A     -1.229752     8A     -1.016776     9A     -0.930518
      10A     -0.792489    11A     -0.689492    12A     -0.649834
      13A     -0.631303    14A     -0.586253    15A     -0.578618
      16A     -0.554619    17A     -0.543287    18A     -0.503263
      19A     -0.421060    20A     -0.391423

  @DF-RHF Final Energy:  -247.10149836932334

   => Energetics <=

    Nuclear Repulsion Energy =            179.8166766453828131
    One-Electron Energy =                -692.1696413278220916
    Two-Electron Energy =                 265.2514663131159409
    Total Energy =                       -247.1014983693233376
  Basis Set: (AUG-CC-PVTZ AUX)
    Blend: AUG-CC-PVTZ-RI
    Molecular point group: c1

    Geometry (in Angstrom), charge = 0, multiplicity = 1:

       Center              X                  Y                   Z               Mass
    ------------   -----------------  -----------------  -----------------  -----------------
         C           -1.797573960546    -0.615811922111     0.012933968562    12.000000000000
         H           -1.728534960546    -1.642470922111    -0.355862031438     1.007825032230
         H           -2.510136960546    -0.058641922111    -0.596253031438     1.007825032230
         H           -2.174475960546    -0.635777922111     1.039372968562     1.007825032230
         C           -0.470761960546     0.116409077889    -0.014924031438    12.000000000000
         O           -0.403767960546     1.347205077889    -0.000744031438    15.994914619570
         N            0.633406039454    -0.690109922111    -0.023056031438    14.003074004430
         H            0.507728639454    -1.672135422111    -0.010043831438     1.007825032230
         C            1.979815039454    -0.153661922111     0.017122968562    12.000000000000
         H            1.892660039454     0.928473077889    -0.073405031438     1.007825032230
         H            2.478333039454    -0.395196922111     0.960971968562     1.007825032230
         H            2.577120039454    -0.540812922111    -0.812809031438     1.007825032230

  Basis Set: AUG-CC-PVTZ
    Blend: AUG-CC-PVTZ
  Basis Set: (AUG-CC-PVTZ AUX)
    Blend: AUG-CC-PVTZ-JKFIT
	 Reference Energy          =    -247.1014983693233376 [Eh]
	 Singles Energy            =      -0.0000000000000000 [Eh]
	 Same-Spin Energy          =      -0.2464138495528693 [Eh]
	 Opposite-Spin Energy      =      -0.8102519680835396 [Eh]
	 Correlation Energy        =      -1.0566658176364090 [Eh]
	 Total Energy              =    -248.1581641869597377 [Eh]

	 ================> DF-SCS-MP2 Energies <==================
	-----------------------------------------------------------
	 SCS Same-Spin Scale       =       0.3333333333333333 [-]
	 SCS Opposite-Spin Scale   =       1.2000000000000000 [-]
	 SCS Same-Spin Energy      =      -0.0821379498509564 [Eh]
	 SCS Opposite-Spin Energy  =      -0.9723023617002475 [Eh]
	 SCS Correlation Energy    =      -1.0544403115512040 [Eh]
	 SCS Total Energy          =    -248.1559386808745558 [Eh]
	-----------------------------------------------------------

  Dipole Moment: [D]
     X:     0.7944      Y:    -3.7044      Z:     0.0660     Total:     3.7892

*** Psi4 exiting successfully. Buy a developer a beer!
