                               Psi4 1.3.2 release

  ==> Input File <==

--------------------------------------------------------------------------
#psi4
#
memory 32 gb

molecule  {
0 1
  C        1.8115140    -0.5649830    -0.0000040
  H        1.7159910    -1.6536130     0.0002720
  H        2.3774210    -0.2548590     0.8810970
  H        2.3770450    -0.2552970    -0.8815060
  C        0.3921130     0.2739332     0.0001567
  O        0.4193660     1.3939540    -0.0000280
  N       -0.6234180    -0.6408620    -0.0001190
  H       -0.4986210    -1.6430060     0.0003100
  C       -1.9687370    -0.1002510     0.0000180
  H       -1.8734000     0.9850130    -0.0016940
  H       -2.5201200    -0.4159370    -0.8903930
  H       -2.5190110    -0.4131270     0.8921260
units angstrom
no_reorient  #important for SAPT in psi4, default
symmetry c1  #important for SAPT in psi4, default
}

set PROPERTIES_ORIGIN ["COM"]
properties('MP2/aug-cc-pvtz', properties = ['dipole'])
--------------------------------------------------------------------------

    Molecular point group: c1
  Charge       = 0
  Multiplicity = 1
  Basis Set: AUG-CC-PVTZ
    Blend: AUG-CC-PVTZ
  Basis Set: (AUG-CC-PVTZ AUX)
    Blend: AUG-CC-PVTZ-JKFIT

    Orbital Energies [Eh]
    ---------------------

    Doubly Occupied:

       1A    -20.531509     2A    -15.582422     3A    -11.345732
       4A    -11.255725     5A    -11.223229     6A     -1.451026
       7A     -1.235953     8A     -0.983596     9A     -0.917320
      10A     -0.797831    11A     -0.694593    12A     -0.657804
      13A     -0.638783    14A     -0.602945    15A     -0.580995
      16A     -0.549772    17A     -0.537555    18A     -0.528642
      19A     -0.402210    20A     -0.401052

  @DF-RHF Final Energy:  -247.07774038998332

   => Energetics <=

    Nuclear Repulsion Energy =            180.8352609739527281
    One-Electron Energy =                -693.9886102054554158
    Two-Electron Energy =                 266.0756088415193972
    Total Energy =                       -247.0777403899833189
  Basis Set: (AUG-CC-PVTZ AUX)
    Blend: AUG-CC-PVTZ-RI
    Molecular point group: c1

    Geometry (in Angstrom), charge = 0, multiplicity = 1:

       Center              X                  Y                   Z               Mass
    ------------   -----------------  -----------------  -----------------  -----------------
         C            1.813586762016    -0.632703008240    -0.000006023681    12.000000000000
         H            1.718063762016    -1.721333008240     0.000269976319     1.007825032230
         H            2.379493762016    -0.322579008240     0.881094976319     1.007825032230
         H            2.379117762016    -0.323017008240    -0.881508023681     1.007825032230
         C            0.394185762016     0.206213191760     0.000154676319    12.000000000000
         O            0.421438762016     1.326233991760    -0.000030023681    15.994914619570
         N           -0.621345237984    -0.708582008240    -0.000121023681    14.003074004430
         H           -0.496548237984    -1.710726008240     0.000307976319     1.007825032230
         C           -1.966664237984    -0.167971008240     0.000015976319    12.000000000000
         H           -1.871327237984     0.917292991760    -0.001696023681     1.007825032230
         H           -2.518047237984    -0.483657008240    -0.890395023681     1.007825032230
         H           -2.516938237984    -0.480847008240     0.892123976319     1.007825032230

  Basis Set: AUG-CC-PVTZ
    Blend: AUG-CC-PVTZ
  Basis Set: (AUG-CC-PVTZ AUX)
    Blend: AUG-CC-PVTZ-JKFIT
	 Reference Energy          =    -247.0777403899833189 [Eh]
	 Singles Energy            =      -0.0000000000000000 [Eh]
	 Same-Spin Energy          =      -0.2445825200793343 [Eh]
	 Opposite-Spin Energy      =      -0.8068884669850689 [Eh]
	 Correlation Energy        =      -1.0514709870644032 [Eh]
	 Total Energy              =    -248.1292113770477101 [Eh]

	 ================> DF-SCS-MP2 Energies <==================
	-----------------------------------------------------------
	 SCS Same-Spin Scale       =       0.3333333333333333 [-]
	 SCS Opposite-Spin Scale   =       1.2000000000000000 [-]
	 SCS Same-Spin Energy      =      -0.0815275066931114 [Eh]
	 SCS Opposite-Spin Energy  =      -0.9682661603820826 [Eh]
	 SCS Correlation Energy    =      -1.0497936670751939 [Eh]
	 SCS Total Energy          =    -248.1275340570585115 [Eh]
	-----------------------------------------------------------

  Dipole Moment: [D]
     X:    -1.2221      Y:    -2.9299      Z:     0.0007     Total:     3.1746

*** Psi4 exiting successfully. Buy a developer a beer!
