                               Psi4 1.4a3.dev225

  ==> Input File <==

--------------------------------------------------------------------------
#psi4
#
memory 32 gb

molecule  {
0 1
  C       -1.8103920    -0.5656140     0.0110420
  H       -1.7413530    -1.5922730    -0.3577540
  H       -2.5229550    -0.0084440    -0.5981450
  H       -2.1872940    -0.5855800     1.0374810
  C       -0.4835800     0.1666070    -0.0168160
  O       -0.4176729     1.3774339    -0.0028661
  N        0.6205880    -0.6399120    -0.0249480
  H        0.4923720    -1.6417740    -0.0116730
  C        1.9669970    -0.1034640     0.0152310
  H        1.8798420     0.9786710    -0.0752970
  H        2.4655150    -0.3449990     0.9590800
  H        2.5643020    -0.4906150    -0.8147010
units angstrom
no_reorient  #important for SAPT in psi4, default
symmetry c1  #important for SAPT in psi4, default
}

set PROPERTIES_ORIGIN ["COM"]
properties('MP2/aug-cc-pvtz', properties = ['dipole'])
--------------------------------------------------------------------------

    Molecular point group: c1
  Charge       = 0
  Multiplicity = 1
  Basis Set: AUG-CC-PVTZ
    Blend: AUG-CC-PVTZ
  Basis Set: (AUG-CC-PVTZ AUX)
    Blend: AUG-CC-PVTZ-JKFIT

    Orbital Energies [Eh]
    ---------------------

    Doubly Occupied:

       1A    -20.512856     2A    -15.585005     3A    -11.346965
       4A    -11.257239     5A    -11.236160     6A     -1.380974
       7A     -1.226749     8A     -1.015220     9A     -0.928774
      10A     -0.786067    11A     -0.689478    12A     -0.650753
      13A     -0.631780    14A     -0.585758    15A     -0.582592
      16A     -0.552810    17A     -0.542575    18A     -0.507047
      19A     -0.421254    20A     -0.391166

  @DF-RHF Final Energy:  -247.10281032472230

   => Energetics <=

    Nuclear Repulsion Energy =            180.2872542007192749
    One-Electron Energy =                -693.1176815866604102
    Two-Electron Energy =                 265.7276170612187798
    Total Energy =                       -247.1028103247223271
  Basis Set: (AUG-CC-PVTZ AUX)
    Blend: AUG-CC-PVTZ-RI
    Molecular point group: c1

    Geometry (in Angstrom), charge = 0, multiplicity = 1:

       Center              X                  Y                   Z               Mass
    ------------   -----------------  -----------------  -----------------  -----------------
         C           -1.797300961466    -0.611166022998     0.012980723445    12.000000000000
         H           -1.728261961466    -1.637825022998    -0.355815276555     1.007825032230
         H           -2.509863961466    -0.053996022998    -0.596206276555     1.007825032230
         H           -2.174202961466    -0.631132022998     1.039419723445     1.007825032230
         C           -0.470488961466     0.121054977002    -0.014877276555    12.000000000000
         O           -0.404581861466     1.331881877002    -0.000927376555    15.994914619570
         N            0.633679038534    -0.685464022998    -0.023009276555    14.003074004430
         H            0.505463038534    -1.687326022998    -0.009734276555     1.007825032230
         C            1.980088038534    -0.149016022998     0.017169723445    12.000000000000
         H            1.892933038534     0.933118977002    -0.073358276555     1.007825032230
         H            2.478606038534    -0.390551022998     0.961018723445     1.007825032230
         H            2.577393038534    -0.536167022998    -0.812762276555     1.007825032230

  Basis Set: AUG-CC-PVTZ
    Blend: AUG-CC-PVTZ
  Basis Set: (AUG-CC-PVTZ AUX)
    Blend: AUG-CC-PVTZ-JKFIT
	 Reference Energy          =    -247.1028103247222987 [Eh]
	 Singles Energy            =      -0.0000000000000000 [Eh]
	 Same-Spin Energy          =      -0.2461015416184900 [Eh]
	 Opposite-Spin Energy      =      -0.8094675717433386 [Eh]
	 Correlation Energy        =      -1.0555691133618286 [Eh]
	 Total Energy              =    -248.1583794380841255 [Eh]

	 ================> DF-SCS-MP2 Energies <==================
	-----------------------------------------------------------
	 SCS Same-Spin Scale       =       0.3333333333333333 [-]
	 SCS Opposite-Spin Scale   =       1.2000000000000000 [-]
	 SCS Same-Spin Energy      =      -0.0820338472061633 [Eh]
	 SCS Opposite-Spin Energy  =      -0.9713610860920063 [Eh]
	 SCS Correlation Energy    =      -1.0533949332981696 [Eh]
	 SCS Total Energy          =    -248.1562052580204636 [Eh]
	-----------------------------------------------------------

  Dipole Moment: [D]
     X:     0.7751      Y:    -3.6022      Z:     0.0665     Total:     3.6852

*** Psi4 exiting successfully. Buy a developer a beer!
