                               Psi4 1.3.2 release

  ==> Input File <==

--------------------------------------------------------------------------
#psi4
#
memory 32 gb

molecule  {
0 1
  C        1.8115140    -0.5649830    -0.0000040
  H        1.7159910    -1.6536130     0.0002720
  H        2.3774210    -0.2548590     0.8810970
  H        2.3770450    -0.2552970    -0.8815060
  C        0.4821720     0.1627700     0.0001260
  O        0.4193660     1.3939540    -0.0000280
  N       -0.7043067    -0.6996584    -0.0001369
  H       -0.4986210    -1.6430060     0.0003100
  C       -1.9687370    -0.1002510     0.0000180
  H       -1.8734000     0.9850130    -0.0016940
  H       -2.5201200    -0.4159370    -0.8903930
  H       -2.5190110    -0.4131270     0.8921260
units angstrom
no_reorient  #important for SAPT in psi4, default
symmetry c1  #important for SAPT in psi4, default
}

set PROPERTIES_ORIGIN ["COM"]
properties('MP2/aug-cc-pvtz', properties = ['dipole'])
--------------------------------------------------------------------------

    Molecular point group: c1
  Charge       = 0
  Multiplicity = 1
  Basis Set: AUG-CC-PVTZ
    Blend: AUG-CC-PVTZ
  Basis Set: (AUG-CC-PVTZ AUX)
    Blend: AUG-CC-PVTZ-JKFIT

    Orbital Energies [Eh]
    ---------------------

    Doubly Occupied:

       1A    -20.528283     2A    -15.578717     3A    -11.364370
       4A    -11.249328     5A    -11.243877     6A     -1.372376
       7A     -1.223901     8A     -1.018914     9A     -0.923667
      10A     -0.780411    11A     -0.690600    12A     -0.655647
      13A     -0.627691    14A     -0.591592    15A     -0.589748
      16A     -0.567371    17A     -0.530060    18A     -0.500389
      19A     -0.427252    20A     -0.383811

  @DF-RHF Final Energy:  -247.08687707899583

   => Energetics <=

    Nuclear Repulsion Energy =            178.5526911669022070
    One-Electron Energy =                -689.5831260670934171
    Two-Electron Energy =                 263.9435578211953839
    Total Energy =                       -247.0868770789958262
  Basis Set: (AUG-CC-PVTZ AUX)
    Blend: AUG-CC-PVTZ-RI
    Molecular point group: c1

    Geometry (in Angstrom), charge = 0, multiplicity = 1:

       Center              X                  Y                   Z               Mass
    ------------   -----------------  -----------------  -----------------  -----------------
         C            1.814298336082    -0.603172452150     0.000002450400    12.000000000000
         H            1.718775336082    -1.691802452150     0.000278450400     1.007825032230
         H            2.380205336082    -0.293048452150     0.881103450400     1.007825032230
         H            2.379829336082    -0.293486452150    -0.881499549600     1.007825032230
         C            0.484956336082     0.124580547850     0.000132450400    12.000000000000
         O            0.422150336082     1.355764547850    -0.000021549600    15.994914619570
         N           -0.701522363918    -0.737847852150    -0.000130449600    14.003074004430
         H           -0.495836663918    -1.681195452150     0.000316450400     1.007825032230
         C           -1.965952663918    -0.138440452150     0.000024450400    12.000000000000
         H           -1.870615663918     0.946823547850    -0.001687549600     1.007825032230
         H           -2.517335663918    -0.454126452150    -0.890386549600     1.007825032230
         H           -2.516226663918    -0.451316452150     0.892132450400     1.007825032230

  Basis Set: AUG-CC-PVTZ
    Blend: AUG-CC-PVTZ
  Basis Set: (AUG-CC-PVTZ AUX)
    Blend: AUG-CC-PVTZ-JKFIT
	 Reference Energy          =    -247.0868770789958262 [Eh]
	 Singles Energy            =      -0.0000000000000000 [Eh]
	 Same-Spin Energy          =      -0.2472524989043229 [Eh]
	 Opposite-Spin Energy      =      -0.8122920446360377 [Eh]
	 Correlation Energy        =      -1.0595445435403605 [Eh]
	 Total Energy              =    -248.1464216225361952 [Eh]

	 ================> DF-SCS-MP2 Energies <==================
	-----------------------------------------------------------
	 SCS Same-Spin Scale       =       0.3333333333333333 [-]
	 SCS Opposite-Spin Scale   =       1.2000000000000000 [-]
	 SCS Same-Spin Energy      =      -0.0824174996347743 [Eh]
	 SCS Opposite-Spin Energy  =      -0.9747504535632452 [Eh]
	 SCS Correlation Energy    =      -1.0571679531980194 [Eh]
	 SCS Total Energy          =    -248.1440450321938442 [Eh]
	-----------------------------------------------------------

  Dipole Moment: [D]
     X:    -0.3049      Y:    -3.3624      Z:     0.0007     Total:     3.3762

*** Psi4 exiting successfully. Buy a developer a beer!
