                               Psi4 1.4a3.dev225

  ==> Input File <==

--------------------------------------------------------------------------
#psi4
#
memory 32 gb

molecule  {
0 1
  C       -1.8103920    -0.5656140     0.0110420
  H       -1.7413530    -1.5922730    -0.3577540
  H       -2.5229550    -0.0084440    -0.5981450
  H       -2.1872940    -0.5855800     1.0374810
  C       -0.4835800     0.1666070    -0.0168160
  O       -0.4154991     1.4173721    -0.0024059
  N        0.6205880    -0.6399120    -0.0249480
  H        0.4923720    -1.6417740    -0.0116730
  C        1.9669970    -0.1034640     0.0152310
  H        1.8798420     0.9786710    -0.0752970
  H        2.4655150    -0.3449990     0.9590800
  H        2.5643020    -0.4906150    -0.8147010
units angstrom
no_reorient  #important for SAPT in psi4, default
symmetry c1  #important for SAPT in psi4, default
}

set PROPERTIES_ORIGIN ["COM"]
properties('MP2/aug-cc-pvtz', properties = ['dipole'])
--------------------------------------------------------------------------

    Molecular point group: c1
  Charge       = 0
  Multiplicity = 1
  Basis Set: AUG-CC-PVTZ
    Blend: AUG-CC-PVTZ
  Basis Set: (AUG-CC-PVTZ AUX)
    Blend: AUG-CC-PVTZ-JKFIT

    Orbital Energies [Eh]
    ---------------------

    Doubly Occupied:

       1A    -20.512169     2A    -15.591293     3A    -11.354479
       4A    -11.258817     5A    -11.239482     6A     -1.357181
       7A     -1.227541     8A     -1.018052     9A     -0.930804
      10A     -0.789866    11A     -0.688197    12A     -0.648509
      13A     -0.630746    14A     -0.586608    15A     -0.574107
      16A     -0.554385    17A     -0.543203    18A     -0.499468
      19A     -0.420358    20A     -0.390840

  @DF-RHF Final Energy:  -247.09833370695276

   => Energetics <=

    Nuclear Repulsion Energy =            179.1354189222302011
    One-Electron Energy =                -690.8352938861476105
    Two-Electron Energy =                 264.6015412569646514
    Total Energy =                       -247.0983337069527579
  Basis Set: (AUG-CC-PVTZ AUX)
    Blend: AUG-CC-PVTZ-RI
    Molecular point group: c1

    Geometry (in Angstrom), charge = 0, multiplicity = 1:

       Center              X                  Y                   Z               Mass
    ------------   -----------------  -----------------  -----------------  -----------------
         C           -1.797776915332    -0.619910498435     0.012879962580    12.000000000000
         H           -1.728737915332    -1.646569498435    -0.355916037420     1.007825032230
         H           -2.510339915332    -0.062740498435    -0.596307037420     1.007825032230
         H           -2.174678915332    -0.639876498435     1.039318962580     1.007825032230
         C           -0.470964915332     0.112310501565    -0.014978037420    12.000000000000
         O           -0.402884015332     1.363075601565    -0.000567937420    15.994914619570
         N            0.633203084668    -0.694208498435    -0.023110037420    14.003074004430
         H            0.504987084668    -1.696070498435    -0.009835037420     1.007825032230
         C            1.979612084668    -0.157760498435     0.017068962580    12.000000000000
         H            1.892457084668     0.924374501565    -0.073459037420     1.007825032230
         H            2.478130084668    -0.399295498435     0.960917962580     1.007825032230
         H            2.576917084668    -0.544911498435    -0.812863037420     1.007825032230

  Basis Set: AUG-CC-PVTZ
    Blend: AUG-CC-PVTZ
  Basis Set: (AUG-CC-PVTZ AUX)
    Blend: AUG-CC-PVTZ-JKFIT
	 Reference Energy          =    -247.0983337069527579 [Eh]
	 Singles Energy            =      -0.0000000000000000 [Eh]
	 Same-Spin Energy          =      -0.2470047001785562 [Eh]
	 Opposite-Spin Energy      =      -0.8117258818734812 [Eh]
	 Correlation Energy        =      -1.0587305820520374 [Eh]
	 Total Energy              =    -248.1570642890048077 [Eh]

	 ================> DF-SCS-MP2 Energies <==================
	-----------------------------------------------------------
	 SCS Same-Spin Scale       =       0.3333333333333333 [-]
	 SCS Opposite-Spin Scale   =       1.2000000000000000 [-]
	 SCS Same-Spin Energy      =      -0.0823349000595187 [Eh]
	 SCS Opposite-Spin Energy  =      -0.9740710582481773 [Eh]
	 SCS Correlation Energy    =      -1.0564059583076961 [Eh]
	 SCS Total Energy          =    -248.1547396652604505 [Eh]
	-----------------------------------------------------------

  Dipole Moment: [D]
     X:     0.8204      Y:    -3.8346      Z:     0.0661     Total:     3.9219

*** Psi4 exiting successfully. Buy a developer a beer!
