                               Psi4 1.3.2 release

  ==> Input File <==

--------------------------------------------------------------------------
#psi4
#
memory 32 gb

molecule  {
0 1
  C        1.8115140    -0.5649830    -0.0000040
  H        1.7159910    -1.6536130     0.0002720
  H        2.3774210    -0.2548590     0.8810970
  H        2.3770450    -0.2552970    -0.8815060
  C        0.4821720     0.1627700     0.0001260
  O        0.4193660     1.3939540    -0.0000280
  N       -0.6234180    -0.6408620    -0.0001190
  H       -0.4739059    -1.8414730     0.0003950
  C       -1.9687370    -0.1002510     0.0000180
  H       -1.8734000     0.9850130    -0.0016940
  H       -2.5201200    -0.4159370    -0.8903930
  H       -2.5190110    -0.4131270     0.8921260
units angstrom
no_reorient  #important for SAPT in psi4, default
symmetry c1  #important for SAPT in psi4, default
}

set PROPERTIES_ORIGIN ["COM"]
properties('MP2/aug-cc-pvtz', properties = ['dipole'])
--------------------------------------------------------------------------

    Molecular point group: c1
  Charge       = 0
  Multiplicity = 1
  Basis Set: AUG-CC-PVTZ
    Blend: AUG-CC-PVTZ
  Basis Set: (AUG-CC-PVTZ AUX)
    Blend: AUG-CC-PVTZ-JKFIT

    Orbital Energies [Eh]
    ---------------------

    Doubly Occupied:

       1A    -20.511016     2A    -15.604810     3A    -11.350607
       4A    -11.258335     5A    -11.236647     6A     -1.366889
       7A     -1.210209     8A     -1.015112     9A     -0.925443
      10A     -0.752283    11A     -0.678487    12A     -0.647303
      13A     -0.629586    14A     -0.585024    15A     -0.576416
      16A     -0.547857    17A     -0.531741    18A     -0.501715
      19A     -0.419207    20A     -0.388610

  @DF-RHF Final Energy:  -247.07061545033196

   => Energetics <=

    Nuclear Repulsion Energy =            178.7399511581739944
    One-Electron Energy =                -690.1465406444152677
    Two-Electron Energy =                 264.3359740359093166
    Total Energy =                       -247.0706154503319567
  Basis Set: (AUG-CC-PVTZ AUX)
    Blend: AUG-CC-PVTZ-RI
    Molecular point group: c1

    Geometry (in Angstrom), charge = 0, multiplicity = 1:

       Center              X                  Y                   Z               Mass
    ------------   -----------------  -----------------  -----------------  -----------------
         C            1.798452269654    -0.611704782713    -0.000002153398    12.000000000000
         H            1.702929269654    -1.700334782713     0.000273846602     1.007825032230
         H            2.364359269654    -0.301580782713     0.881098846602     1.007825032230
         H            2.363983269654    -0.302018782713    -0.881504153398     1.007825032230
         C            0.469110269654     0.116048217287     0.000127846602    12.000000000000
         O            0.406304269654     1.347232217287    -0.000026153398    15.994914619570
         N           -0.636479730346    -0.687583782713    -0.000117153398    14.003074004430
         H           -0.486967630346    -1.888194782713     0.000396846602     1.007825032230
         C           -1.981798730346    -0.146972782713     0.000019846602    12.000000000000
         H           -1.886461730346     0.938291217287    -0.001692153398     1.007825032230
         H           -2.533181730346    -0.462658782713    -0.890391153398     1.007825032230
         H           -2.532072730346    -0.459848782713     0.892127846602     1.007825032230

  Basis Set: AUG-CC-PVTZ
    Blend: AUG-CC-PVTZ
  Basis Set: (AUG-CC-PVTZ AUX)
    Blend: AUG-CC-PVTZ-JKFIT
	 Reference Energy          =    -247.0706154503319567 [Eh]
	 Singles Energy            =      -0.0000000000000000 [Eh]
	 Same-Spin Energy          =      -0.2480997071594871 [Eh]
	 Opposite-Spin Energy      =      -0.8148709269301234 [Eh]
	 Correlation Energy        =      -1.0629706340896106 [Eh]
	 Total Energy              =    -248.1335860844215802 [Eh]

	 ================> DF-SCS-MP2 Energies <==================
	-----------------------------------------------------------
	 SCS Same-Spin Scale       =       0.3333333333333333 [-]
	 SCS Opposite-Spin Scale   =       1.2000000000000000 [-]
	 SCS Same-Spin Energy      =      -0.0826999023864957 [Eh]
	 SCS Opposite-Spin Energy  =      -0.9778451123161480 [Eh]
	 SCS Correlation Energy    =      -1.0605450147026436 [Eh]
	 SCS Total Energy          =    -248.1311604650346112 [Eh]
	-----------------------------------------------------------

  Dipole Moment: [D]
     X:    -0.8496      Y:    -3.8498      Z:     0.0007     Total:     3.9424

*** Psi4 exiting successfully. Buy a developer a beer!
