                               Psi4 1.3.2 release

  ==> Input File <==

--------------------------------------------------------------------------
#psi4
#
memory 32 gb

molecule  {
0 1
  C        1.8115140    -0.5649830    -0.0000040
  H        1.7159910    -1.6536130     0.0002720
  H        2.3774210    -0.2548590     0.8810970
  H        2.3770450    -0.2552970    -0.8815060
  C        0.4821720     0.1627700     0.0001260
  O        0.4142714     1.4938241    -0.0000405
  N       -0.6234180    -0.6408620    -0.0001190
  H       -0.4986210    -1.6430060     0.0003100
  C       -1.9687370    -0.1002510     0.0000180
  H       -1.8734000     0.9850130    -0.0016940
  H       -2.5201200    -0.4159370    -0.8903930
  H       -2.5190110    -0.4131270     0.8921260
units angstrom
no_reorient  #important for SAPT in psi4, default
symmetry c1  #important for SAPT in psi4, default
}

set PROPERTIES_ORIGIN ["COM"]
properties('MP2/aug-cc-pvtz', properties = ['dipole'])
--------------------------------------------------------------------------

    Molecular point group: c1
  Charge       = 0
  Multiplicity = 1
  Basis Set: AUG-CC-PVTZ
    Blend: AUG-CC-PVTZ
  Basis Set: (AUG-CC-PVTZ AUX)
    Blend: AUG-CC-PVTZ-JKFIT

    Orbital Energies [Eh]
    ---------------------

    Doubly Occupied:

       1A    -20.509036     2A    -15.604392     3A    -11.367871
       4A    -11.262102     5A    -11.245626     6A     -1.319378
       7A     -1.224377     8A     -1.023441     9A     -0.935398
      10A     -0.798297    11A     -0.688679    12A     -0.645607
      13A     -0.630639    14A     -0.588437    15A     -0.562312
      16A     -0.552613    17A     -0.543121    18A     -0.486871
      19A     -0.415584    20A     -0.388449

  @DF-RHF Final Energy:  -247.07979503889243

   => Energetics <=

    Nuclear Repulsion Energy =            176.9780139311859557
    One-Electron Energy =                -686.5311627807039940
    Two-Electron Energy =                 262.4733538106256105
    Total Energy =                       -247.0797950388924278
  Basis Set: (AUG-CC-PVTZ AUX)
    Blend: AUG-CC-PVTZ-RI
    Molecular point group: c1

    Geometry (in Angstrom), charge = 0, multiplicity = 1:

       Center              X                  Y                   Z               Mass
    ------------   -----------------  -----------------  -----------------  -----------------
         C            1.799908698992    -0.636309378604     0.000001756126    12.000000000000
         H            1.704385698992    -1.724939378604     0.000277756126     1.007825032230
         H            2.365815698992    -0.326185378604     0.881102756126     1.007825032230
         H            2.365439698992    -0.326623378604    -0.881500243874     1.007825032230
         C            0.470566698992     0.091443621396     0.000131756126    12.000000000000
         O            0.402666098992     1.422497721396    -0.000034743874    15.994914619570
         N           -0.635023301008    -0.712188378604    -0.000113243874    14.003074004430
         H           -0.510226301008    -1.714332378604     0.000315756126     1.007825032230
         C           -1.980342301008    -0.171577378604     0.000023756126    12.000000000000
         H           -1.885005301008     0.913686621396    -0.001688243874     1.007825032230
         H           -2.531725301008    -0.487263378604    -0.890387243874     1.007825032230
         H           -2.530616301008    -0.484453378604     0.892131756126     1.007825032230

  Basis Set: AUG-CC-PVTZ
    Blend: AUG-CC-PVTZ
  Basis Set: (AUG-CC-PVTZ AUX)
    Blend: AUG-CC-PVTZ-JKFIT
	 Reference Energy          =    -247.0797950388924278 [Eh]
	 Singles Energy            =      -0.0000000000000000 [Eh]
	 Same-Spin Energy          =      -0.2487340739193091 [Eh]
	 Opposite-Spin Energy      =      -0.8160393678141212 [Eh]
	 Correlation Energy        =      -1.0647734417334302 [Eh]
	 Total Energy              =    -248.1445684806258498 [Eh]

	 ================> DF-SCS-MP2 Energies <==================
	-----------------------------------------------------------
	 SCS Same-Spin Scale       =       0.3333333333333333 [-]
	 SCS Opposite-Spin Scale   =       1.2000000000000000 [-]
	 SCS Same-Spin Energy      =      -0.0829113579731030 [Eh]
	 SCS Opposite-Spin Energy  =      -0.9792472413769454 [Eh]
	 SCS Correlation Energy    =      -1.0621585993500484 [Eh]
	 SCS Total Energy          =    -248.1419536382424837 [Eh]
	-----------------------------------------------------------

  Dipole Moment: [D]
     X:    -0.9264      Y:    -4.2748      Z:     0.0006     Total:     4.3740

*** Psi4 exiting successfully. Buy a developer a beer!
