                               Psi4 1.4a3.dev225

  ==> Input File <==

--------------------------------------------------------------------------
#psi4
#
memory 32 gb

molecule  {
0 1
  S        1.8205190     0.0641380    -0.3390420
  C       -1.2625450    -0.0636770     0.0596210
  C        0.8711260    -1.2781040     0.4345100
  C       -0.5666070    -1.2221760     0.0100460
  C       -0.5777350     1.1920400     0.3472900
  C       -2.7289820     0.0096020    -0.2663480
  C        0.7484780     1.3650420     0.1277540
  H        0.9719080    -1.1855360     1.5235300
  H        1.3455570    -2.2125020     0.1247530
  H       -1.0332360    -2.1065277    -0.2703315
  H       -1.1720770     2.0582400     0.6333130
  H       -2.9093790     0.6497060    -1.1365390
  H       -3.2903190     0.4352850     0.5730180
  H       -3.1351240    -0.9830860    -0.4783410
  H        1.2144190     2.3444380     0.1915340
units angstrom
no_reorient  #important for SAPT in psi4, default
symmetry c1  #important for SAPT in psi4, default
}

set PROPERTIES_ORIGIN ["COM"]
properties('MP2/aug-cc-pvtz', properties = ['dipole'])
--------------------------------------------------------------------------

    Molecular point group: c1
  Charge       = 0
  Multiplicity = 1
  Basis Set: AUG-CC-PVTZ
    Blend: AUG-CC-PVTZ
  Basis Set: (AUG-CC-PVTZ AUX)
    Blend: AUG-CC-PVTZ-JKFIT

    Orbital Energies [Eh]
    ---------------------

    Doubly Occupied:

       1A    -91.958967     2A    -11.268080     3A    -11.263512
       4A    -11.243819     5A    -11.237506     6A    -11.226886
       7A    -11.226164     8A     -8.959519     9A     -6.640758
      10A     -6.639818    11A     -6.638961    12A     -1.144984
      13A     -1.047044    14A     -1.023484    15A     -0.936751
      16A     -0.849926    17A     -0.806502    18A     -0.682254
      19A     -0.662925    20A     -0.619496    21A     -0.604309
      22A     -0.580539    23A     -0.569923    24A     -0.534614
      25A     -0.517598    26A     -0.478679    27A     -0.460429
      28A     -0.439931    29A     -0.353399    30A     -0.295205

  @DF-RHF Final Energy:  -629.45627749995663

   => Energetics <=

    Nuclear Repulsion Energy =            347.0457129223440802
    One-Electron Energy =               -1551.1800166015605100
    Two-Electron Energy =                 574.6780261792597457
    Total Energy =                       -629.4562774999566273
  Basis Set: (AUG-CC-PVTZ AUX)
    Blend: AUG-CC-PVTZ-RI
    Molecular point group: c1

    Geometry (in Angstrom), charge = 0, multiplicity = 1:

       Center              X                  Y                   Z               Mass
    ------------   -----------------  -----------------  -----------------  -----------------
         S            1.749651052438     0.054537926287    -0.329086348992    31.972071174400
         C           -1.333412947562    -0.073277073713     0.069576651008    12.000000000000
         C            0.800258052438    -1.287704073713     0.444465651008    12.000000000000
         C           -0.637474947562    -1.231776073713     0.020001651008    12.000000000000
         C           -0.648602947562     1.182439926287     0.357245651008    12.000000000000
         C           -2.799849947562     0.000001926287    -0.256392348992    12.000000000000
         C            0.677610052438     1.355441926287     0.137709651008    12.000000000000
         H            0.901040052438    -1.195136073713     1.533485651008     1.007825032230
         H            1.274689052438    -2.222102073713     0.134708651008     1.007825032230
         H           -1.104103947562    -2.116127773713    -0.260375848992     1.007825032230
         H           -1.242944947562     2.048639926287     0.643268651008     1.007825032230
         H           -2.980246947562     0.640105926287    -1.126583348992     1.007825032230
         H           -3.361186947562     0.425684926287     0.582973651008     1.007825032230
         H           -3.205991947562    -0.992686073713    -0.468385348992     1.007825032230
         H            1.143551052438     2.334837926287     0.201489651008     1.007825032230

  Basis Set: AUG-CC-PVTZ
    Blend: AUG-CC-PVTZ
  Basis Set: (AUG-CC-PVTZ AUX)
    Blend: AUG-CC-PVTZ-JKFIT
	 Reference Energy          =    -629.4562774999566273 [Eh]
	 Singles Energy            =      -0.0000000000000000 [Eh]
	 Same-Spin Energy          =      -0.3115544199485861 [Eh]
	 Opposite-Spin Energy      =      -1.0182812564983525 [Eh]
	 Correlation Energy        =      -1.3298356764469386 [Eh]
	 Total Energy              =    -630.7861131764035463 [Eh]

	 ================> DF-SCS-MP2 Energies <==================
	-----------------------------------------------------------
	 SCS Same-Spin Scale       =       0.3333333333333333 [-]
	 SCS Opposite-Spin Scale   =       1.2000000000000000 [-]
	 SCS Same-Spin Energy      =      -0.1038514733161954 [Eh]
	 SCS Opposite-Spin Energy  =      -1.2219375077980230 [Eh]
	 SCS Correlation Energy    =      -1.3257889811142183 [Eh]
	 SCS Total Energy          =    -630.7820664810708422 [Eh]
	-----------------------------------------------------------

  Dipole Moment: [D]
     X:    -1.1179      Y:    -0.3014      Z:     0.5420     Total:     1.2784

*** Psi4 exiting successfully. Buy a developer a beer!
