                               Psi4 1.4a3.dev225

  ==> Input File <==

--------------------------------------------------------------------------
#psi4
#
memory 32 gb

molecule  {
0 1
  S        1.8205190     0.0641380    -0.3390420
  C       -1.2625450    -0.0636770     0.0596210
  C        0.8711260    -1.2781040     0.4345100
  C       -0.5666070    -1.2221760     0.0100460
  C       -0.5777350     1.1920400     0.3472900
  C       -2.7289820     0.0096020    -0.2663480
  C        0.8710566     1.2162949     0.0743799
  H        0.9719080    -1.1855360     1.5235300
  H        1.3455570    -2.2125020     0.1247530
  H       -1.0557030    -2.1491070    -0.2838310
  H       -1.1720770     2.0582400     0.6333130
  H       -2.9093790     0.6497060    -1.1365390
  H       -3.2903190     0.4352850     0.5730180
  H       -3.1351240    -0.9830860    -0.4783410
  H        1.2144190     2.3444380     0.1915340
units angstrom
no_reorient  #important for SAPT in psi4, default
symmetry c1  #important for SAPT in psi4, default
}

set PROPERTIES_ORIGIN ["COM"]
properties('MP2/aug-cc-pvtz', properties = ['dipole'])
--------------------------------------------------------------------------

    Molecular point group: c1
  Charge       = 0
  Multiplicity = 1
  Basis Set: AUG-CC-PVTZ
    Blend: AUG-CC-PVTZ
  Basis Set: (AUG-CC-PVTZ AUX)
    Blend: AUG-CC-PVTZ-JKFIT

    Orbital Energies [Eh]
    ---------------------

    Doubly Occupied:

       1A    -91.969150     2A    -11.282492     3A    -11.267655
       4A    -11.241065     5A    -11.239736     6A    -11.222733
       7A    -11.222530     8A     -8.975008     9A     -6.656898
      10A     -6.654869    11A     -6.654224    12A     -1.159605
      13A     -1.070106    14A     -1.007789    15A     -0.937477
      16A     -0.857920    17A     -0.784211    18A     -0.675469
      19A     -0.649286    20A     -0.618456    21A     -0.605685
      22A     -0.568923    23A     -0.565022    24A     -0.536121
      25A     -0.519763    26A     -0.495782    27A     -0.475342
      28A     -0.428622    29A     -0.360222    30A     -0.269908

  @DF-RHF Final Energy:  -629.40336737441476

   => Energetics <=

    Nuclear Repulsion Energy =            349.5348675535411758
    One-Electron Energy =               -1555.9323281945130475
    Two-Electron Energy =                 576.9940932665572291
    Total Energy =                       -629.4033673744147563
  Basis Set: (AUG-CC-PVTZ AUX)
    Blend: AUG-CC-PVTZ-RI
    Molecular point group: c1

    Geometry (in Angstrom), charge = 0, multiplicity = 1:

       Center              X                  Y                   Z               Mass
    ------------   -----------------  -----------------  -----------------  -----------------
         S            1.736723800754     0.070853212091    -0.323248028357    31.972071174400
         C           -1.346340199246    -0.056961787909     0.075414971643    12.000000000000
         C            0.787330800754    -1.271388787909     0.450303971643    12.000000000000
         C           -0.650402199246    -1.215460787909     0.025839971643    12.000000000000
         C           -0.661530199246     1.198755212091     0.363083971643    12.000000000000
         C           -2.812777199246     0.016317212091    -0.250554028357    12.000000000000
         C            0.787261400754     1.223010112091     0.090173871643    12.000000000000
         H            0.888112800754    -1.178820787909     1.539323971643     1.007825032230
         H            1.261761800754    -2.205786787909     0.140546971643     1.007825032230
         H           -1.139498199246    -2.142391787909    -0.268037028357     1.007825032230
         H           -1.255872199246     2.064955212091     0.649106971643     1.007825032230
         H           -2.993174199246     0.656421212091    -1.120745028357     1.007825032230
         H           -3.374114199246     0.442000212091     0.588811971643     1.007825032230
         H           -3.218919199246    -0.976370787909    -0.462547028357     1.007825032230
         H            1.130623800754     2.351153212091     0.207327971643     1.007825032230

  Basis Set: AUG-CC-PVTZ
    Blend: AUG-CC-PVTZ
  Basis Set: (AUG-CC-PVTZ AUX)
    Blend: AUG-CC-PVTZ-JKFIT
	 Reference Energy          =    -629.4033673744147563 [Eh]
	 Singles Energy            =      -0.0000000000000000 [Eh]
	 Same-Spin Energy          =      -0.3179859263558305 [Eh]
	 Opposite-Spin Energy      =      -1.0254824215167759 [Eh]
	 Correlation Energy        =      -1.3434683478726064 [Eh]
	 Total Energy              =    -630.7468357222874147 [Eh]

	 ================> DF-SCS-MP2 Energies <==================
	-----------------------------------------------------------
	 SCS Same-Spin Scale       =       0.3333333333333333 [-]
	 SCS Opposite-Spin Scale   =       1.2000000000000000 [-]
	 SCS Same-Spin Energy      =      -0.1059953087852768 [Eh]
	 SCS Opposite-Spin Energy  =      -1.2305789058201311 [Eh]
	 SCS Correlation Energy    =      -1.3365742146054078 [Eh]
	 SCS Total Energy          =    -630.7399415890201908 [Eh]
	-----------------------------------------------------------

  Dipole Moment: [D]
     X:    -0.5053      Y:    -0.4447      Z:     0.4327     Total:     0.8002

*** Psi4 exiting successfully. Buy a developer a beer!
