                               Psi4 1.4a3.dev225

  ==> Input File <==

--------------------------------------------------------------------------
#psi4
#
memory 32 gb

molecule  {
0 1
  S        1.8205190     0.0641380    -0.3390420
  C       -1.2625450    -0.0636770     0.0596210
  C        0.8711260    -1.2781040     0.4345100
  C       -0.5666070    -1.2221760     0.0100460
  C       -0.5777350     1.1920400     0.3472900
  C       -2.7289820     0.0096020    -0.2663480
  C        0.7484780     1.3650420     0.1277540
  H        0.9719080    -1.1855360     1.5235300
  H        1.3455570    -2.2125020     0.1247530
  H       -1.0557030    -2.1491070    -0.2838310
  H       -1.1720770     2.0582400     0.6333130
  H       -2.8981171     0.6383552    -1.1470133
  H       -3.2903190     0.4352850     0.5730180
  H       -3.1351240    -0.9830860    -0.4783410
  H        1.2144190     2.3444380     0.1915340
units angstrom
no_reorient  #important for SAPT in psi4, default
symmetry c1  #important for SAPT in psi4, default
}

set PROPERTIES_ORIGIN ["COM"]
properties('MP2/aug-cc-pvtz', properties = ['dipole'])
--------------------------------------------------------------------------

    Molecular point group: c1
  Charge       = 0
  Multiplicity = 1
  Basis Set: AUG-CC-PVTZ
    Blend: AUG-CC-PVTZ
  Basis Set: (AUG-CC-PVTZ AUX)
    Blend: AUG-CC-PVTZ-JKFIT

    Orbital Energies [Eh]
    ---------------------

    Doubly Occupied:

       1A    -91.959247     2A    -11.268264     3A    -11.263970
       4A    -11.244025     5A    -11.237871     6A    -11.232022
       7A    -11.226801     8A     -8.959797     9A     -6.641035
      10A     -6.640095    11A     -6.639237    12A     -1.144823
      13A     -1.046972    14A     -1.022637    15A     -0.936220
      16A     -0.849031    17A     -0.803891    18A     -0.676199
      19A     -0.662938    20A     -0.619356    21A     -0.604701
      22A     -0.576709    23A     -0.571111    24A     -0.533714
      25A     -0.517118    26A     -0.477464    27A     -0.460616
      28A     -0.440107    29A     -0.353606    30A     -0.295394

  @DF-RHF Final Energy:  -629.45701711838387

   => Energetics <=

    Nuclear Repulsion Energy =            346.7959530519920008
    One-Electron Energy =               -1550.6959924719058108
    Two-Electron Energy =                 574.4430223015299362
    Total Energy =                       -629.4570171183838738
  Basis Set: (AUG-CC-PVTZ AUX)
    Blend: AUG-CC-PVTZ-RI
    Molecular point group: c1

    Geometry (in Angstrom), charge = 0, multiplicity = 1:

       Center              X                  Y                   Z               Mass
    ------------   -----------------  -----------------  -----------------  -----------------
         S            1.749751849630     0.055023062755    -0.328870689005    31.972071174400
         C           -1.333312150370    -0.072791937245     0.069792310995    12.000000000000
         C            0.800358849630    -1.287218937245     0.444681310995    12.000000000000
         C           -0.637374150370    -1.231290937245     0.020217310995    12.000000000000
         C           -0.648502150370     1.182925062755     0.357461310995    12.000000000000
         C           -2.799749150370     0.000487062755    -0.256176689005    12.000000000000
         C            0.677710849630     1.355927062755     0.137925310995    12.000000000000
         H            0.901140849630    -1.194650937245     1.533701310995     1.007825032230
         H            1.274789849630    -2.221616937245     0.134924310995     1.007825032230
         H           -1.126470150370    -2.158221937245    -0.273659689005     1.007825032230
         H           -1.242844150370     2.049125062755     0.643484310995     1.007825032230
         H           -2.968884250370     0.629240262755    -1.136841989005     1.007825032230
         H           -3.361086150370     0.426170062755     0.583189310995     1.007825032230
         H           -3.205891150370    -0.992200937245    -0.468169689005     1.007825032230
         H            1.143651849630     2.335323062755     0.201705310995     1.007825032230

  Basis Set: AUG-CC-PVTZ
    Blend: AUG-CC-PVTZ
  Basis Set: (AUG-CC-PVTZ AUX)
    Blend: AUG-CC-PVTZ-JKFIT
	 Reference Energy          =    -629.4570171183838738 [Eh]
	 Singles Energy            =      -0.0000000000000000 [Eh]
	 Same-Spin Energy          =      -0.3116620462877792 [Eh]
	 Opposite-Spin Energy      =      -1.0185935930238263 [Eh]
	 Correlation Energy        =      -1.3302556393116056 [Eh]
	 Total Energy              =    -630.7872727576955185 [Eh]

	 ================> DF-SCS-MP2 Energies <==================
	-----------------------------------------------------------
	 SCS Same-Spin Scale       =       0.3333333333333333 [-]
	 SCS Opposite-Spin Scale   =       1.2000000000000000 [-]
	 SCS Same-Spin Energy      =      -0.1038873487625930 [Eh]
	 SCS Opposite-Spin Energy  =      -1.2223123116285917 [Eh]
	 SCS Correlation Energy    =      -1.3261996603911848 [Eh]
	 SCS Total Energy          =    -630.7832167787751132 [Eh]
	-----------------------------------------------------------

  Dipole Moment: [D]
     X:    -1.1001      Y:    -0.2906      Z:     0.5429     Total:     1.2608

*** Psi4 exiting successfully. Buy a developer a beer!
