                               Psi4 1.4a3.dev225

  ==> Input File <==

--------------------------------------------------------------------------
#psi4
#
memory 32 gb

molecule  {
0 1
  S        1.6757482    -0.0471264    -0.3255364
  C       -1.2625450    -0.0636770     0.0596210
  C        0.8711260    -1.2781040     0.4345100
  C       -0.5666070    -1.2221760     0.0100460
  C       -0.5777350     1.1920400     0.3472900
  C       -2.7289820     0.0096020    -0.2663480
  C        0.7484780     1.3650420     0.1277540
  H        0.9719080    -1.1855360     1.5235300
  H        1.3455570    -2.2125020     0.1247530
  H       -1.0557030    -2.1491070    -0.2838310
  H       -1.1720770     2.0582400     0.6333130
  H       -2.9093790     0.6497060    -1.1365390
  H       -3.2903190     0.4352850     0.5730180
  H       -3.1351240    -0.9830860    -0.4783410
  H        1.2144190     2.3444380     0.1915340
units angstrom
no_reorient  #important for SAPT in psi4, default
symmetry c1  #important for SAPT in psi4, default
}

set PROPERTIES_ORIGIN ["COM"]
properties('MP2/aug-cc-pvtz', properties = ['dipole'])
--------------------------------------------------------------------------

    Molecular point group: c1
  Charge       = 0
  Multiplicity = 1
  Basis Set: AUG-CC-PVTZ
    Blend: AUG-CC-PVTZ
  Basis Set: (AUG-CC-PVTZ AUX)
    Blend: AUG-CC-PVTZ-JKFIT

    Orbital Energies [Eh]
    ---------------------

    Doubly Occupied:

       1A    -91.948862     2A    -11.266131     3A    -11.252168
       4A    -11.243035     5A    -11.238309     6A    -11.233331
       7A    -11.226671     8A     -8.953249     9A     -6.634808
      10A     -6.633754    11A     -6.632675    12A     -1.162150
      13A     -1.061045    14A     -1.029354    15A     -0.935791
      16A     -0.845894    17A     -0.807426    18A     -0.678188
      19A     -0.668072    20A     -0.623473    21A     -0.609643
      22A     -0.591962    23A     -0.570830    24A     -0.537181
      25A     -0.524949    26A     -0.491125    27A     -0.450225
      28A     -0.435503    29A     -0.342351    30A     -0.298702

  @DF-RHF Final Energy:  -629.44126710039689

   => Energetics <=

    Nuclear Repulsion Energy =            353.1555786729263673
    One-Electron Energy =               -1563.3399756663820881
    Two-Electron Energy =                 580.7431298930588355
    Total Energy =                       -629.4412671003968853
  Basis Set: (AUG-CC-PVTZ AUX)
    Blend: AUG-CC-PVTZ-RI
    Molecular point group: c1

    Geometry (in Angstrom), charge = 0, multiplicity = 1:

       Center              X                  Y                   Z               Mass
    ------------   -----------------  -----------------  -----------------  -----------------
         S            1.646396553304    -0.024591191355    -0.319313494088    31.972071174400
         C           -1.291896646696    -0.041141791355     0.065843905912    12.000000000000
         C            0.841774353304    -1.255568791355     0.440732905912    12.000000000000
         C           -0.595958646696    -1.199640791355     0.016268905912    12.000000000000
         C           -0.607086646696     1.214575208645     0.353512905912    12.000000000000
         C           -2.758333646696     0.032137208645    -0.260125094088    12.000000000000
         C            0.719126353304     1.387577208645     0.133976905912    12.000000000000
         H            0.942556353304    -1.163000791355     1.529752905912     1.007825032230
         H            1.316205353304    -2.189966791355     0.130975905912     1.007825032230
         H           -1.085054646696    -2.126571791355    -0.277608094088     1.007825032230
         H           -1.201428646696     2.080775208645     0.639535905912     1.007825032230
         H           -2.938730646696     0.672241208645    -1.130316094088     1.007825032230
         H           -3.319670646696     0.457820208645     0.579240905912     1.007825032230
         H           -3.164475646696    -0.960550791355    -0.472118094088     1.007825032230
         H            1.185067353304     2.366973208645     0.197756905912     1.007825032230

  Basis Set: AUG-CC-PVTZ
    Blend: AUG-CC-PVTZ
  Basis Set: (AUG-CC-PVTZ AUX)
    Blend: AUG-CC-PVTZ-JKFIT
	 Reference Energy          =    -629.4412671003968853 [Eh]
	 Singles Energy            =      -0.0000000000000000 [Eh]
	 Same-Spin Energy          =      -0.3137422153706584 [Eh]
	 Opposite-Spin Energy      =      -1.0191155167534682 [Eh]
	 Correlation Energy        =      -1.3328577321241266 [Eh]
	 Total Energy              =    -630.7741248325210108 [Eh]

	 ================> DF-SCS-MP2 Energies <==================
	-----------------------------------------------------------
	 SCS Same-Spin Scale       =       0.3333333333333333 [-]
	 SCS Opposite-Spin Scale   =       1.2000000000000000 [-]
	 SCS Same-Spin Energy      =      -0.1045807384568861 [Eh]
	 SCS Opposite-Spin Energy  =      -1.2229386201041619 [Eh]
	 SCS Correlation Energy    =      -1.3275193585610481 [Eh]
	 SCS Total Energy          =    -630.7687864589579476 [Eh]
	-----------------------------------------------------------

  Dipole Moment: [D]
     X:    -1.1225      Y:    -0.2775      Z:     0.5900     Total:     1.2982

*** Psi4 exiting successfully. Buy a developer a beer!
