                               Psi4 1.4a3.dev225

  ==> Input File <==

--------------------------------------------------------------------------
#psi4
#
memory 32 gb

molecule  {
0 1
  S        1.8205190     0.0641380    -0.3390420
  C       -1.2625450    -0.0636770     0.0596210
  C        0.8711260    -1.2781040     0.4345100
  C       -0.5666070    -1.2221760     0.0100460
  C       -0.5777350     1.1920400     0.3472900
  C       -2.7289820     0.0096020    -0.2663480
  C        0.7607359     1.3501673     0.1224166
  H        0.9719080    -1.1855360     1.5235300
  H        1.3455570    -2.2125020     0.1247530
  H       -1.0557030    -2.1491070    -0.2838310
  H       -1.1720770     2.0582400     0.6333130
  H       -2.9093790     0.6497060    -1.1365390
  H       -3.2903190     0.4352850     0.5730180
  H       -3.1351240    -0.9830860    -0.4783410
  H        1.2144190     2.3444380     0.1915340
units angstrom
no_reorient  #important for SAPT in psi4, default
symmetry c1  #important for SAPT in psi4, default
}

set PROPERTIES_ORIGIN ["COM"]
properties('MP2/aug-cc-pvtz', properties = ['dipole'])
--------------------------------------------------------------------------

    Molecular point group: c1
  Charge       = 0
  Multiplicity = 1
  Basis Set: AUG-CC-PVTZ
    Blend: AUG-CC-PVTZ
  Basis Set: (AUG-CC-PVTZ AUX)
    Blend: AUG-CC-PVTZ-JKFIT

    Orbital Energies [Eh]
    ---------------------

    Doubly Occupied:

       1A    -91.960239     2A    -11.269449     3A    -11.264356
       4A    -11.243765     5A    -11.238415     6A    -11.231397
       7A    -11.226462     8A     -8.961132     9A     -6.642409
      10A     -6.641425    11A     -6.640573    12A     -1.145257
      13A     -1.048823    14A     -1.020751    15A     -0.936880
      16A     -0.850221    17A     -0.802241    18A     -0.676120
      19A     -0.661038    20A     -0.618917    21A     -0.604643
      22A     -0.576236    23A     -0.569559    24A     -0.534309
      25A     -0.517728    26A     -0.478980    27A     -0.463099
      28A     -0.439268    29A     -0.354443    30A     -0.293084

  @DF-RHF Final Energy:  -629.45579385766166

   => Energetics <=

    Nuclear Repulsion Energy =            347.0205041158740755
    One-Electron Energy =               -1551.1301638546826780
    Two-Electron Energy =                 574.6538658811469986
    Total Energy =                       -629.4557938576616607
  Basis Set: (AUG-CC-PVTZ AUX)
    Blend: AUG-CC-PVTZ-RI
    Molecular point group: c1

    Geometry (in Angstrom), charge = 0, multiplicity = 1:

       Center              X                  Y                   Z               Mass
    ------------   -----------------  -----------------  -----------------  -----------------
         S            1.748540217788     0.056514179545    -0.328393224863    31.972071174400
         C           -1.334523782212    -0.071300820455     0.070269775137    12.000000000000
         C            0.799147217788    -1.285727820455     0.445158775137    12.000000000000
         C           -0.638585782212    -1.229799820455     0.020694775137    12.000000000000
         C           -0.649713782212     1.184416179545     0.357938775137    12.000000000000
         C           -2.800960782212     0.001978179545    -0.255699224863    12.000000000000
         C            0.688757117788     1.342543479545     0.133065375137    12.000000000000
         H            0.899929217788    -1.193159820455     1.534178775137     1.007825032230
         H            1.273578217788    -2.220125820455     0.135401775137     1.007825032230
         H           -1.127681782212    -2.156730820455    -0.273182224863     1.007825032230
         H           -1.244055782212     2.050616179545     0.643961775137     1.007825032230
         H           -2.981357782212     0.642082179545    -1.125890224863     1.007825032230
         H           -3.362297782212     0.427661179545     0.583666775137     1.007825032230
         H           -3.207102782212    -0.990709820455    -0.467692224863     1.007825032230
         H            1.142440217788     2.336814179545     0.202182775137     1.007825032230

  Basis Set: AUG-CC-PVTZ
    Blend: AUG-CC-PVTZ
  Basis Set: (AUG-CC-PVTZ AUX)
    Blend: AUG-CC-PVTZ-JKFIT
	 Reference Energy          =    -629.4557938576616607 [Eh]
	 Singles Energy            =      -0.0000000000000000 [Eh]
	 Same-Spin Energy          =      -0.3121045546677624 [Eh]
	 Opposite-Spin Energy      =      -1.0190239079305803 [Eh]
	 Correlation Energy        =      -1.3311284625983426 [Eh]
	 Total Energy              =    -630.7869223202600324 [Eh]

	 ================> DF-SCS-MP2 Energies <==================
	-----------------------------------------------------------
	 SCS Same-Spin Scale       =       0.3333333333333333 [-]
	 SCS Opposite-Spin Scale   =       1.2000000000000000 [-]
	 SCS Same-Spin Energy      =      -0.1040348515559208 [Eh]
	 SCS Opposite-Spin Energy  =      -1.2228286895166962 [Eh]
	 SCS Correlation Energy    =      -1.3268635410726171 [Eh]
	 SCS Total Energy          =    -630.7826573987342726 [Eh]
	-----------------------------------------------------------

  Dipole Moment: [D]
     X:    -1.0435      Y:    -0.3050      Z:     0.5338     Total:     1.2112

*** Psi4 exiting successfully. Buy a developer a beer!
