                               Psi4 1.4a3.dev225

  ==> Input File <==

--------------------------------------------------------------------------
#psi4
#
memory 32 gb

molecule  {
0 1
  S        1.8205190     0.0641380    -0.3390420
  C       -1.2625450    -0.0636770     0.0596210
  C        0.8711260    -1.2781040     0.4345100
  C       -0.5151464    -1.3078403     0.0063802
  C       -0.5777350     1.1920400     0.3472900
  C       -2.7289820     0.0096020    -0.2663480
  C        0.7484780     1.3650420     0.1277540
  H        0.9719080    -1.1855360     1.5235300
  H        1.3455570    -2.2125020     0.1247530
  H       -1.0557030    -2.1491070    -0.2838310
  H       -1.1720770     2.0582400     0.6333130
  H       -2.9093790     0.6497060    -1.1365390
  H       -3.2903190     0.4352850     0.5730180
  H       -3.1351240    -0.9830860    -0.4783410
  H        1.2144190     2.3444380     0.1915340
units angstrom
no_reorient  #important for SAPT in psi4, default
symmetry c1  #important for SAPT in psi4, default
}

set PROPERTIES_ORIGIN ["COM"]
properties('MP2/aug-cc-pvtz', properties = ['dipole'])
--------------------------------------------------------------------------

    Molecular point group: c1
  Charge       = 0
  Multiplicity = 1
  Basis Set: AUG-CC-PVTZ
    Blend: AUG-CC-PVTZ
  Basis Set: (AUG-CC-PVTZ AUX)
    Blend: AUG-CC-PVTZ-JKFIT

    Orbital Energies [Eh]
    ---------------------

    Doubly Occupied:

       1A    -91.961245     2A    -11.270508     3A    -11.261646
       4A    -11.257851     5A    -11.239145     6A    -11.235968
       7A    -11.228175     8A     -8.961695     9A     -6.642904
      10A     -6.641956    11A     -6.641115    12A     -1.140644
      13A     -1.042523    14A     -1.029106    15A     -0.935690
      16A     -0.839994    17A     -0.809747    18A     -0.681659
      19A     -0.663232    20A     -0.620120    21A     -0.605105
      22A     -0.582017    23A     -0.570138    24A     -0.535705
      25A     -0.517780    26A     -0.475667    27A     -0.460833
      28A     -0.440554    29A     -0.346680    30A     -0.286433

  @DF-RHF Final Energy:  -629.43862783032478

   => Energetics <=

    Nuclear Repulsion Energy =            345.7194126373650533
    One-Electron Energy =               -1548.4644138684909649
    Two-Electron Energy =                 573.3063734008012489
    Total Energy =                       -629.4386278303247764
  Basis Set: (AUG-CC-PVTZ AUX)
    Blend: AUG-CC-PVTZ-RI
    Molecular point group: c1

    Geometry (in Angstrom), charge = 0, multiplicity = 1:

       Center              X                  Y                   Z               Mass
    ------------   -----------------  -----------------  -----------------  -----------------
         S            1.744341228369     0.064096432335    -0.328572269437    31.972071174400
         C           -1.338722771631    -0.063718567665     0.070090730563    12.000000000000
         C            0.794948228369    -1.278145567665     0.444979730563    12.000000000000
         C           -0.591324171631    -1.307881867665     0.016849930563    12.000000000000
         C           -0.653912771631     1.191998432335     0.357759730563    12.000000000000
         C           -2.805159771631     0.009560432335    -0.255878269437    12.000000000000
         C            0.672300228369     1.365000432335     0.138223730563    12.000000000000
         H            0.895730228369    -1.185577567665     1.533999730563     1.007825032230
         H            1.269379228369    -2.212543567665     0.135222730563     1.007825032230
         H           -1.131880771631    -2.149148567665    -0.273361269437     1.007825032230
         H           -1.248254771631     2.058198432335     0.643782730563     1.007825032230
         H           -2.985556771631     0.649664432335    -1.126069269437     1.007825032230
         H           -3.366496771631     0.435243432335     0.583487730563     1.007825032230
         H           -3.211301771631    -0.983127567665    -0.467871269437     1.007825032230
         H            1.138241228369     2.344396432335     0.202003730563     1.007825032230

  Basis Set: AUG-CC-PVTZ
    Blend: AUG-CC-PVTZ
  Basis Set: (AUG-CC-PVTZ AUX)
    Blend: AUG-CC-PVTZ-JKFIT
	 Reference Energy          =    -629.4386278303247764 [Eh]
	 Singles Energy            =      -0.0000000000000000 [Eh]
	 Same-Spin Energy          =      -0.3139340486686868 [Eh]
	 Opposite-Spin Energy      =      -1.0223621726192604 [Eh]
	 Correlation Energy        =      -1.3362962212879472 [Eh]
	 Total Energy              =    -630.7749240516127429 [Eh]

	 ================> DF-SCS-MP2 Energies <==================
	-----------------------------------------------------------
	 SCS Same-Spin Scale       =       0.3333333333333333 [-]
	 SCS Opposite-Spin Scale   =       1.2000000000000000 [-]
	 SCS Same-Spin Energy      =      -0.1046446828895623 [Eh]
	 SCS Opposite-Spin Energy  =      -1.2268346071431124 [Eh]
	 SCS Correlation Energy    =      -1.3314792900326746 [Eh]
	 SCS Total Energy          =    -630.7701071203574656 [Eh]
	-----------------------------------------------------------

  Dipole Moment: [D]
     X:    -1.0877      Y:    -0.2266      Z:     0.5363     Total:     1.2338

*** Psi4 exiting successfully. Buy a developer a beer!
