                               Psi4 1.4a3.dev225

  ==> Input File <==

--------------------------------------------------------------------------
#psi4
#
memory 32 gb

molecule  {
0 1
  S        1.8205190     0.0641380    -0.3390420
  C       -1.2625450    -0.0636770     0.0596210
  C        0.8711260    -1.2781040     0.4345100
  C       -0.5923373    -1.1793439     0.0118789
  C       -0.5777350     1.1920400     0.3472900
  C       -2.7289820     0.0096020    -0.2663480
  C        0.7484780     1.3650420     0.1277540
  H        0.9719080    -1.1855360     1.5235300
  H        1.3455570    -2.2125020     0.1247530
  H       -1.0557030    -2.1491070    -0.2838310
  H       -1.1720770     2.0582400     0.6333130
  H       -2.9093790     0.6497060    -1.1365390
  H       -3.2903190     0.4352850     0.5730180
  H       -3.1351240    -0.9830860    -0.4783410
  H        1.2144190     2.3444380     0.1915340
units angstrom
no_reorient  #important for SAPT in psi4, default
symmetry c1  #important for SAPT in psi4, default
}

set PROPERTIES_ORIGIN ["COM"]
properties('MP2/aug-cc-pvtz', properties = ['dipole'])
--------------------------------------------------------------------------

    Molecular point group: c1
  Charge       = 0
  Multiplicity = 1
  Basis Set: AUG-CC-PVTZ
    Blend: AUG-CC-PVTZ
  Basis Set: (AUG-CC-PVTZ AUX)
    Blend: AUG-CC-PVTZ-JKFIT

    Orbital Energies [Eh]
    ---------------------

    Doubly Occupied:

       1A    -91.958330     2A    -11.267441     3A    -11.265344
       4A    -11.237660     5A    -11.236462     6A    -11.229783
       7A    -11.226284     8A     -8.958928     9A     -6.640178
      10A     -6.639241    11A     -6.638376    12A     -1.148452
      13A     -1.050564    14A     -1.019127    15A     -0.937276
      16A     -0.853877    17A     -0.800729    18A     -0.673251
      19A     -0.663320    20A     -0.620704    21A     -0.604475
      22A     -0.575215    23A     -0.569750    24A     -0.533752
      25A     -0.516910    26A     -0.476512    27A     -0.459353
      28A     -0.439976    29A     -0.358219    30A     -0.298913

  @DF-RHF Final Energy:  -629.45580401145878

   => Energetics <=

    Nuclear Repulsion Energy =            347.3642816195145429
    One-Electron Energy =               -1551.8433672565950019
    Two-Electron Energy =                 575.0232816256217347
    Total Energy =                       -629.4558040114587811
  Basis Set: (AUG-CC-PVTZ AUX)
    Blend: AUG-CC-PVTZ-RI
    Molecular point group: c1

    Geometry (in Angstrom), charge = 0, multiplicity = 1:

       Center              X                  Y                   Z               Mass
    ------------   -----------------  -----------------  -----------------  -----------------
         S            1.752609122478     0.050333221533    -0.329161233542    31.972071174400
         C           -1.330454877522    -0.077481778467     0.069501766458    12.000000000000
         C            0.803216122478    -1.291908778467     0.444390766458    12.000000000000
         C           -0.660247177522    -1.193148678467     0.021759666458    12.000000000000
         C           -0.645644877522     1.178235221533     0.357170766458    12.000000000000
         C           -2.796891877522    -0.004202778467    -0.256467233542    12.000000000000
         C            0.680568122478     1.351237221533     0.137634766458    12.000000000000
         H            0.903998122478    -1.199340778467     1.533410766458     1.007825032230
         H            1.277647122478    -2.226306778467     0.134633766458     1.007825032230
         H           -1.123612877522    -2.162911778467    -0.273950233542     1.007825032230
         H           -1.239986877522     2.044435221533     0.643193766458     1.007825032230
         H           -2.977288877522     0.635901221533    -1.126658233542     1.007825032230
         H           -3.358228877522     0.421480221533     0.582898766458     1.007825032230
         H           -3.203033877522    -0.996890778467    -0.468460233542     1.007825032230
         H            1.146509122478     2.330633221533     0.201414766458     1.007825032230

  Basis Set: AUG-CC-PVTZ
    Blend: AUG-CC-PVTZ
  Basis Set: (AUG-CC-PVTZ AUX)
    Blend: AUG-CC-PVTZ-JKFIT
	 Reference Energy          =    -629.4558040114587811 [Eh]
	 Singles Energy            =      -0.0000000000000000 [Eh]
	 Same-Spin Energy          =      -0.3108610531789577 [Eh]
	 Opposite-Spin Energy      =      -1.0172849880450172 [Eh]
	 Correlation Energy        =      -1.3281460412239749 [Eh]
	 Total Energy              =    -630.7839500526827123 [Eh]

	 ================> DF-SCS-MP2 Energies <==================
	-----------------------------------------------------------
	 SCS Same-Spin Scale       =       0.3333333333333333 [-]
	 SCS Opposite-Spin Scale   =       1.2000000000000000 [-]
	 SCS Same-Spin Energy      =      -0.1036203510596526 [Eh]
	 SCS Opposite-Spin Energy  =      -1.2207419856540207 [Eh]
	 SCS Correlation Energy    =      -1.3243623367136732 [Eh]
	 SCS Total Energy          =    -630.7801663481724290 [Eh]
	-----------------------------------------------------------

  Dipole Moment: [D]
     X:    -1.1086      Y:    -0.3128      Z:     0.5513     Total:     1.2770

*** Psi4 exiting successfully. Buy a developer a beer!
