                               Psi4 1.4a3.dev225

  ==> Input File <==

--------------------------------------------------------------------------
#psi4
#
memory 32 gb

molecule  {
0 1
  S        1.8205190     0.0641380    -0.3390420
  C       -1.2625450    -0.0636770     0.0596210
  C        0.8711260    -1.2781040     0.4345100
  C       -0.5666070    -1.2221760     0.0100460
  C       -0.5777350     1.1920400     0.3472900
  C       -2.7289820     0.0096020    -0.2663480
  C        0.7484780     1.3650420     0.1277540
  H        0.9719080    -1.1855360     1.5235300
  H        1.3455570    -2.2125020     0.1247530
  H       -1.0557030    -2.1491070    -0.2838310
  H       -1.1720770     2.0582400     0.6333130
  H       -2.8411040     0.5787993    -1.1952999
  H       -3.2903190     0.4352850     0.5730180
  H       -3.1351240    -0.9830860    -0.4783410
  H        1.2144190     2.3444380     0.1915340
units angstrom
no_reorient  #important for SAPT in psi4, default
symmetry c1  #important for SAPT in psi4, default
}

set PROPERTIES_ORIGIN ["COM"]
properties('MP2/aug-cc-pvtz', properties = ['dipole'])
--------------------------------------------------------------------------

    Molecular point group: c1
  Charge       = 0
  Multiplicity = 1
  Basis Set: AUG-CC-PVTZ
    Blend: AUG-CC-PVTZ
  Basis Set: (AUG-CC-PVTZ AUX)
    Blend: AUG-CC-PVTZ-JKFIT

    Orbital Energies [Eh]
    ---------------------

    Doubly Occupied:

       1A    -91.959145     2A    -11.268241     3A    -11.263709
       4A    -11.243438     5A    -11.237731     6A    -11.231448
       7A    -11.226828     8A     -8.959696     9A     -6.640934
      10A     -6.639994    11A     -6.639137    12A     -1.144736
      13A     -1.047217    14A     -1.022440    15A     -0.936092
      16A     -0.848518    17A     -0.803683    18A     -0.675960
      19A     -0.662170    20A     -0.617777    21A     -0.605846
      22A     -0.579158    23A     -0.575231    24A     -0.531108
      25A     -0.513537    26A     -0.477215    27A     -0.460324
      28A     -0.440664    29A     -0.353437    30A     -0.295195

  @DF-RHF Final Energy:  -629.45578398652697

   => Energetics <=

    Nuclear Repulsion Energy =            346.8742962426003942
    One-Electron Energy =               -1550.8589441485110001
    Two-Electron Energy =                 574.5288639193836389
    Total Energy =                       -629.4557839865269671
  Basis Set: (AUG-CC-PVTZ AUX)
    Blend: AUG-CC-PVTZ-RI
    Molecular point group: c1

    Geometry (in Angstrom), charge = 0, multiplicity = 1:

       Center              X                  Y                   Z               Mass
    ------------   -----------------  -----------------  -----------------  -----------------
         S            1.749238979564     0.055558806968    -0.328436319505    31.972071174400
         C           -1.333825020436    -0.072256193032     0.070226680495    12.000000000000
         C            0.799845979564    -1.286683193032     0.445115680495    12.000000000000
         C           -0.637887020436    -1.230755193032     0.020651680495    12.000000000000
         C           -0.649015020436     1.183460806968     0.357895680495    12.000000000000
         C           -2.800262020436     0.001022806968    -0.255742319505    12.000000000000
         C            0.677197979564     1.356462806968     0.138359680495    12.000000000000
         H            0.900627979564    -1.194115193032     1.534135680495     1.007825032230
         H            1.274276979564    -2.221081193032     0.135358680495     1.007825032230
         H           -1.126983020436    -2.157686193032    -0.273225319505     1.007825032230
         H           -1.243357020436     2.049660806968     0.643918680495     1.007825032230
         H           -2.912384020436     0.570220106968    -1.184694219505     1.007825032230
         H           -3.361599020436     0.426705806968     0.583623680495     1.007825032230
         H           -3.206404020436    -0.991665193032    -0.467735319505     1.007825032230
         H            1.143138979564     2.335858806968     0.202139680495     1.007825032230

  Basis Set: AUG-CC-PVTZ
    Blend: AUG-CC-PVTZ
  Basis Set: (AUG-CC-PVTZ AUX)
    Blend: AUG-CC-PVTZ-JKFIT
	 Reference Energy          =    -629.4557839865269671 [Eh]
	 Singles Energy            =      -0.0000000000000000 [Eh]
	 Same-Spin Energy          =      -0.3117325201968165 [Eh]
	 Opposite-Spin Energy      =      -1.0187246785850359 [Eh]
	 Correlation Energy        =      -1.3304571987818523 [Eh]
	 Total Energy              =    -630.7862411853087679 [Eh]

	 ================> DF-SCS-MP2 Energies <==================
	-----------------------------------------------------------
	 SCS Same-Spin Scale       =       0.3333333333333333 [-]
	 SCS Opposite-Spin Scale   =       1.2000000000000000 [-]
	 SCS Same-Spin Energy      =      -0.1039108400656055 [Eh]
	 SCS Opposite-Spin Energy  =      -1.2224696143020430 [Eh]
	 SCS Correlation Energy    =      -1.3263804543676485 [Eh]
	 SCS Total Energy          =    -630.7821644408945758 [Eh]
	-----------------------------------------------------------

  Dipole Moment: [D]
     X:    -1.0971      Y:    -0.3141      Z:     0.5325     Total:     1.2593

*** Psi4 exiting successfully. Buy a developer a beer!
