                               Psi4 1.4a3.dev225

  ==> Input File <==

--------------------------------------------------------------------------
#psi4
#
memory 32 gb

molecule  {
0 1
  S        1.8438085     0.0838689    -0.3395450
  C       -1.2625450    -0.0636770     0.0596210
  C        0.8711260    -1.2781040     0.4345100
  C       -0.5666070    -1.2221760     0.0100460
  C       -0.5777350     1.1920400     0.3472900
  C       -2.7289820     0.0096020    -0.2663480
  C        0.7484780     1.3650420     0.1277540
  H        0.9719080    -1.1855360     1.5235300
  H        1.3455570    -2.2125020     0.1247530
  H       -1.0557030    -2.1491070    -0.2838310
  H       -1.1720770     2.0582400     0.6333130
  H       -2.9093790     0.6497060    -1.1365390
  H       -3.2903190     0.4352850     0.5730180
  H       -3.1351240    -0.9830860    -0.4783410
  H        1.2144190     2.3444380     0.1915340
units angstrom
no_reorient  #important for SAPT in psi4, default
symmetry c1  #important for SAPT in psi4, default
}

set PROPERTIES_ORIGIN ["COM"]
properties('MP2/aug-cc-pvtz', properties = ['dipole'])
--------------------------------------------------------------------------

    Molecular point group: c1
  Charge       = 0
  Multiplicity = 1
  Basis Set: AUG-CC-PVTZ
    Blend: AUG-CC-PVTZ
  Basis Set: (AUG-CC-PVTZ AUX)
    Blend: AUG-CC-PVTZ-JKFIT

    Orbital Energies [Eh]
    ---------------------

    Doubly Occupied:

       1A    -91.960548     2A    -11.268620     3A    -11.266069
       4A    -11.244466     5A    -11.237780     6A    -11.232043
       7A    -11.226892     8A     -8.960652     9A     -6.641862
      10A     -6.640892    11A     -6.640070    12A     -1.142983
      13A     -1.045582    14A     -1.021138    15A     -0.936389
      16A     -0.849753    17A     -0.803226    18A     -0.676179
      19A     -0.662553    20A     -0.619223    21A     -0.604094
      22A     -0.574889    23A     -0.569424    24A     -0.534058
      25A     -0.516641    26A     -0.475048    27A     -0.461888
      28A     -0.440246    29A     -0.354919    30A     -0.294942

  @DF-RHF Final Energy:  -629.45653448105725

   => Energetics <=

    Nuclear Repulsion Energy =            345.8124157460607080
    One-Electron Energy =               -1548.7317586775893687
    Two-Electron Energy =                 573.4628084504714707
    Total Energy =                       -629.4565344810572469
  Basis Set: (AUG-CC-PVTZ AUX)
    Blend: AUG-CC-PVTZ-RI
    Molecular point group: c1

    Geometry (in Angstrom), charge = 0, multiplicity = 1:

       Center              X                  Y                   Z               Mass
    ------------   -----------------  -----------------  -----------------  -----------------
         S            1.766496379957     0.069021118170    -0.329324367755    31.972071174400
         C           -1.339857120043    -0.078524781830     0.069841632245    12.000000000000
         C            0.793813879957    -1.292951781830     0.444730632245    12.000000000000
         C           -0.643919120043    -1.237023781830     0.020266632245    12.000000000000
         C           -0.655047120043     1.177192218170     0.357510632245    12.000000000000
         C           -2.806294120043    -0.005245781830    -0.256127367755    12.000000000000
         C            0.671165879957     1.350194218170     0.137974632245    12.000000000000
         H            0.894595879957    -1.200383781830     1.533750632245     1.007825032230
         H            1.268244879957    -2.227349781830     0.134973632245     1.007825032230
         H           -1.133015120043    -2.163954781830    -0.273610367755     1.007825032230
         H           -1.249389120043     2.043392218170     0.643533632245     1.007825032230
         H           -2.986691120043     0.634858218170    -1.126318367755     1.007825032230
         H           -3.367631120043     0.420437218170     0.583238632245     1.007825032230
         H           -3.212436120043    -0.997933781830    -0.468120367755     1.007825032230
         H            1.137106879957     2.329590218170     0.201754632245     1.007825032230

  Basis Set: AUG-CC-PVTZ
    Blend: AUG-CC-PVTZ
  Basis Set: (AUG-CC-PVTZ AUX)
    Blend: AUG-CC-PVTZ-JKFIT
	 Reference Energy          =    -629.4565344810572469 [Eh]
	 Singles Energy            =      -0.0000000000000000 [Eh]
	 Same-Spin Energy          =      -0.3114715003198185 [Eh]
	 Opposite-Spin Energy      =      -1.0186971048576805 [Eh]
	 Correlation Energy        =      -1.3301686051774990 [Eh]
	 Total Energy              =    -630.7867030862347519 [Eh]

	 ================> DF-SCS-MP2 Energies <==================
	-----------------------------------------------------------
	 SCS Same-Spin Scale       =       0.3333333333333333 [-]
	 SCS Opposite-Spin Scale   =       1.2000000000000000 [-]
	 SCS Same-Spin Energy      =      -0.1038238334399395 [Eh]
	 SCS Opposite-Spin Energy  =      -1.2224365258292165 [Eh]
	 SCS Correlation Energy    =      -1.3262603592691560 [Eh]
	 SCS Total Energy          =    -630.7827948403263463 [Eh]
	-----------------------------------------------------------

  Dipole Moment: [D]
     X:    -1.1035      Y:    -0.2949      Z:     0.5406     Total:     1.2637

*** Psi4 exiting successfully. Buy a developer a beer!
