                               Psi4 1.4a3.dev225

  ==> Input File <==

--------------------------------------------------------------------------
#psi4
#
memory 32 gb

molecule  {
0 1
  S        1.8662406     0.1044583    -0.3424131
  C       -1.2625450    -0.0636770     0.0596210
  C        0.8711260    -1.2781040     0.4345100
  C       -0.5666070    -1.2221760     0.0100460
  C       -0.5777350     1.1920400     0.3472900
  C       -2.7289820     0.0096020    -0.2663480
  C        0.7484780     1.3650420     0.1277540
  H        0.9719080    -1.1855360     1.5235300
  H        1.3455570    -2.2125020     0.1247530
  H       -1.0557030    -2.1491070    -0.2838310
  H       -1.1720770     2.0582400     0.6333130
  H       -2.9093790     0.6497060    -1.1365390
  H       -3.2903190     0.4352850     0.5730180
  H       -3.1351240    -0.9830860    -0.4783410
  H        1.2144190     2.3444380     0.1915340
units angstrom
no_reorient  #important for SAPT in psi4, default
symmetry c1  #important for SAPT in psi4, default
}

set PROPERTIES_ORIGIN ["COM"]
properties('MP2/aug-cc-pvtz', properties = ['dipole'])
--------------------------------------------------------------------------

    Molecular point group: c1
  Charge       = 0
  Multiplicity = 1
  Basis Set: AUG-CC-PVTZ
    Blend: AUG-CC-PVTZ
  Basis Set: (AUG-CC-PVTZ AUX)
    Blend: AUG-CC-PVTZ-JKFIT

    Orbital Energies [Eh]
    ---------------------

    Doubly Occupied:

       1A    -91.961725     2A    -11.268942     3A    -11.268243
       4A    -11.244803     5A    -11.237656     6A    -11.232007
       7A    -11.226996     8A     -8.961410     9A     -6.642592
      10A     -6.641591    11A     -6.640801    12A     -1.141289
      13A     -1.044402    14A     -1.019496    15A     -0.936473
      16A     -0.850423    17A     -0.802437    18A     -0.676208
      19A     -0.662051    20A     -0.618691    21A     -0.603720
      22A     -0.573458    23A     -0.568955    24A     -0.533774
      25A     -0.515655    26A     -0.472857    27A     -0.462608
      28A     -0.440378    29A     -0.355964    30A     -0.294551

  @DF-RHF Final Energy:  -629.45528705961453

   => Energetics <=

    Nuclear Repulsion Energy =            344.8481257836860436
    One-Electron Energy =               -1546.8065155102876815
    Two-Electron Energy =                 572.5031026669870471
    Total Energy =                       -629.4552870596145340
  Basis Set: (AUG-CC-PVTZ AUX)
    Blend: AUG-CC-PVTZ-RI
    Molecular point group: c1

    Geometry (in Angstrom), charge = 0, multiplicity = 1:

       Center              X                  Y                   Z               Mass
    ------------   -----------------  -----------------  -----------------  -----------------
         S            1.782526884017     0.083734785650    -0.331373979191    31.972071174400
         C           -1.346258715983    -0.084400514350     0.070660120809    12.000000000000
         C            0.787412284017    -1.298827514350     0.445549120809    12.000000000000
         C           -0.650320715983    -1.242899514350     0.021085120809    12.000000000000
         C           -0.661448715983     1.171316485650     0.358329120809    12.000000000000
         C           -2.812695715983    -0.011121514350    -0.255308879191    12.000000000000
         C            0.664764284017     1.344318485650     0.138793120809    12.000000000000
         H            0.888194284017    -1.206259514350     1.534569120809     1.007825032230
         H            1.261843284017    -2.233225514350     0.135792120809     1.007825032230
         H           -1.139416715983    -2.169830514350    -0.272791879191     1.007825032230
         H           -1.255790715983     2.037516485650     0.644352120809     1.007825032230
         H           -2.993092715983     0.628982485650    -1.125499879191     1.007825032230
         H           -3.374032715983     0.414561485650     0.584057120809     1.007825032230
         H           -3.218837715983    -1.003809514350    -0.467301879191     1.007825032230
         H            1.130705284017     2.323714485650     0.202573120809     1.007825032230

  Basis Set: AUG-CC-PVTZ
    Blend: AUG-CC-PVTZ
  Basis Set: (AUG-CC-PVTZ AUX)
    Blend: AUG-CC-PVTZ-JKFIT
	 Reference Energy          =    -629.4552870596145340 [Eh]
	 Singles Energy            =      -0.0000000000000000 [Eh]
	 Same-Spin Energy          =      -0.3113227824171713 [Eh]
	 Opposite-Spin Energy      =      -1.0188769042572388 [Eh]
	 Correlation Energy        =      -1.3301996866744101 [Eh]
	 Total Energy              =    -630.7854867462889388 [Eh]

	 ================> DF-SCS-MP2 Energies <==================
	-----------------------------------------------------------
	 SCS Same-Spin Scale       =       0.3333333333333333 [-]
	 SCS Opposite-Spin Scale   =       1.2000000000000000 [-]
	 SCS Same-Spin Energy      =      -0.1037742608057237 [Eh]
	 SCS Opposite-Spin Energy  =      -1.2226522851086865 [Eh]
	 SCS Correlation Energy    =      -1.3264265459144102 [Eh]
	 SCS Total Energy          =    -630.7817136055289211 [Eh]
	-----------------------------------------------------------

  Dipole Moment: [D]
     X:    -1.1079      Y:    -0.3059      Z:     0.5369     Total:     1.2686

*** Psi4 exiting successfully. Buy a developer a beer!
