                               Psi4 1.4a3.dev225

  ==> Input File <==

--------------------------------------------------------------------------
#psi4
#
memory 32 gb

molecule  {
0 1
  S        1.8205190     0.0641380    -0.3390420
  C       -1.2625450    -0.0636770     0.0596210
  C        0.8711260    -1.2781040     0.4345100
  C       -0.5666070    -1.2221760     0.0100460
  C       -0.5777350     1.1920400     0.3472900
  C       -2.7289820     0.0096020    -0.2663480
  C        0.8097673     1.2906685     0.1010670
  H        0.9719080    -1.1855360     1.5235300
  H        1.3455570    -2.2125020     0.1247530
  H       -1.0557030    -2.1491070    -0.2838310
  H       -1.1720770     2.0582400     0.6333130
  H       -2.9093790     0.6497060    -1.1365390
  H       -3.2903190     0.4352850     0.5730180
  H       -3.1351240    -0.9830860    -0.4783410
  H        1.2144190     2.3444380     0.1915340
units angstrom
no_reorient  #important for SAPT in psi4, default
symmetry c1  #important for SAPT in psi4, default
}

set PROPERTIES_ORIGIN ["COM"]
properties('MP2/aug-cc-pvtz', properties = ['dipole'])
--------------------------------------------------------------------------

    Molecular point group: c1
  Charge       = 0
  Multiplicity = 1
  Basis Set: AUG-CC-PVTZ
    Blend: AUG-CC-PVTZ
  Basis Set: (AUG-CC-PVTZ AUX)
    Blend: AUG-CC-PVTZ-JKFIT

    Orbital Energies [Eh]
    ---------------------

    Doubly Occupied:

       1A    -91.964022     2A    -11.274900     3A    -11.265739
       4A    -11.242212     5A    -11.240166     6A    -11.228126
       7A    -11.224940     8A     -8.966662     9A     -6.648143
      10A     -6.646865    11A     -6.646066    12A     -1.148728
      13A     -1.057666    14A     -1.013922    15A     -0.938488
      16A     -0.854240    17A     -0.794845    18A     -0.675922
      19A     -0.654310    20A     -0.616993    21A     -0.605174
      22A     -0.573250    23A     -0.568537    24A     -0.534758
      25A     -0.518270    26A     -0.486921    27A     -0.468947
      28A     -0.435918    29A     -0.357437    30A     -0.283170

  @DF-RHF Final Energy:  -629.44219028937118

   => Energetics <=

    Nuclear Repulsion Energy =            348.0502630316231034
    One-Electron Energy =               -1553.1142311875119049
    Two-Electron Energy =                 575.6217778665175047
    Total Energy =                       -629.4421902893711831
  Basis Set: (AUG-CC-PVTZ AUX)
    Blend: AUG-CC-PVTZ-RI
    Molecular point group: c1

    Geometry (in Angstrom), charge = 0, multiplicity = 1:

       Center              X                  Y                   Z               Mass
    ------------   -----------------  -----------------  -----------------  -----------------
         S            1.743288479264     0.062887078139    -0.326106475621    31.972071174400
         C           -1.339775520736    -0.064927921861     0.072556524379    12.000000000000
         C            0.793895479264    -1.279354921861     0.447445524379    12.000000000000
         C           -0.643837520736    -1.223426921861     0.022981524379    12.000000000000
         C           -0.654965520736     1.190789078139     0.360225524379    12.000000000000
         C           -2.806212520736     0.008351078139    -0.253412475621    12.000000000000
         C            0.732536779264     1.289417578139     0.114002524379    12.000000000000
         H            0.894677479264    -1.186786921861     1.536465524379     1.007825032230
         H            1.268326479264    -2.213752921861     0.137688524379     1.007825032230
         H           -1.132933520736    -2.150357921861    -0.270895475621     1.007825032230
         H           -1.249307520736     2.056989078139     0.646248524379     1.007825032230
         H           -2.986609520736     0.648455078139    -1.123603475621     1.007825032230
         H           -3.367549520736     0.434034078139     0.585953524379     1.007825032230
         H           -3.212354520736    -0.984336921861    -0.465405475621     1.007825032230
         H            1.137188479264     2.343187078139     0.204469524379     1.007825032230

  Basis Set: AUG-CC-PVTZ
    Blend: AUG-CC-PVTZ
  Basis Set: (AUG-CC-PVTZ AUX)
    Blend: AUG-CC-PVTZ-JKFIT
	 Reference Energy          =    -629.4421902893711831 [Eh]
	 Singles Energy            =      -0.0000000000000000 [Eh]
	 Same-Spin Energy          =      -0.3143255925894030 [Eh]
	 Opposite-Spin Energy      =      -1.0213666331581366 [Eh]
	 Correlation Energy        =      -1.3356922257475397 [Eh]
	 Total Energy              =    -630.7778825151186766 [Eh]

	 ================> DF-SCS-MP2 Energies <==================
	-----------------------------------------------------------
	 SCS Same-Spin Scale       =       0.3333333333333333 [-]
	 SCS Opposite-Spin Scale   =       1.2000000000000000 [-]
	 SCS Same-Spin Energy      =      -0.1047751975298010 [Eh]
	 SCS Opposite-Spin Energy  =      -1.2256399597897638 [Eh]
	 SCS Correlation Energy    =      -1.3304151573195648 [Eh]
	 SCS Total Energy          =    -630.7726054466907044 [Eh]
	-----------------------------------------------------------

  Dipole Moment: [D]
     X:    -0.8057      Y:    -0.3746      Z:     0.4873     Total:     1.0133

*** Psi4 exiting successfully. Buy a developer a beer!
