                               Psi4 1.4a3.dev225

  ==> Input File <==

--------------------------------------------------------------------------
#psi4
#
memory 32 gb

molecule  {
0 1
  S        1.6741798    -0.0457240    -0.3330467
  C       -1.2625450    -0.0636770     0.0596210
  C        0.8711260    -1.2781040     0.4345100
  C       -0.5666070    -1.2221760     0.0100460
  C       -0.5777350     1.1920400     0.3472900
  C       -2.7289820     0.0096020    -0.2663480
  C        0.7484780     1.3650420     0.1277540
  H        0.9719080    -1.1855360     1.5235300
  H        1.3455570    -2.2125020     0.1247530
  H       -1.0557030    -2.1491070    -0.2838310
  H       -1.1720770     2.0582400     0.6333130
  H       -2.9093790     0.6497060    -1.1365390
  H       -3.2903190     0.4352850     0.5730180
  H       -3.1351240    -0.9830860    -0.4783410
  H        1.2144190     2.3444380     0.1915340
units angstrom
no_reorient  #important for SAPT in psi4, default
symmetry c1  #important for SAPT in psi4, default
}

set PROPERTIES_ORIGIN ["COM"]
properties('MP2/aug-cc-pvtz', properties = ['dipole'])
--------------------------------------------------------------------------

    Molecular point group: c1
  Charge       = 0
  Multiplicity = 1
  Basis Set: AUG-CC-PVTZ
    Blend: AUG-CC-PVTZ
  Basis Set: (AUG-CC-PVTZ AUX)
    Blend: AUG-CC-PVTZ-JKFIT

    Orbital Energies [Eh]
    ---------------------

    Doubly Occupied:

       1A    -91.949086     2A    -11.266036     3A    -11.252431
       4A    -11.242933     5A    -11.238362     6A    -11.233359
       7A    -11.226632     8A     -8.953353     9A     -6.634898
      10A     -6.633861    11A     -6.632783    12A     -1.161738
      13A     -1.060513    14A     -1.029297    15A     -0.935648
      16A     -0.845924    17A     -0.807323    18A     -0.678310
      19A     -0.667944    20A     -0.623160    21A     -0.609335
      22A     -0.591834    23A     -0.570753    24A     -0.536984
      25A     -0.524761    26A     -0.490960    27A     -0.450474
      28A     -0.435606    29A     -0.342031    30A     -0.299059

  @DF-RHF Final Energy:  -629.44189043960910

   => Energetics <=

    Nuclear Repulsion Energy =            353.0793204359721358
    One-Electron Energy =               -1563.1916449860316334
    Two-Electron Energy =                 580.6704341104502873
    Total Energy =                       -629.4418904396090966
  Basis Set: (AUG-CC-PVTZ AUX)
    Blend: AUG-CC-PVTZ-RI
    Molecular point group: c1

    Geometry (in Angstrom), charge = 0, multiplicity = 1:

       Center              X                  Y                   Z               Mass
    ------------   -----------------  -----------------  -----------------  -----------------
         S            1.645275737929    -0.023589003468    -0.324680530373    31.972071174400
         C           -1.291449062071    -0.041542003468     0.067987169627    12.000000000000
         C            0.842221937929    -1.255969003468     0.442876169627    12.000000000000
         C           -0.595511062071    -1.200041003468     0.018412169627    12.000000000000
         C           -0.606639062071     1.214174996532     0.355656169627    12.000000000000
         C           -2.757886062071     0.031736996532    -0.257981830373    12.000000000000
         C            0.719573937929     1.387176996532     0.136120169627    12.000000000000
         H            0.943003937929    -1.163401003468     1.531896169627     1.007825032230
         H            1.316652937929    -2.190367003468     0.133119169627     1.007825032230
         H           -1.084607062071    -2.126972003468    -0.275464830373     1.007825032230
         H           -1.200981062071     2.080374996532     0.641679169627     1.007825032230
         H           -2.938283062071     0.671840996532    -1.128172830373     1.007825032230
         H           -3.319223062071     0.457419996532     0.581384169627     1.007825032230
         H           -3.164028062071    -0.960951003468    -0.469974830373     1.007825032230
         H            1.185514937929     2.366572996532     0.199900169627     1.007825032230

  Basis Set: AUG-CC-PVTZ
    Blend: AUG-CC-PVTZ
  Basis Set: (AUG-CC-PVTZ AUX)
    Blend: AUG-CC-PVTZ-JKFIT
	 Reference Energy          =    -629.4418904396090966 [Eh]
	 Singles Energy            =      -0.0000000000000000 [Eh]
	 Same-Spin Energy          =      -0.3137139689544517 [Eh]
	 Opposite-Spin Energy      =      -1.0191174062405808 [Eh]
	 Correlation Energy        =      -1.3328313751950325 [Eh]
	 Total Energy              =    -630.7747218148041384 [Eh]

	 ================> DF-SCS-MP2 Energies <==================
	-----------------------------------------------------------
	 SCS Same-Spin Scale       =       0.3333333333333333 [-]
	 SCS Opposite-Spin Scale   =       1.2000000000000000 [-]
	 SCS Same-Spin Energy      =      -0.1045713229848172 [Eh]
	 SCS Opposite-Spin Energy  =      -1.2229408874886969 [Eh]
	 SCS Correlation Energy    =      -1.3275122104735142 [Eh]
	 SCS Total Energy          =    -630.7694026500826112 [Eh]
	-----------------------------------------------------------

  Dipole Moment: [D]
     X:    -1.1208      Y:    -0.2764      Z:     0.5908     Total:     1.2968

*** Psi4 exiting successfully. Buy a developer a beer!
