                               Psi4 1.4a3.dev225

  ==> Input File <==

--------------------------------------------------------------------------
#psi4
#
memory 32 gb

molecule  {
0 1
  S        1.7969030     0.0448034    -0.3383969
  C       -1.2625450    -0.0636770     0.0596210
  C        0.8711260    -1.2781040     0.4345100
  C       -0.5666070    -1.2221760     0.0100460
  C       -0.5777350     1.1920400     0.3472900
  C       -2.7289820     0.0096020    -0.2663480
  C        0.7484780     1.3650420     0.1277540
  H        0.9719080    -1.1855360     1.5235300
  H        1.3455570    -2.2125020     0.1247530
  H       -1.0557030    -2.1491070    -0.2838310
  H       -1.1720770     2.0582400     0.6333130
  H       -2.9093790     0.6497060    -1.1365390
  H       -3.2903190     0.4352850     0.5730180
  H       -3.1351240    -0.9830860    -0.4783410
  H        1.2144190     2.3444380     0.1915340
units angstrom
no_reorient  #important for SAPT in psi4, default
symmetry c1  #important for SAPT in psi4, default
}

set PROPERTIES_ORIGIN ["COM"]
properties('MP2/aug-cc-pvtz', properties = ['dipole'])
--------------------------------------------------------------------------

    Molecular point group: c1
  Charge       = 0
  Multiplicity = 1
  Basis Set: AUG-CC-PVTZ
    Blend: AUG-CC-PVTZ
  Basis Set: (AUG-CC-PVTZ AUX)
    Blend: AUG-CC-PVTZ-JKFIT

    Orbital Energies [Eh]
    ---------------------

    Doubly Occupied:

       1A    -91.957859     2A    -11.267918     3A    -11.261998
       4A    -11.243884     5A    -11.238012     6A    -11.232233
       7A    -11.226738     8A     -8.958900     9A     -6.640169
      10A     -6.639252    11A     -6.638356    12A     -1.146933
      13A     -1.048562    14A     -1.024118    15A     -0.936158
      16A     -0.848543    17A     -0.804613    18A     -0.676373
      19A     -0.663731    20A     -0.620264    21A     -0.605066
      22A     -0.578736    23A     -0.569911    24A     -0.534673
      25A     -0.518791    26A     -0.480038    27A     -0.459148
      28A     -0.439617    29A     -0.352141    30A     -0.295951

  @DF-RHF Final Energy:  -629.45683877938825

   => Energetics <=

    Nuclear Repulsion Energy =            347.7729027997121420
    One-Electron Energy =               -1552.6421094643987999
    Two-Electron Energy =                 575.4123678852985222
    Total Energy =                       -629.4568387793882493
  Basis Set: (AUG-CC-PVTZ AUX)
    Blend: AUG-CC-PVTZ-RI
    Molecular point group: c1

    Geometry (in Angstrom), charge = 0, multiplicity = 1:

       Center              X                  Y                   Z               Mass
    ------------   -----------------  -----------------  -----------------  -----------------
         S            1.732976611046     0.041103996886    -0.328503908604    31.972071174400
         C           -1.326471388954    -0.067376403114     0.069513991396    12.000000000000
         C            0.807199611046    -1.281803403114     0.444402991396    12.000000000000
         C           -0.630533388954    -1.225875403114     0.019938991396    12.000000000000
         C           -0.641661388954     1.188340596886     0.357182991396    12.000000000000
         C           -2.792908388954     0.005902596886    -0.256455008604    12.000000000000
         C            0.684551611046     1.361342596886     0.137646991396    12.000000000000
         H            0.907981611046    -1.189235403114     1.533422991396     1.007825032230
         H            1.281630611046    -2.216201403114     0.134645991396     1.007825032230
         H           -1.119629388954    -2.152806403114    -0.273938008604     1.007825032230
         H           -1.236003388954     2.054540596886     0.643205991396     1.007825032230
         H           -2.973305388954     0.646006596886    -1.126646008604     1.007825032230
         H           -3.354245388954     0.431585596886     0.582910991396     1.007825032230
         H           -3.199050388954    -0.986785403114    -0.468448008604     1.007825032230
         H            1.150492611046     2.340738596886     0.201426991396     1.007825032230

  Basis Set: AUG-CC-PVTZ
    Blend: AUG-CC-PVTZ
  Basis Set: (AUG-CC-PVTZ AUX)
    Blend: AUG-CC-PVTZ-JKFIT
	 Reference Energy          =    -629.4568387793882493 [Eh]
	 Singles Energy            =      -0.0000000000000000 [Eh]
	 Same-Spin Energy          =      -0.3118856123271211 [Eh]
	 Opposite-Spin Energy      =      -1.0185169602787163 [Eh]
	 Correlation Energy        =      -1.3304025726058375 [Eh]
	 Total Energy              =    -630.7872413519941119 [Eh]

	 ================> DF-SCS-MP2 Energies <==================
	-----------------------------------------------------------
	 SCS Same-Spin Scale       =       0.3333333333333333 [-]
	 SCS Opposite-Spin Scale   =       1.2000000000000000 [-]
	 SCS Same-Spin Energy      =      -0.1039618707757070 [Eh]
	 SCS Opposite-Spin Energy  =      -1.2222203523344595 [Eh]
	 SCS Correlation Energy    =      -1.3261822231101665 [Eh]
	 SCS Total Energy          =    -630.7830210024984581 [Eh]
	-----------------------------------------------------------

  Dipole Moment: [D]
     X:    -1.1008      Y:    -0.2786      Z:     0.5512     Total:     1.2622

*** Psi4 exiting successfully. Buy a developer a beer!
