                               Psi4 1.4a3.dev225

  ==> Input File <==

--------------------------------------------------------------------------
#psi4
#
memory 32 gb

molecule  {
0 1
  S        1.8205190     0.0641380    -0.3390420
  C       -1.2625450    -0.0636770     0.0596210
  C        0.8711260    -1.2781040     0.4345100
  C       -0.5666070    -1.2221760     0.0100460
  C       -0.5777350     1.1920400     0.3472900
  C       -2.7289820     0.0096020    -0.2663480
  C        0.7484780     1.3650420     0.1277540
  H        0.9719080    -1.1855360     1.5235300
  H        1.3455570    -2.2125020     0.1247530
  H       -1.0646898    -2.1661387    -0.2892308
  H       -1.1720770     2.0582400     0.6333130
  H       -2.9093790     0.6497060    -1.1365390
  H       -3.2903190     0.4352850     0.5730180
  H       -3.1351240    -0.9830860    -0.4783410
  H        1.2144190     2.3444380     0.1915340
units angstrom
no_reorient  #important for SAPT in psi4, default
symmetry c1  #important for SAPT in psi4, default
}

set PROPERTIES_ORIGIN ["COM"]
properties('MP2/aug-cc-pvtz', properties = ['dipole'])
--------------------------------------------------------------------------

    Molecular point group: c1
  Charge       = 0
  Multiplicity = 1
  Basis Set: AUG-CC-PVTZ
    Blend: AUG-CC-PVTZ
  Basis Set: (AUG-CC-PVTZ AUX)
    Blend: AUG-CC-PVTZ-JKFIT

    Orbital Energies [Eh]
    ---------------------

    Doubly Occupied:

       1A    -91.959398     2A    -11.268362     3A    -11.264236
       4A    -11.244321     5A    -11.238073     6A    -11.234444
       7A    -11.226778     8A     -8.959947     9A     -6.641184
      10A     -6.640244    11A     -6.639385    12A     -1.144825
      13A     -1.046926    14A     -1.022412    15A     -0.936123
      16A     -0.848910    17A     -0.803025    18A     -0.674012
      19A     -0.663188    20A     -0.619832    21A     -0.604628
      22A     -0.575124    23A     -0.569541    24A     -0.534225
      25A     -0.517715    26A     -0.476989    27A     -0.460771
      28A     -0.439996    29A     -0.353715    30A     -0.295535

  @DF-RHF Final Energy:  -629.45641835515687

   => Energetics <=

    Nuclear Repulsion Energy =            346.6798064628379734
    One-Electron Energy =               -1550.4647217581909899
    Two-Electron Energy =                 574.3284969401962599
    Total Energy =                       -629.4564183551568703
  Basis Set: (AUG-CC-PVTZ AUX)
    Blend: AUG-CC-PVTZ-RI
    Molecular point group: c1

    Geometry (in Angstrom), charge = 0, multiplicity = 1:

       Center              X                  Y                   Z               Mass
    ------------   -----------------  -----------------  -----------------  -----------------
         S            1.749933999910     0.055074166160    -0.328916337447    31.972071174400
         C           -1.333130000090    -0.072740833840     0.069746662553    12.000000000000
         C            0.800540999910    -1.287167833840     0.444635662553    12.000000000000
         C           -0.637192000090    -1.231239833840     0.020171662553    12.000000000000
         C           -0.648320000090     1.182976166160     0.357415662553    12.000000000000
         C           -2.799567000090     0.000538166160    -0.256222337447    12.000000000000
         C            0.677892999910     1.355978166160     0.137879662553    12.000000000000
         H            0.901322999910    -1.194599833840     1.533655662553     1.007825032230
         H            1.274971999910    -2.221565833840     0.134878662553     1.007825032230
         H           -1.135274800090    -2.175202533840    -0.279105137447     1.007825032230
         H           -1.242662000090     2.049176166160     0.643438662553     1.007825032230
         H           -2.979964000090     0.640642166160    -1.126413337447     1.007825032230
         H           -3.360904000090     0.426221166160     0.583143662553     1.007825032230
         H           -3.205709000090    -0.992149833840    -0.468215337447     1.007825032230
         H            1.143833999910     2.335374166160     0.201659662553     1.007825032230

  Basis Set: AUG-CC-PVTZ
    Blend: AUG-CC-PVTZ
  Basis Set: (AUG-CC-PVTZ AUX)
    Blend: AUG-CC-PVTZ-JKFIT
	 Reference Energy          =    -629.4564183551568703 [Eh]
	 Singles Energy            =      -0.0000000000000000 [Eh]
	 Same-Spin Energy          =      -0.3117048643208173 [Eh]
	 Opposite-Spin Energy      =      -1.0187281538875563 [Eh]
	 Correlation Energy        =      -1.3304330182083737 [Eh]
	 Total Energy              =    -630.7868513733652662 [Eh]

	 ================> DF-SCS-MP2 Energies <==================
	-----------------------------------------------------------
	 SCS Same-Spin Scale       =       0.3333333333333333 [-]
	 SCS Opposite-Spin Scale   =       1.2000000000000000 [-]
	 SCS Same-Spin Energy      =      -0.1039016214402724 [Eh]
	 SCS Opposite-Spin Energy  =      -1.2224737846650675 [Eh]
	 SCS Correlation Energy    =      -1.3263754061053399 [Eh]
	 SCS Total Energy          =    -630.7827937612621554 [Eh]
	-----------------------------------------------------------

  Dipole Moment: [D]
     X:    -1.0940      Y:    -0.2785      Z:     0.5472     Total:     1.2545

*** Psi4 exiting successfully. Buy a developer a beer!
