                               Psi4 1.4a3.dev225

  ==> Input File <==

--------------------------------------------------------------------------
#psi4
#
memory 32 gb

molecule  {
0 1
  S        1.8205190     0.0641380    -0.3390420
  C       -1.2625450    -0.0636770     0.0596210
  C        0.8711260    -1.2781040     0.4345100
  C       -0.5666070    -1.2221760     0.0100460
  C       -0.5777350     1.1920400     0.3472900
  C       -2.7289820     0.0096020    -0.2663480
  C        0.7484780     1.3650420     0.1277540
  H        0.9719080    -1.1855360     1.5235300
  H        1.3455570    -2.2125020     0.1247530
  H       -1.0467162    -2.1320753    -0.2784312
  H       -1.1720770     2.0582400     0.6333130
  H       -2.9093790     0.6497060    -1.1365390
  H       -3.2903190     0.4352850     0.5730180
  H       -3.1351240    -0.9830860    -0.4783410
  H        1.2144190     2.3444380     0.1915340
units angstrom
no_reorient  #important for SAPT in psi4, default
symmetry c1  #important for SAPT in psi4, default
}

set PROPERTIES_ORIGIN ["COM"]
properties('MP2/aug-cc-pvtz', properties = ['dipole'])
--------------------------------------------------------------------------

    Molecular point group: c1
  Charge       = 0
  Multiplicity = 1
  Basis Set: AUG-CC-PVTZ
    Blend: AUG-CC-PVTZ
  Basis Set: (AUG-CC-PVTZ AUX)
    Blend: AUG-CC-PVTZ-JKFIT

    Orbital Energies [Eh]
    ---------------------

    Doubly Occupied:

       1A    -91.959141     2A    -11.268189     3A    -11.263809
       4A    -11.244011     5A    -11.237737     6A    -11.229761
       7A    -11.226836     8A     -8.959692     9A     -6.640930
      10A     -6.639990    11A     -6.639133    12A     -1.144883
      13A     -1.046967    14A     -1.022972    15A     -0.936445
      16A     -0.849409    17A     -0.804915    18A     -0.678581
      19A     -0.663033    20A     -0.619630    21A     -0.604438
      22A     -0.578239    23A     -0.569816    24A     -0.534458
      25A     -0.517647    26A     -0.478002    27A     -0.460568
      28A     -0.439960    29A     -0.353524    30A     -0.295333

  @DF-RHF Final Energy:  -629.45718130459318

   => Energetics <=

    Nuclear Repulsion Energy =            346.8852091069277321
    One-Electron Energy =               -1550.8686858937587658
    Two-Electron Energy =                 574.5262954822378560
    Total Energy =                       -629.4571813045931776
  Basis Set: (AUG-CC-PVTZ AUX)
    Blend: AUG-CC-PVTZ-RI
    Molecular point group: c1

    Geometry (in Angstrom), charge = 0, multiplicity = 1:

       Center              X                  Y                   Z               Mass
    ------------   -----------------  -----------------  -----------------  -----------------
         S            1.749772315640     0.054767743633    -0.329013486901    31.972071174400
         C           -1.333291684360    -0.073047256367     0.069649513099    12.000000000000
         C            0.800379315640    -1.287474256367     0.444538513099    12.000000000000
         C           -0.637353684360    -1.231546256367     0.020074513099    12.000000000000
         C           -0.648481684360     1.182669743633     0.357318513099    12.000000000000
         C           -2.799728684360     0.000231743633    -0.256319486901    12.000000000000
         C            0.677731315640     1.355671743633     0.137782513099    12.000000000000
         H            0.901161315640    -1.194906256367     1.533558513099     1.007825032230
         H            1.274810315640    -2.221872256367     0.134781513099     1.007825032230
         H           -1.117462884360    -2.141445556367    -0.268402686901     1.007825032230
         H           -1.242823684360     2.048869743633     0.643341513099     1.007825032230
         H           -2.980125684360     0.640335743633    -1.126510486901     1.007825032230
         H           -3.361065684360     0.425914743633     0.583046513099     1.007825032230
         H           -3.205870684360    -0.992456256367    -0.468312486901     1.007825032230
         H            1.143672315640     2.335067743633     0.201562513099     1.007825032230

  Basis Set: AUG-CC-PVTZ
    Blend: AUG-CC-PVTZ
  Basis Set: (AUG-CC-PVTZ AUX)
    Blend: AUG-CC-PVTZ-JKFIT
	 Reference Energy          =    -629.4571813045931776 [Eh]
	 Singles Energy            =      -0.0000000000000000 [Eh]
	 Same-Spin Energy          =      -0.3116142271473704 [Eh]
	 Opposite-Spin Energy      =      -1.0184481160478340 [Eh]
	 Correlation Energy        =      -1.3300623431952046 [Eh]
	 Total Energy              =    -630.7872436477883866 [Eh]

	 ================> DF-SCS-MP2 Energies <==================
	-----------------------------------------------------------
	 SCS Same-Spin Scale       =       0.3333333333333333 [-]
	 SCS Opposite-Spin Scale   =       1.2000000000000000 [-]
	 SCS Same-Spin Energy      =      -0.1038714090491235 [Eh]
	 SCS Opposite-Spin Energy  =      -1.2221377392574009 [Eh]
	 SCS Correlation Energy    =      -1.3260091483065244 [Eh]
	 SCS Total Energy          =    -630.7831904528997029 [Eh]
	-----------------------------------------------------------

  Dipole Moment: [D]
     X:    -1.1081      Y:    -0.2925      Z:     0.5440     Total:     1.2687

*** Psi4 exiting successfully. Buy a developer a beer!
