                               Psi4 1.4a3.dev225

  ==> Input File <==

--------------------------------------------------------------------------
#psi4
#
memory 32 gb

molecule  {
0 1
  S        1.8205190     0.0641380    -0.3390420
  C       -1.2625450    -0.0636770     0.0596210
  C        0.7666225    -1.4258499     0.5196579
  C       -0.5666070    -1.2221760     0.0100460
  C       -0.5777350     1.1920400     0.3472900
  C       -2.7289820     0.0096020    -0.2663480
  C        0.7484780     1.3650420     0.1277540
  H        0.9719080    -1.1855360     1.5235300
  H        1.3455570    -2.2125020     0.1247530
  H       -1.0557030    -2.1491070    -0.2838310
  H       -1.1720770     2.0582400     0.6333130
  H       -2.9093790     0.6497060    -1.1365390
  H       -3.2903190     0.4352850     0.5730180
  H       -3.1351240    -0.9830860    -0.4783410
  H        1.2144190     2.3444380     0.1915340
units angstrom
no_reorient  #important for SAPT in psi4, default
symmetry c1  #important for SAPT in psi4, default
}

set PROPERTIES_ORIGIN ["COM"]
properties('MP2/aug-cc-pvtz', properties = ['dipole'])
--------------------------------------------------------------------------

    Molecular point group: c1
  Charge       = 0
  Multiplicity = 1
  Basis Set: AUG-CC-PVTZ
    Blend: AUG-CC-PVTZ
  Basis Set: (AUG-CC-PVTZ AUX)
    Blend: AUG-CC-PVTZ-JKFIT

    Orbital Energies [Eh]
    ---------------------

    Doubly Occupied:

       1A    -91.952686     2A    -11.273263     3A    -11.268696
       4A    -11.249030     5A    -11.234540     6A    -11.230954
       7A    -11.228514     8A     -8.952020     9A     -6.633023
      10A     -6.632098    11A     -6.631343    12A     -1.141899
      13A     -1.038621    14A     -1.030405    15A     -0.931424
      16A     -0.859100    17A     -0.801416    18A     -0.686739
      19A     -0.665176    20A     -0.629870    21A     -0.618961
      22A     -0.574086    23A     -0.573486    24A     -0.534924
      25A     -0.519317    26A     -0.470987    27A     -0.450487
      28A     -0.433590    29A     -0.342930    30A     -0.292340

  @DF-RHF Final Energy:  -629.43542265401766

   => Energetics <=

    Nuclear Repulsion Energy =            344.2425471863523398
    One-Electron Energy =               -1545.5920929588460240
    Two-Electron Energy =                 571.9141231184760272
    Total Energy =                       -629.4354226540176569
  Basis Set: (AUG-CC-PVTZ AUX)
    Blend: AUG-CC-PVTZ-RI
    Molecular point group: c1

    Geometry (in Angstrom), charge = 0, multiplicity = 1:

       Center              X                  Y                   Z               Mass
    ------------   -----------------  -----------------  -----------------  -----------------
         S            1.761046496265     0.070745973860    -0.338085078163    31.972071174400
         C           -1.322017503735    -0.057069026140     0.060577921837    12.000000000000
         C            0.707149996265    -1.419241926140     0.520614821837    12.000000000000
         C           -0.626079503735    -1.215568026140     0.011002921837    12.000000000000
         C           -0.637207503735     1.198647973860     0.348246921837    12.000000000000
         C           -2.788454503735     0.016209973860    -0.265391078163    12.000000000000
         C            0.689005496265     1.371649973860     0.128710921837    12.000000000000
         H            0.912435496265    -1.178928026140     1.524486921837     1.007825032230
         H            1.286084496265    -2.205894026140     0.125709921837     1.007825032230
         H           -1.115175503735    -2.142499026140    -0.282874078163     1.007825032230
         H           -1.231549503735     2.064847973860     0.634269921837     1.007825032230
         H           -2.968851503735     0.656313973860    -1.135582078163     1.007825032230
         H           -3.349791503735     0.441892973860     0.573974921837     1.007825032230
         H           -3.194596503735    -0.976478026140    -0.477384078163     1.007825032230
         H            1.154946496265     2.351045973860     0.192490921837     1.007825032230

  Basis Set: AUG-CC-PVTZ
    Blend: AUG-CC-PVTZ
  Basis Set: (AUG-CC-PVTZ AUX)
    Blend: AUG-CC-PVTZ-JKFIT
	 Reference Energy          =    -629.4354226540176569 [Eh]
	 Singles Energy            =      -0.0000000000000000 [Eh]
	 Same-Spin Energy          =      -0.3127164912278574 [Eh]
	 Opposite-Spin Energy      =      -1.0207106429207951 [Eh]
	 Correlation Energy        =      -1.3334271341486525 [Eh]
	 Total Energy              =    -630.7688497881663352 [Eh]

	 ================> DF-SCS-MP2 Energies <==================
	-----------------------------------------------------------
	 SCS Same-Spin Scale       =       0.3333333333333333 [-]
	 SCS Opposite-Spin Scale   =       1.2000000000000000 [-]
	 SCS Same-Spin Energy      =      -0.1042388304092858 [Eh]
	 SCS Opposite-Spin Energy  =      -1.2248527715049540 [Eh]
	 SCS Correlation Energy    =      -1.3290916019142398 [Eh]
	 SCS Total Energy          =    -630.7645142559318856 [Eh]
	-----------------------------------------------------------

  Dipole Moment: [D]
     X:    -1.1873      Y:    -0.4418      Z:     0.6895     Total:     1.4423

*** Psi4 exiting successfully. Buy a developer a beer!
