                               Psi4 1.4a3.dev225

  ==> Input File <==

--------------------------------------------------------------------------
#psi4
#
memory 32 gb

molecule  {
0 1
  S        1.8205190     0.0641380    -0.3390420
  C       -1.2625450    -0.0636770     0.0596210
  C        0.8711260    -1.2781040     0.4345100
  C       -0.5666070    -1.2221760     0.0100460
  C       -0.5777350     1.1920400     0.3472900
  C       -2.7289820     0.0096020    -0.2663480
  C        0.7484780     1.3650420     0.1277540
  H        0.9719080    -1.1855360     1.5235300
  H        1.3368739    -2.1954005     0.1304222
  H       -1.0557030    -2.1491070    -0.2838310
  H       -1.1720770     2.0582400     0.6333130
  H       -2.9093790     0.6497060    -1.1365390
  H       -3.2903190     0.4352850     0.5730180
  H       -3.1351240    -0.9830860    -0.4783410
  H        1.2144190     2.3444380     0.1915340
units angstrom
no_reorient  #important for SAPT in psi4, default
symmetry c1  #important for SAPT in psi4, default
}

set PROPERTIES_ORIGIN ["COM"]
properties('MP2/aug-cc-pvtz', properties = ['dipole'])
--------------------------------------------------------------------------

    Molecular point group: c1
  Charge       = 0
  Multiplicity = 1
  Basis Set: AUG-CC-PVTZ
    Blend: AUG-CC-PVTZ
  Basis Set: (AUG-CC-PVTZ AUX)
    Blend: AUG-CC-PVTZ-JKFIT

    Orbital Energies [Eh]
    ---------------------

    Doubly Occupied:

       1A    -91.959130     2A    -11.268209     3A    -11.261694
       4A    -11.244057     5A    -11.237824     6A    -11.231979
       7A    -11.226738     8A     -8.959694     9A     -6.640934
      10A     -6.639993    11A     -6.639136    12A     -1.144919
      13A     -1.047051    14A     -1.023411    15A     -0.936192
      16A     -0.850657    17A     -0.803904    18A     -0.676167
      19A     -0.663679    20A     -0.619940    21A     -0.606336
      22A     -0.576577    23A     -0.570012    24A     -0.534361
      25A     -0.518139    26A     -0.477927    27A     -0.460787
      28A     -0.439919    29A     -0.353535    30A     -0.295357

  @DF-RHF Final Energy:  -629.45713560126205

   => Energetics <=

    Nuclear Repulsion Energy =            346.8872278742884419
    One-Electron Energy =               -1550.8722091703691603
    Two-Electron Energy =                 574.5278456948185521
    Total Energy =                       -629.4571356012620527
  Basis Set: (AUG-CC-PVTZ AUX)
    Blend: AUG-CC-PVTZ-RI
    Molecular point group: c1

    Geometry (in Angstrom), charge = 0, multiplicity = 1:

       Center              X                  Y                   Z               Mass
    ------------   -----------------  -----------------  -----------------  -----------------
         S            1.749931267930     0.054767115736    -0.329015910330    31.972071174400
         C           -1.333132732070    -0.073047884264     0.069647089670    12.000000000000
         C            0.800538267930    -1.287474884264     0.444536089670    12.000000000000
         C           -0.637194732070    -1.231546884264     0.020072089670    12.000000000000
         C           -0.648322732070     1.182669115736     0.357316089670    12.000000000000
         C           -2.799569732070     0.000231115736    -0.256321910330    12.000000000000
         C            0.677890267930     1.355671115736     0.137780089670    12.000000000000
         H            0.901320267930    -1.194906884264     1.533556089670     1.007825032230
         H            1.266286167930    -2.204771384264     0.140448289670     1.007825032230
         H           -1.126290732070    -2.158477884264    -0.273804910330     1.007825032230
         H           -1.242664732070     2.048869115736     0.643339089670     1.007825032230
         H           -2.979966732070     0.640335115736    -1.126512910330     1.007825032230
         H           -3.360906732070     0.425914115736     0.583044089670     1.007825032230
         H           -3.205711732070    -0.992456884264    -0.468314910330     1.007825032230
         H            1.143831267930     2.335067115736     0.201560089670     1.007825032230

  Basis Set: AUG-CC-PVTZ
    Blend: AUG-CC-PVTZ
  Basis Set: (AUG-CC-PVTZ AUX)
    Blend: AUG-CC-PVTZ-JKFIT
	 Reference Energy          =    -629.4571356012620527 [Eh]
	 Singles Energy            =      -0.0000000000000000 [Eh]
	 Same-Spin Energy          =      -0.3116411053773336 [Eh]
	 Opposite-Spin Energy      =      -1.0184479142427818 [Eh]
	 Correlation Energy        =      -1.3300890196201154 [Eh]
	 Total Energy              =    -630.7872246208821707 [Eh]

	 ================> DF-SCS-MP2 Energies <==================
	-----------------------------------------------------------
	 SCS Same-Spin Scale       =       0.3333333333333333 [-]
	 SCS Opposite-Spin Scale   =       1.2000000000000000 [-]
	 SCS Same-Spin Energy      =      -0.1038803684591112 [Eh]
	 SCS Opposite-Spin Energy  =      -1.2221374970913381 [Eh]
	 SCS Correlation Energy    =      -1.3260178655504493 [Eh]
	 SCS Total Energy          =    -630.7831534668124505 [Eh]
	-----------------------------------------------------------

  Dipole Moment: [D]
     X:    -1.0975      Y:    -0.2916      Z:     0.5468     Total:     1.2604

*** Psi4 exiting successfully. Buy a developer a beer!
