                               Psi4 1.4a3.dev225

  ==> Input File <==

--------------------------------------------------------------------------
#psi4
#
memory 32 gb

molecule  {
0 1
  S        1.8667643     0.1039901    -0.3399056
  C       -1.2625450    -0.0636770     0.0596210
  C        0.8711260    -1.2781040     0.4345100
  C       -0.5666070    -1.2221760     0.0100460
  C       -0.5777350     1.1920400     0.3472900
  C       -2.7289820     0.0096020    -0.2663480
  C        0.7484780     1.3650420     0.1277540
  H        0.9719080    -1.1855360     1.5235300
  H        1.3455570    -2.2125020     0.1247530
  H       -1.0557030    -2.1491070    -0.2838310
  H       -1.1720770     2.0582400     0.6333130
  H       -2.9093790     0.6497060    -1.1365390
  H       -3.2903190     0.4352850     0.5730180
  H       -3.1351240    -0.9830860    -0.4783410
  H        1.2144190     2.3444380     0.1915340
units angstrom
no_reorient  #important for SAPT in psi4, default
symmetry c1  #important for SAPT in psi4, default
}

set PROPERTIES_ORIGIN ["COM"]
properties('MP2/aug-cc-pvtz', properties = ['dipole'])
--------------------------------------------------------------------------

    Molecular point group: c1
  Charge       = 0
  Multiplicity = 1
  Basis Set: AUG-CC-PVTZ
    Blend: AUG-CC-PVTZ
  Basis Set: (AUG-CC-PVTZ AUX)
    Blend: AUG-CC-PVTZ-JKFIT

    Orbital Energies [Eh]
    ---------------------

    Doubly Occupied:

       1A    -91.961704     2A    -11.268964     3A    -11.268150
       4A    -11.244813     5A    -11.237649     6A    -11.231999
       7A    -11.226999     8A     -8.961405     9A     -6.642588
      10A     -6.641587    11A     -6.640796    12A     -1.141331
      13A     -1.044468    14A     -1.019549    15A     -0.936507
      16A     -0.850399    17A     -0.802482    18A     -0.676168
      19A     -0.662058    20A     -0.618758    21A     -0.603754
      22A     -0.573470    23A     -0.568970    24A     -0.533809
      25A     -0.515685    26A     -0.472908    27A     -0.462561
      28A     -0.440418    29A     -0.356054    30A     -0.294487

  @DF-RHF Final Energy:  -629.45534663039246

   => Energetics <=

    Nuclear Repulsion Energy =            344.8658774658778157
    One-Electron Energy =               -1546.8414704526667265
    Two-Electron Energy =                 572.5202463563963420
    Total Energy =                       -629.4553466303924552
  Basis Set: (AUG-CC-PVTZ AUX)
    Blend: AUG-CC-PVTZ-RI
    Molecular point group: c1

    Geometry (in Angstrom), charge = 0, multiplicity = 1:

       Center              X                  Y                   Z               Mass
    ------------   -----------------  -----------------  -----------------  -----------------
         S            1.782901132303     0.083400198964    -0.329582060961    31.972071174400
         C           -1.346408167697    -0.084266901036     0.069944539039    12.000000000000
         C            0.787262832303    -1.298693901036     0.444833539039    12.000000000000
         C           -0.650470167697    -1.242765901036     0.020369539039    12.000000000000
         C           -0.661598167697     1.171450098964     0.357613539039    12.000000000000
         C           -2.812845167697    -0.010987901036    -0.256024460961    12.000000000000
         C            0.664614832303     1.344452098964     0.138077539039    12.000000000000
         H            0.888044832303    -1.206125901036     1.533853539039     1.007825032230
         H            1.261693832303    -2.233091901036     0.135076539039     1.007825032230
         H           -1.139566167697    -2.169696901036    -0.273507460961     1.007825032230
         H           -1.255940167697     2.037650098964     0.643636539039     1.007825032230
         H           -2.993242167697     0.629116098964    -1.126215460961     1.007825032230
         H           -3.374182167697     0.414695098964     0.583341539039     1.007825032230
         H           -3.218987167697    -1.003675901036    -0.468017460961     1.007825032230
         H            1.130555832303     2.323848098964     0.201857539039     1.007825032230

  Basis Set: AUG-CC-PVTZ
    Blend: AUG-CC-PVTZ
  Basis Set: (AUG-CC-PVTZ AUX)
    Blend: AUG-CC-PVTZ-JKFIT
	 Reference Energy          =    -629.4553466303924552 [Eh]
	 Singles Energy            =      -0.0000000000000000 [Eh]
	 Same-Spin Energy          =      -0.3113236712221897 [Eh]
	 Opposite-Spin Energy      =      -1.0188647026073876 [Eh]
	 Correlation Energy        =      -1.3301883738295772 [Eh]
	 Total Energy              =    -630.7855350042220834 [Eh]

	 ================> DF-SCS-MP2 Energies <==================
	-----------------------------------------------------------
	 SCS Same-Spin Scale       =       0.3333333333333333 [-]
	 SCS Opposite-Spin Scale   =       1.2000000000000000 [-]
	 SCS Same-Spin Energy      =      -0.1037745570740632 [Eh]
	 SCS Opposite-Spin Energy  =      -1.2226376431288650 [Eh]
	 SCS Correlation Energy    =      -1.3264122002029282 [Eh]
	 SCS Total Energy          =    -630.7817588305954359 [Eh]
	-----------------------------------------------------------

  Dipole Moment: [D]
     X:    -1.1078      Y:    -0.3057      Z:     0.5365     Total:     1.2683

*** Psi4 exiting successfully. Buy a developer a beer!
