                               Psi4 1.4a3.dev225

  ==> Input File <==

--------------------------------------------------------------------------
#psi4
#
memory 32 gb

molecule  {
0 1
  S        1.8205190     0.0641380    -0.3390420
  C       -1.2625450    -0.0636770     0.0596210
  C        0.8711260    -1.2781040     0.4345100
  C       -0.5666070    -1.2221760     0.0100460
  C       -0.5777350     1.1920400     0.3472900
  C       -2.7289820     0.0096020    -0.2663480
  C        0.7484780     1.3650420     0.1277540
  H        0.9719080    -1.1855360     1.5235300
  H        1.3455570    -2.2125020     0.1247530
  H       -1.0557030    -2.1491070    -0.2838310
  H       -1.1720770     2.0582400     0.6333130
  H       -2.9060847     0.6380170    -1.1206483
  H       -3.2903190     0.4352850     0.5730180
  H       -3.1351240    -0.9830860    -0.4783410
  H        1.2144190     2.3444380     0.1915340
units angstrom
no_reorient  #important for SAPT in psi4, default
symmetry c1  #important for SAPT in psi4, default
}

set PROPERTIES_ORIGIN ["COM"]
properties('MP2/aug-cc-pvtz', properties = ['dipole'])
--------------------------------------------------------------------------

    Molecular point group: c1
  Charge       = 0
  Multiplicity = 1
  Basis Set: AUG-CC-PVTZ
    Blend: AUG-CC-PVTZ
  Basis Set: (AUG-CC-PVTZ AUX)
    Blend: AUG-CC-PVTZ-JKFIT

    Orbital Energies [Eh]
    ---------------------

    Doubly Occupied:

       1A    -91.959224     2A    -11.268251     3A    -11.263932
       4A    -11.243980     5A    -11.237868     6A    -11.231951
       7A    -11.224377     8A     -8.959774     9A     -6.641012
      10A     -6.640071    11A     -6.639214    12A     -1.144822
      13A     -1.047308    14A     -1.022616    15A     -0.937587
      16A     -0.849263    17A     -0.804056    18A     -0.676174
      19A     -0.663422    20A     -0.619907    21A     -0.604709
      22A     -0.577078    23A     -0.571841    24A     -0.534516
      25A     -0.517931    26A     -0.477447    27A     -0.460651
      28A     -0.440065    29A     -0.353668    30A     -0.295363

  @DF-RHF Final Energy:  -629.45707097647096

   => Energetics <=

    Nuclear Repulsion Energy =            346.8669077461264578
    One-Electron Energy =               -1550.8318056648820402
    Two-Electron Energy =                 574.5078269422845096
    Total Energy =                       -629.4570709764709591
  Basis Set: (AUG-CC-PVTZ AUX)
    Blend: AUG-CC-PVTZ-RI
    Molecular point group: c1

    Geometry (in Angstrom), charge = 0, multiplicity = 1:

       Center              X                  Y                   Z               Mass
    ------------   -----------------  -----------------  -----------------  -----------------
         S            1.749823523395     0.055026105085    -0.329107859397    31.972071174400
         C           -1.333240476605    -0.072788894915     0.069555140603    12.000000000000
         C            0.800430523395    -1.287215894915     0.444444140603    12.000000000000
         C           -0.637302476605    -1.231287894915     0.019980140603    12.000000000000
         C           -0.648430476605     1.182928105085     0.357224140603    12.000000000000
         C           -2.799677476605     0.000490105085    -0.256413859397    12.000000000000
         C            0.677782523395     1.355930105085     0.137688140603    12.000000000000
         H            0.901212523395    -1.194647894915     1.533464140603     1.007825032230
         H            1.274861523395    -2.221613894915     0.134687140603     1.007825032230
         H           -1.126398476605    -2.158218894915    -0.273896859397     1.007825032230
         H           -1.242772476605     2.049128105085     0.643247140603     1.007825032230
         H           -2.976780176605     0.628905105085    -1.110714159397     1.007825032230
         H           -3.361014476605     0.426173105085     0.582952140603     1.007825032230
         H           -3.205819476605    -0.992197894915    -0.468406859397     1.007825032230
         H            1.143723523395     2.335326105085     0.201468140603     1.007825032230

  Basis Set: AUG-CC-PVTZ
    Blend: AUG-CC-PVTZ
  Basis Set: (AUG-CC-PVTZ AUX)
    Blend: AUG-CC-PVTZ-JKFIT
	 Reference Energy          =    -629.4570709764709591 [Eh]
	 Singles Energy            =      -0.0000000000000000 [Eh]
	 Same-Spin Energy          =      -0.3116650276321156 [Eh]
	 Opposite-Spin Energy      =      -1.0184707083497553 [Eh]
	 Correlation Energy        =      -1.3301357359818708 [Eh]
	 Total Energy              =    -630.7872067124528712 [Eh]

	 ================> DF-SCS-MP2 Energies <==================
	-----------------------------------------------------------
	 SCS Same-Spin Scale       =       0.3333333333333333 [-]
	 SCS Opposite-Spin Scale   =       1.2000000000000000 [-]
	 SCS Same-Spin Energy      =      -0.1038883425440385 [Eh]
	 SCS Opposite-Spin Energy  =      -1.2221648500197062 [Eh]
	 SCS Correlation Energy    =      -1.3260531925637447 [Eh]
	 SCS Total Energy          =    -630.7831241690347497 [Eh]
	-----------------------------------------------------------

  Dipole Moment: [D]
     X:    -1.1082      Y:    -0.2806      Z:     0.5388     Total:     1.2638

*** Psi4 exiting successfully. Buy a developer a beer!
