                               Psi4 1.4a3.dev225

  ==> Input File <==

--------------------------------------------------------------------------
#psi4
#
memory 32 gb

molecule  {
0 1
  S        1.8205190     0.0641380    -0.3390420
  C       -1.2625450    -0.0636770     0.0596210
  C        0.8815763    -1.2633294     0.4259952
  C       -0.5666070    -1.2221760     0.0100460
  C       -0.5777350     1.1920400     0.3472900
  C       -2.7289820     0.0096020    -0.2663480
  C        0.7484780     1.3650420     0.1277540
  H        0.9719080    -1.1855360     1.5235300
  H        1.3455570    -2.2125020     0.1247530
  H       -1.0557030    -2.1491070    -0.2838310
  H       -1.1720770     2.0582400     0.6333130
  H       -2.9093790     0.6497060    -1.1365390
  H       -3.2903190     0.4352850     0.5730180
  H       -3.1351240    -0.9830860    -0.4783410
  H        1.2144190     2.3444380     0.1915340
units angstrom
no_reorient  #important for SAPT in psi4, default
symmetry c1  #important for SAPT in psi4, default
}

set PROPERTIES_ORIGIN ["COM"]
properties('MP2/aug-cc-pvtz', properties = ['dipole'])
--------------------------------------------------------------------------

    Molecular point group: c1
  Charge       = 0
  Multiplicity = 1
  Basis Set: AUG-CC-PVTZ
    Blend: AUG-CC-PVTZ
  Basis Set: (AUG-CC-PVTZ AUX)
    Blend: AUG-CC-PVTZ-JKFIT

    Orbital Energies [Eh]
    ---------------------

    Doubly Occupied:

       1A    -91.959492     2A    -11.268226     3A    -11.263851
       4A    -11.243814     5A    -11.238209     6A    -11.232432
       7A    -11.226694     8A     -8.960298     9A     -6.641564
      10A     -6.640619    11A     -6.639739    12A     -1.145473
      13A     -1.048336    14A     -1.021976    15A     -0.936721
      16A     -0.848036    17A     -0.804272    18A     -0.675715
      19A     -0.662916    20A     -0.619171    21A     -0.602787
      22A     -0.576930    23A     -0.569178    24A     -0.534695
      25A     -0.517611    26A     -0.479531    27A     -0.460452
      28A     -0.439341    29A     -0.354367    30A     -0.295467

  @DF-RHF Final Energy:  -629.45667770423665

   => Energetics <=

    Nuclear Repulsion Energy =            347.0482840435459480
    One-Electron Energy =               -1551.1941015432989843
    Two-Electron Energy =                 574.6891397955164393
    Total Energy =                       -629.4566777042366539
  Basis Set: (AUG-CC-PVTZ AUX)
    Blend: AUG-CC-PVTZ-RI
    Molecular point group: c1

    Geometry (in Angstrom), charge = 0, multiplicity = 1:

       Center              X                  Y                   Z               Mass
    ------------   -----------------  -----------------  -----------------  -----------------
         S            1.748733829281     0.053338451929    -0.328052894504    31.972071174400
         C           -1.334330170719    -0.074476548071     0.070610105496    12.000000000000
         C            0.809791129281    -1.274128948071     0.436984305496    12.000000000000
         C           -0.638392170719    -1.232975548071     0.021035105496    12.000000000000
         C           -0.649520170719     1.181240451929     0.358279105496    12.000000000000
         C           -2.800767170719    -0.001197548071    -0.255358894504    12.000000000000
         C            0.676692829281     1.354242451929     0.138743105496    12.000000000000
         H            0.900122829281    -1.196335548071     1.534519105496     1.007825032230
         H            1.273771829281    -2.223301548071     0.135742105496     1.007825032230
         H           -1.127488170719    -2.159906548071    -0.272841894504     1.007825032230
         H           -1.243862170719     2.047440451929     0.644302105496     1.007825032230
         H           -2.981164170719     0.638906451929    -1.125549894504     1.007825032230
         H           -3.362104170719     0.424485451929     0.584007105496     1.007825032230
         H           -3.206909170719    -0.993885548071    -0.467351894504     1.007825032230
         H            1.142633829281     2.333638451929     0.202523105496     1.007825032230

  Basis Set: AUG-CC-PVTZ
    Blend: AUG-CC-PVTZ
  Basis Set: (AUG-CC-PVTZ AUX)
    Blend: AUG-CC-PVTZ-JKFIT
	 Reference Energy          =    -629.4566777042366539 [Eh]
	 Singles Energy            =      -0.0000000000000000 [Eh]
	 Same-Spin Energy          =      -0.3117028076497489 [Eh]
	 Opposite-Spin Energy      =      -1.0185970813670124 [Eh]
	 Correlation Energy        =      -1.3302998890167614 [Eh]
	 Total Energy              =    -630.7869775932533685 [Eh]

	 ================> DF-SCS-MP2 Energies <==================
	-----------------------------------------------------------
	 SCS Same-Spin Scale       =       0.3333333333333333 [-]
	 SCS Opposite-Spin Scale   =       1.2000000000000000 [-]
	 SCS Same-Spin Energy      =      -0.1039009358832496 [Eh]
	 SCS Opposite-Spin Energy  =      -1.2223164976404148 [Eh]
	 SCS Correlation Energy    =      -1.3262174335236645 [Eh]
	 SCS Total Energy          =    -630.7828951377603062 [Eh]
	-----------------------------------------------------------

  Dipole Moment: [D]
     X:    -1.0961      Y:    -0.2710      Z:     0.5302     Total:     1.2474

*** Psi4 exiting successfully. Buy a developer a beer!
