                               Psi4 1.4a3.dev225

  ==> Input File <==

--------------------------------------------------------------------------
#psi4
#
memory 32 gb

molecule  {
0 1
  S        1.8205190     0.0641380    -0.3390420
  C       -1.2625450    -0.0636770     0.0596210
  C        0.8711260    -1.2781040     0.4345100
  C       -0.5666070    -1.2221760     0.0100460
  C       -0.5777350     1.1920400     0.3472900
  C       -2.7289820     0.0096020    -0.2663480
  C        0.7484780     1.3650420     0.1277540
  H        0.9719080    -1.1855360     1.5235300
  H        1.3021413    -2.1269943     0.1530992
  H       -1.0557030    -2.1491070    -0.2838310
  H       -1.1720770     2.0582400     0.6333130
  H       -2.9093790     0.6497060    -1.1365390
  H       -3.2903190     0.4352850     0.5730180
  H       -3.1351240    -0.9830860    -0.4783410
  H        1.2144190     2.3444380     0.1915340
units angstrom
no_reorient  #important for SAPT in psi4, default
symmetry c1  #important for SAPT in psi4, default
}

set PROPERTIES_ORIGIN ["COM"]
properties('MP2/aug-cc-pvtz', properties = ['dipole'])
--------------------------------------------------------------------------

    Molecular point group: c1
  Charge       = 0
  Multiplicity = 1
  Basis Set: AUG-CC-PVTZ
    Blend: AUG-CC-PVTZ
  Basis Set: (AUG-CC-PVTZ AUX)
    Blend: AUG-CC-PVTZ-JKFIT

    Orbital Energies [Eh]
    ---------------------

    Doubly Occupied:

       1A    -91.958687     2A    -11.268032     3A    -11.252195
       4A    -11.243727     5A    -11.237577     6A    -11.231499
       7A    -11.226514     8A     -8.959299     9A     -6.640548
      10A     -6.639606    11A     -6.638754    12A     -1.145479
      13A     -1.047938    14A     -1.026863    15A     -0.935928
      16A     -0.857688    17A     -0.803830    18A     -0.675919
      19A     -0.666742    20A     -0.622157    21A     -0.612371
      22A     -0.576265    23A     -0.570968    24A     -0.534484
      25A     -0.519730    26A     -0.479452    27A     -0.461120
      28A     -0.439718    29A     -0.353278    30A     -0.295131

  @DF-RHF Final Energy:  -629.45123607584082

   => Energetics <=

    Nuclear Repulsion Energy =            347.3362083209615889
    One-Electron Energy =               -1551.7318955426082994
    Two-Electron Energy =                 574.9444511458059424
    Total Energy =                       -629.4512360758408249
  Basis Set: (AUG-CC-PVTZ AUX)
    Blend: AUG-CC-PVTZ-RI
    Molecular point group: c1

    Geometry (in Angstrom), charge = 0, multiplicity = 1:

       Center              X                  Y                   Z               Mass
    ------------   -----------------  -----------------  -----------------  -----------------
         S            1.750243710348     0.054151757296    -0.329219904754    31.972071174400
         C           -1.332820289652    -0.073663242704     0.069443095246    12.000000000000
         C            0.800850710348    -1.288090242704     0.444332095246    12.000000000000
         C           -0.636882289652    -1.232162242704     0.019868095246    12.000000000000
         C           -0.648010289652     1.182053757296     0.357112095246    12.000000000000
         C           -2.799257289652    -0.000384242704    -0.256525904754    12.000000000000
         C            0.678202710348     1.355055757296     0.137576095246    12.000000000000
         H            0.901632710348    -1.195522242704     1.533352095246     1.007825032230
         H            1.231866010348    -2.136980542704     0.162921295246     1.007825032230
         H           -1.125978289652    -2.159093242704    -0.274008904754     1.007825032230
         H           -1.242352289652     2.048253757296     0.643135095246     1.007825032230
         H           -2.979654289652     0.639719757296    -1.126716904754     1.007825032230
         H           -3.360594289652     0.425298757296     0.582840095246     1.007825032230
         H           -3.205399289652    -0.993072242704    -0.468518904754     1.007825032230
         H            1.144143710348     2.334451757296     0.201356095246     1.007825032230

  Basis Set: AUG-CC-PVTZ
    Blend: AUG-CC-PVTZ
  Basis Set: (AUG-CC-PVTZ AUX)
    Blend: AUG-CC-PVTZ-JKFIT
	 Reference Energy          =    -629.4512360758408249 [Eh]
	 Singles Energy            =      -0.0000000000000000 [Eh]
	 Same-Spin Energy          =      -0.3115916743085380 [Eh]
	 Opposite-Spin Energy      =      -1.0180540038915131 [Eh]
	 Correlation Energy        =      -1.3296456782000510 [Eh]
	 Total Energy              =    -630.7808817540408199 [Eh]

	 ================> DF-SCS-MP2 Energies <==================
	-----------------------------------------------------------
	 SCS Same-Spin Scale       =       0.3333333333333333 [-]
	 SCS Opposite-Spin Scale   =       1.2000000000000000 [-]
	 SCS Same-Spin Energy      =      -0.1038638914361793 [Eh]
	 SCS Opposite-Spin Energy  =      -1.2216648046698158 [Eh]
	 SCS Correlation Energy    =      -1.3255286961059951 [Eh]
	 SCS Total Energy          =    -630.7767647719467732 [Eh]
	-----------------------------------------------------------

  Dipole Moment: [D]
     X:    -1.0856      Y:    -0.3085      Z:     0.5522     Total:     1.2564

*** Psi4 exiting successfully. Buy a developer a beer!
