                               Psi4 1.4a3.dev225

  ==> Input File <==

--------------------------------------------------------------------------
#psi4
#
memory 32 gb

molecule  {
0 1
  S        1.8205190     0.0641380    -0.3390420
  C       -1.2625450    -0.0636770     0.0596210
  C        0.8711260    -1.2781040     0.4345100
  C       -0.5666070    -1.2221760     0.0100460
  C       -0.5777350     1.1920400     0.3472900
  C       -2.7289820     0.0096020    -0.2663480
  C        0.7484780     1.3650420     0.1277540
  H        0.9719080    -1.1855360     1.5235300
  H        1.3455570    -2.2125020     0.1247530
  H       -1.0557030    -2.1491070    -0.2838310
  H       -1.1720770     2.0582400     0.6333130
  H       -2.9423216     0.7665964    -1.2954460
  H       -3.2903190     0.4352850     0.5730180
  H       -3.1351240    -0.9830860    -0.4783410
  H        1.2144190     2.3444380     0.1915340
units angstrom
no_reorient  #important for SAPT in psi4, default
symmetry c1  #important for SAPT in psi4, default
}

set PROPERTIES_ORIGIN ["COM"]
properties('MP2/aug-cc-pvtz', properties = ['dipole'])
--------------------------------------------------------------------------

    Molecular point group: c1
  Charge       = 0
  Multiplicity = 1
  Basis Set: AUG-CC-PVTZ
    Blend: AUG-CC-PVTZ
  Basis Set: (AUG-CC-PVTZ AUX)
    Blend: AUG-CC-PVTZ-JKFIT

    Orbital Energies [Eh]
    ---------------------

    Doubly Occupied:

       1A    -91.959938     2A    -11.268630     3A    -11.265253
       4A    -11.249466     5A    -11.246370     6A    -11.238452
       7A    -11.234615     8A     -8.960490     9A     -6.641727
      10A     -6.640786    11A     -6.639924    12A     -1.145659
      13A     -1.045383    14A     -1.023594    15A     -0.927725
      16A     -0.848657    17A     -0.803575    18A     -0.677323
      19A     -0.662019    20A     -0.620054    21A     -0.604174
      22A     -0.577369    23A     -0.551973    24A     -0.530986
      25A     -0.508507    26A     -0.478414    27A     -0.460960
      28A     -0.438550    29A     -0.353097    30A     -0.296338

  @DF-RHF Final Energy:  -629.43739470215769

   => Energetics <=

    Nuclear Repulsion Energy =            346.0248119322640150
    One-Electron Energy =               -1549.1243993242226225
    Two-Electron Energy =                 573.6621926898010315
    Total Energy =                       -629.4373947021576896
  Basis Set: (AUG-CC-PVTZ AUX)
    Blend: AUG-CC-PVTZ-RI
    Molecular point group: c1

    Geometry (in Angstrom), charge = 0, multiplicity = 1:

       Center              X                  Y                   Z               Mass
    ------------   -----------------  -----------------  -----------------  -----------------
         S            1.750149497975     0.053869449415    -0.327535439937    31.972071174400
         C           -1.332914502025    -0.073945550585     0.071127560063    12.000000000000
         C            0.800756497975    -1.288372550585     0.446016560063    12.000000000000
         C           -0.636976502025    -1.232444550585     0.021552560063    12.000000000000
         C           -0.648104502025     1.181771449415     0.358796560063    12.000000000000
         C           -2.799351502025    -0.000666550585    -0.254841439937    12.000000000000
         C            0.678108497975     1.354773449415     0.139260560063    12.000000000000
         H            0.901538497975    -1.195804550585     1.535036560063     1.007825032230
         H            1.275187497975    -2.222770550585     0.136259560063     1.007825032230
         H           -1.126072502025    -2.159375550585    -0.272324439937     1.007825032230
         H           -1.242446502025     2.047971449415     0.644819560063     1.007825032230
         H           -3.012691102025     0.756327849415    -1.283939439937     1.007825032230
         H           -3.360688502025     0.425016449415     0.584524560063     1.007825032230
         H           -3.205493502025    -0.993354550585    -0.466834439937     1.007825032230
         H            1.144049497975     2.334169449415     0.203040560063     1.007825032230

  Basis Set: AUG-CC-PVTZ
    Blend: AUG-CC-PVTZ
  Basis Set: (AUG-CC-PVTZ AUX)
    Blend: AUG-CC-PVTZ-JKFIT
	 Reference Energy          =    -629.4373947021576896 [Eh]
	 Singles Energy            =      -0.0000000000000000 [Eh]
	 Same-Spin Energy          =      -0.3116111801854816 [Eh]
	 Opposite-Spin Energy      =      -1.0200494249730832 [Eh]
	 Correlation Energy        =      -1.3316606051585649 [Eh]
	 Total Energy              =    -630.7690553073163073 [Eh]

	 ================> DF-SCS-MP2 Energies <==================
	-----------------------------------------------------------
	 SCS Same-Spin Scale       =       0.3333333333333333 [-]
	 SCS Opposite-Spin Scale   =       1.2000000000000000 [-]
	 SCS Same-Spin Energy      =      -0.1038703933951605 [Eh]
	 SCS Opposite-Spin Energy  =      -1.2240593099676997 [Eh]
	 SCS Correlation Energy    =      -1.3279297033628603 [Eh]
	 SCS Total Energy          =    -630.7653244055205732 [Eh]
	-----------------------------------------------------------

  Dipole Moment: [D]
     X:    -1.0029      Y:    -0.3587      Z:     0.6404     Total:     1.2429

*** Psi4 exiting successfully. Buy a developer a beer!
