                               Psi4 1.4a3.dev225

  ==> Input File <==

--------------------------------------------------------------------------
#psi4
#
memory 32 gb

molecule  {
0 1
  S        1.8205190     0.0641380    -0.3390420
  C       -1.2625450    -0.0636770     0.0596210
  C        0.8711260    -1.2781040     0.4345100
  C       -0.5666070    -1.2221760     0.0100460
  C       -0.5777350     1.1920400     0.3472900
  C       -2.7289820     0.0096020    -0.2663480
  C        0.7484780     1.3650420     0.1277540
  H        0.9719080    -1.1855360     1.5235300
  H        1.3455570    -2.2125020     0.1247530
  H       -1.1006370    -2.2342656    -0.3108299
  H       -1.1720770     2.0582400     0.6333130
  H       -2.9093790     0.6497060    -1.1365390
  H       -3.2903190     0.4352850     0.5730180
  H       -3.1351240    -0.9830860    -0.4783410
  H        1.2144190     2.3444380     0.1915340
units angstrom
no_reorient  #important for SAPT in psi4, default
symmetry c1  #important for SAPT in psi4, default
}

set PROPERTIES_ORIGIN ["COM"]
properties('MP2/aug-cc-pvtz', properties = ['dipole'])
--------------------------------------------------------------------------

    Molecular point group: c1
  Charge       = 0
  Multiplicity = 1
  Basis Set: AUG-CC-PVTZ
    Blend: AUG-CC-PVTZ
  Basis Set: (AUG-CC-PVTZ AUX)
    Blend: AUG-CC-PVTZ-JKFIT

    Orbital Energies [Eh]
    ---------------------

    Doubly Occupied:

       1A    -91.960001     2A    -11.268804     3A    -11.265194
       4A    -11.245327     5A    -11.243153     6A    -11.238833
       7A    -11.226696     8A     -8.960544     9A     -6.641779
      10A     -6.640837    11A     -6.639977    12A     -1.144940
      13A     -1.047026    14A     -1.021671    15A     -0.935730
      16A     -0.848414    17A     -0.799998    18A     -0.666371
      19A     -0.663372    20A     -0.620320    21A     -0.605073
      22A     -0.571125    23A     -0.566413    24A     -0.533651
      25A     -0.517844    26A     -0.474519    27A     -0.461216
      28A     -0.440035    29A     -0.354177    30A     -0.296050

  @DF-RHF Final Energy:  -629.44978122066391

   => Energetics <=

    Nuclear Repulsion Energy =            346.2952851495610957
    One-Electron Energy =               -1549.6919575679296486
    Two-Electron Energy =                 573.9468911977046446
    Total Energy =                       -629.4497812206639082
  Basis Set: (AUG-CC-PVTZ AUX)
    Blend: AUG-CC-PVTZ-RI
    Molecular point group: c1

    Geometry (in Angstrom), charge = 0, multiplicity = 1:

       Center              X                  Y                   Z               Mass
    ------------   -----------------  -----------------  -----------------  -----------------
         S            1.750257368448     0.055687012115    -0.328722039437    31.972071174400
         C           -1.332806631552    -0.072127987885     0.069940960563    12.000000000000
         C            0.800864368448    -1.286554987885     0.444829960563    12.000000000000
         C           -0.636868631552    -1.230626987885     0.020365960563    12.000000000000
         C           -0.647996631552     1.183589012115     0.357609960563    12.000000000000
         C           -2.799243631552     0.001151012115    -0.256028039437    12.000000000000
         C            0.678216368448     1.356591012115     0.138073960563    12.000000000000
         H            0.901646368448    -1.193986987885     1.533849960563     1.007825032230
         H            1.275295368448    -2.220952987885     0.135072960563     1.007825032230
         H           -1.170898631552    -2.242716587885    -0.300509939437     1.007825032230
         H           -1.242338631552     2.049789012115     0.643632960563     1.007825032230
         H           -2.979640631552     0.641255012115    -1.126219039437     1.007825032230
         H           -3.360580631552     0.426834012115     0.583337960563     1.007825032230
         H           -3.205385631552    -0.991536987885    -0.468021039437     1.007825032230
         H            1.144157368448     2.335987012115     0.201853960563     1.007825032230

  Basis Set: AUG-CC-PVTZ
    Blend: AUG-CC-PVTZ
  Basis Set: (AUG-CC-PVTZ AUX)
    Blend: AUG-CC-PVTZ-JKFIT
	 Reference Energy          =    -629.4497812206639082 [Eh]
	 Singles Energy            =      -0.0000000000000000 [Eh]
	 Same-Spin Energy          =      -0.3119150281081925 [Eh]
	 Opposite-Spin Energy      =      -1.0194664399925895 [Eh]
	 Correlation Energy        =      -1.3313814681007821 [Eh]
	 Total Energy              =    -630.7811626887646526 [Eh]

	 ================> DF-SCS-MP2 Energies <==================
	-----------------------------------------------------------
	 SCS Same-Spin Scale       =       0.3333333333333333 [-]
	 SCS Opposite-Spin Scale   =       1.2000000000000000 [-]
	 SCS Same-Spin Energy      =      -0.1039716760360642 [Eh]
	 SCS Opposite-Spin Energy  =      -1.2233597279911073 [Eh]
	 SCS Correlation Energy    =      -1.3273314040271713 [Eh]
	 SCS Total Energy          =    -630.7771126246910853 [Eh]
	-----------------------------------------------------------

  Dipole Moment: [D]
     X:    -1.0618      Y:    -0.2428      Z:     0.5549     Total:     1.2224

*** Psi4 exiting successfully. Buy a developer a beer!
