                               Psi4 1.4a3.dev225

  ==> Input File <==

--------------------------------------------------------------------------
#psi4
#
memory 32 gb

molecule  {
0 1
  S        1.9106004     0.1463144    -0.3452113
  C       -1.2625450    -0.0636770     0.0596210
  C        0.8711260    -1.2781040     0.4345100
  C       -0.5666070    -1.2221760     0.0100460
  C       -0.5777350     1.1920400     0.3472900
  C       -2.7289820     0.0096020    -0.2663480
  C        0.7484780     1.3650420     0.1277540
  H        0.9719080    -1.1855360     1.5235300
  H        1.3455570    -2.2125020     0.1247530
  H       -1.0557030    -2.1491070    -0.2838310
  H       -1.1720770     2.0582400     0.6333130
  H       -2.9093790     0.6497060    -1.1365390
  H       -3.2903190     0.4352850     0.5730180
  H       -3.1351240    -0.9830860    -0.4783410
  H        1.2144190     2.3444380     0.1915340
units angstrom
no_reorient  #important for SAPT in psi4, default
symmetry c1  #important for SAPT in psi4, default
}

set PROPERTIES_ORIGIN ["COM"]
properties('MP2/aug-cc-pvtz', properties = ['dipole'])
--------------------------------------------------------------------------

    Molecular point group: c1
  Charge       = 0
  Multiplicity = 1
  Basis Set: AUG-CC-PVTZ
    Blend: AUG-CC-PVTZ
  Basis Set: (AUG-CC-PVTZ AUX)
    Blend: AUG-CC-PVTZ-JKFIT

    Orbital Energies [Eh]
    ---------------------

    Doubly Occupied:

       1A    -91.963650     2A    -11.272585     3A    -11.269605
       4A    -11.245621     5A    -11.237373     6A    -11.232029
       7A    -11.227275     8A     -8.962638     9A     -6.643769
      10A     -6.642705    11A     -6.641965    12A     -1.138514
      13A     -1.042749    14A     -1.016276    15A     -0.936683
      16A     -0.851829    17A     -0.800828    18A     -0.676361
      19A     -0.661235    20A     -0.617848    21A     -0.603297
      22A     -0.571965    23A     -0.567297    24A     -0.533353
      25A     -0.514013    26A     -0.471203    27A     -0.460817
      28A     -0.440274    29A     -0.357661    30A     -0.293781

  @DF-RHF Final Energy:  -629.45104860529375

   => Energetics <=

    Nuclear Repulsion Energy =            343.0061220881327131
    One-Electron Energy =               -1543.1239482968885568
    Two-Electron Energy =                 570.6667776034620374
    Total Energy =                       -629.4510486052937495
  Basis Set: (AUG-CC-PVTZ AUX)
    Blend: AUG-CC-PVTZ-RI
    Molecular point group: c1

    Geometry (in Angstrom), charge = 0, multiplicity = 1:

       Center              X                  Y                   Z               Mass
    ------------   -----------------  -----------------  -----------------  -----------------
         S            1.814227436082     0.113646135055    -0.333373638450    31.972071174400
         C           -1.358917963918    -0.096345264945     0.071458661550    12.000000000000
         C            0.774753036082    -1.310772264945     0.446347661550    12.000000000000
         C           -0.662979963918    -1.254844264945     0.021883661550    12.000000000000
         C           -0.674107963918     1.159371735055     0.359127661550    12.000000000000
         C           -2.825354963918    -0.023066264945    -0.254510338450    12.000000000000
         C            0.652105036082     1.332373735055     0.139591661550    12.000000000000
         H            0.875535036082    -1.218204264945     1.535367661550     1.007825032230
         H            1.249184036082    -2.245170264945     0.136590661550     1.007825032230
         H           -1.152075963918    -2.181775264945    -0.271993338450     1.007825032230
         H           -1.268449963918     2.025571735055     0.645150661550     1.007825032230
         H           -3.005751963918     0.617037735055    -1.124701338450     1.007825032230
         H           -3.386691963918     0.402616735055     0.584855661550     1.007825032230
         H           -3.231496963918    -1.015754264945    -0.466503338450     1.007825032230
         H            1.118046036082     2.311769735055     0.203371661550     1.007825032230

  Basis Set: AUG-CC-PVTZ
    Blend: AUG-CC-PVTZ
  Basis Set: (AUG-CC-PVTZ AUX)
    Blend: AUG-CC-PVTZ-JKFIT
	 Reference Energy          =    -629.4510486052937495 [Eh]
	 Singles Energy            =      -0.0000000000000000 [Eh]
	 Same-Spin Energy          =      -0.3111367177134761 [Eh]
	 Opposite-Spin Energy      =      -1.0193661953491646 [Eh]
	 Correlation Energy        =      -1.3305029130626407 [Eh]
	 Total Energy              =    -630.7815515183564230 [Eh]

	 ================> DF-SCS-MP2 Energies <==================
	-----------------------------------------------------------
	 SCS Same-Spin Scale       =       0.3333333333333333 [-]
	 SCS Opposite-Spin Scale   =       1.2000000000000000 [-]
	 SCS Same-Spin Energy      =      -0.1037122392378254 [Eh]
	 SCS Opposite-Spin Energy  =      -1.2232394344189974 [Eh]
	 SCS Correlation Energy    =      -1.3269516736568228 [Eh]
	 SCS Total Energy          =    -630.7780002789505716 [Eh]
	-----------------------------------------------------------

  Dipole Moment: [D]
     X:    -1.1234      Y:    -0.3325      Z:     0.5317     Total:     1.2866

*** Psi4 exiting successfully. Buy a developer a beer!
