                               Psi4 1.4a3.dev225

  ==> Input File <==

--------------------------------------------------------------------------
#psi4
#
memory 32 gb

molecule  {
0 1
  S        1.7729676     0.0258709    -0.3376097
  C       -1.2625450    -0.0636770     0.0596210
  C        0.8711260    -1.2781040     0.4345100
  C       -0.5666070    -1.2221760     0.0100460
  C       -0.5777350     1.1920400     0.3472900
  C       -2.7289820     0.0096020    -0.2663480
  C        0.7484780     1.3650420     0.1277540
  H        0.9719080    -1.1855360     1.5235300
  H        1.3455570    -2.2125020     0.1247530
  H       -1.0557030    -2.1491070    -0.2838310
  H       -1.1720770     2.0582400     0.6333130
  H       -2.9093790     0.6497060    -1.1365390
  H       -3.2903190     0.4352850     0.5730180
  H       -3.1351240    -0.9830860    -0.4783410
  H        1.2144190     2.3444380     0.1915340
units angstrom
no_reorient  #important for SAPT in psi4, default
symmetry c1  #important for SAPT in psi4, default
}

set PROPERTIES_ORIGIN ["COM"]
properties('MP2/aug-cc-pvtz', properties = ['dipole'])
--------------------------------------------------------------------------

    Molecular point group: c1
  Charge       = 0
  Multiplicity = 1
  Basis Set: AUG-CC-PVTZ
    Blend: AUG-CC-PVTZ
  Basis Set: (AUG-CC-PVTZ AUX)
    Blend: AUG-CC-PVTZ-JKFIT

    Orbital Energies [Eh]
    ---------------------

    Doubly Occupied:

       1A    -91.956331     2A    -11.267559     3A    -11.260010
       4A    -11.243643     5A    -11.238111     6A    -11.232381
       7A    -11.226688     8A     -8.957910     9A     -6.639215
      10A     -6.638314    11A     -6.637377    12A     -1.149277
      13A     -1.050466    14A     -1.025438    15A     -0.936047
      16A     -0.847976    17A     -0.805247    18A     -0.676573
      19A     -0.664421    20A     -0.620827    21A     -0.605705
      22A     -0.581020    23A     -0.570079    24A     -0.535043
      25A     -0.519957    26A     -0.482501    27A     -0.457455
      28A     -0.439152    29A     -0.350489    30A     -0.296507

  @DF-RHF Final Energy:  -629.45580972848268

   => Energetics <=

    Nuclear Repulsion Energy =            348.7874229842429941
    One-Electron Energy =               -1554.6630337859721749
    Two-Electron Energy =                 576.4198010732465036
    Total Energy =                       -629.4558097284826772
  Basis Set: (AUG-CC-PVTZ AUX)
    Blend: AUG-CC-PVTZ-RI
    Molecular point group: c1

    Geometry (in Angstrom), charge = 0, multiplicity = 1:

       Center              X                  Y                   Z               Mass
    ------------   -----------------  -----------------  -----------------  -----------------
         S            1.715871813596     0.027574388953    -0.327941357047    31.972071174400
         C           -1.319640786404    -0.061973511047     0.069289342953    12.000000000000
         C            0.814030213596    -1.276400511047     0.444178342953    12.000000000000
         C           -0.623702786404    -1.220472511047     0.019714342953    12.000000000000
         C           -0.634830786404     1.193743488953     0.356958342953    12.000000000000
         C           -2.786077786404     0.011305488953    -0.256679657047    12.000000000000
         C            0.691382213596     1.366745488953     0.137422342953    12.000000000000
         H            0.914812213596    -1.183832511047     1.533198342953     1.007825032230
         H            1.288461213596    -2.210798511047     0.134421342953     1.007825032230
         H           -1.112798786404    -2.147403511047    -0.274162657047     1.007825032230
         H           -1.229172786404     2.059943488953     0.642981342953     1.007825032230
         H           -2.966474786404     0.651409488953    -1.126870657047     1.007825032230
         H           -3.347414786404     0.436988488953     0.582686342953     1.007825032230
         H           -3.192219786404    -0.981382511047    -0.468672657047     1.007825032230
         H            1.157323213596     2.346141488953     0.201202342953     1.007825032230

  Basis Set: AUG-CC-PVTZ
    Blend: AUG-CC-PVTZ
  Basis Set: (AUG-CC-PVTZ AUX)
    Blend: AUG-CC-PVTZ-JKFIT
	 Reference Energy          =    -629.4558097284826772 [Eh]
	 Singles Energy            =      -0.0000000000000000 [Eh]
	 Same-Spin Energy          =      -0.3121561724572071 [Eh]
	 Opposite-Spin Energy      =      -1.0185107340439412 [Eh]
	 Correlation Energy        =      -1.3306669065011483 [Eh]
	 Total Energy              =    -630.7864766349838419 [Eh]

	 ================> DF-SCS-MP2 Energies <==================
	-----------------------------------------------------------
	 SCS Same-Spin Scale       =       0.3333333333333333 [-]
	 SCS Opposite-Spin Scale   =       1.2000000000000000 [-]
	 SCS Same-Spin Energy      =      -0.1040520574857357 [Eh]
	 SCS Opposite-Spin Energy  =      -1.2222128808527295 [Eh]
	 SCS Correlation Energy    =      -1.3262649383384653 [Eh]
	 SCS Total Energy          =    -630.7820746668211314 [Eh]
	-----------------------------------------------------------

  Dipole Moment: [D]
     X:    -1.1021      Y:    -0.2735      Z:     0.5578     Total:     1.2651

*** Psi4 exiting successfully. Buy a developer a beer!
