                               Psi4 1.4a3.dev225

  ==> Input File <==

--------------------------------------------------------------------------
#psi4
#
memory 32 gb

molecule  {
0 1
  S        1.8205190     0.0641380    -0.3390420
  C       -1.2625450    -0.0636770     0.0596210
  C        0.8711260    -1.2781040     0.4345100
  C       -0.5666070    -1.2221760     0.0100460
  C       -0.5777350     1.1920400     0.3472900
  C       -2.7289820     0.0096020    -0.2663480
  C        0.7484780     1.3650420     0.1277540
  H        0.9719080    -1.1855360     1.5235300
  H        1.3455570    -2.2125020     0.1247530
  H       -1.0557030    -2.1491070    -0.2838310
  H       -1.1720770     2.0582400     0.6333130
  H       -2.9126733     0.6613950    -1.1524297
  H       -3.2903190     0.4352850     0.5730180
  H       -3.1351240    -0.9830860    -0.4783410
  H        1.2144190     2.3444380     0.1915340
units angstrom
no_reorient  #important for SAPT in psi4, default
symmetry c1  #important for SAPT in psi4, default
}

set PROPERTIES_ORIGIN ["COM"]
properties('MP2/aug-cc-pvtz', properties = ['dipole'])
--------------------------------------------------------------------------

    Molecular point group: c1
  Charge       = 0
  Multiplicity = 1
  Basis Set: AUG-CC-PVTZ
    Blend: AUG-CC-PVTZ
  Basis Set: (AUG-CC-PVTZ AUX)
    Blend: AUG-CC-PVTZ-JKFIT

    Orbital Energies [Eh]
    ---------------------

    Doubly Occupied:

       1A    -91.959312     2A    -11.268295     3A    -11.264111
       4A    -11.244344     5A    -11.237938     6A    -11.232304
       7A    -11.229208     8A     -8.959862     9A     -6.641100
      10A     -6.640160    11A     -6.639301    12A     -1.144876
      13A     -1.046617    14A     -1.022739    15A     -0.935051
      16A     -0.849021    17A     -0.803834    18A     -0.676323
      19A     -0.662844    20A     -0.619602    21A     -0.604386
      22A     -0.576527    23A     -0.567364    24A     -0.534139
      25A     -0.517368    26A     -0.477583    27A     -0.460687
      28A     -0.439886    29A     -0.353565    30A     -0.295499

  @DF-RHF Final Energy:  -629.45655485641760

   => Energetics <=

    Nuclear Repulsion Energy =            346.6978168657860806
    One-Electron Energy =               -1550.5010535408814576
    Two-Electron Energy =                 574.3466818186777800
    Total Energy =                       -629.4565548564175970
  Basis Set: (AUG-CC-PVTZ AUX)
    Blend: AUG-CC-PVTZ-RI
    Molecular point group: c1

    Geometry (in Angstrom), charge = 0, multiplicity = 1:

       Center              X                  Y                   Z               Mass
    ------------   -----------------  -----------------  -----------------  -----------------
         S            1.749882792155     0.054815804708    -0.328821964950    31.972071174400
         C           -1.333181207845    -0.072999195292     0.069841035050    12.000000000000
         C            0.800489792155    -1.287426195292     0.444730035050    12.000000000000
         C           -0.637243207845    -1.231498195292     0.020266035050    12.000000000000
         C           -0.648371207845     1.182717804708     0.357510035050    12.000000000000
         C           -2.799618207845     0.000279804708    -0.256127964950    12.000000000000
         C            0.677841792155     1.355719804708     0.137974035050    12.000000000000
         H            0.901271792155    -1.194858195292     1.533750035050     1.007825032230
         H            1.274920792155    -2.221824195292     0.134973035050     1.007825032230
         H           -1.126339207845    -2.158429195292    -0.273610964950     1.007825032230
         H           -1.242713207845     2.048917804708     0.643533035050     1.007825032230
         H           -2.983309507845     0.652072804708    -1.142209664950     1.007825032230
         H           -3.360955207845     0.425962804708     0.583238035050     1.007825032230
         H           -3.205760207845    -0.992408195292    -0.468120964950     1.007825032230
         H            1.143782792155     2.335115804708     0.201754035050     1.007825032230

  Basis Set: AUG-CC-PVTZ
    Blend: AUG-CC-PVTZ
  Basis Set: (AUG-CC-PVTZ AUX)
    Blend: AUG-CC-PVTZ-JKFIT
	 Reference Energy          =    -629.4565548564175970 [Eh]
	 Singles Energy            =      -0.0000000000000000 [Eh]
	 Same-Spin Energy          =      -0.3116522216771159 [Eh]
	 Opposite-Spin Energy      =      -1.0186983111702630 [Eh]
	 Correlation Energy        =      -1.3303505328473788 [Eh]
	 Total Energy              =    -630.7869053892650300 [Eh]

	 ================> DF-SCS-MP2 Energies <==================
	-----------------------------------------------------------
	 SCS Same-Spin Scale       =       0.3333333333333333 [-]
	 SCS Opposite-Spin Scale   =       1.2000000000000000 [-]
	 SCS Same-Spin Energy      =      -0.1038840738923719 [Eh]
	 SCS Opposite-Spin Energy  =      -1.2224379734043156 [Eh]
	 SCS Correlation Energy    =      -1.3263220472966875 [Eh]
	 SCS Total Energy          =    -630.7828769037142820 [Eh]
	-----------------------------------------------------------

  Dipole Moment: [D]
     X:    -1.0937      Y:    -0.2914      Z:     0.5527     Total:     1.2596

*** Psi4 exiting successfully. Buy a developer a beer!
