                               Psi4 1.4a3.dev225

  ==> Input File <==

--------------------------------------------------------------------------
#psi4
#
memory 32 gb

molecule  {
0 1
  S        1.8205190     0.0641380    -0.3390420
  C       -1.2625450    -0.0636770     0.0596210
  C        0.8711260    -1.2781040     0.4345100
  C       -0.4636858    -1.3935046     0.0027144
  C       -0.5777350     1.1920400     0.3472900
  C       -2.7289820     0.0096020    -0.2663480
  C        0.7484780     1.3650420     0.1277540
  H        0.9719080    -1.1855360     1.5235300
  H        1.3455570    -2.2125020     0.1247530
  H       -1.0557030    -2.1491070    -0.2838310
  H       -1.1720770     2.0582400     0.6333130
  H       -2.9093790     0.6497060    -1.1365390
  H       -3.2903190     0.4352850     0.5730180
  H       -3.1351240    -0.9830860    -0.4783410
  H        1.2144190     2.3444380     0.1915340
units angstrom
no_reorient  #important for SAPT in psi4, default
symmetry c1  #important for SAPT in psi4, default
}

set PROPERTIES_ORIGIN ["COM"]
properties('MP2/aug-cc-pvtz', properties = ['dipole'])
--------------------------------------------------------------------------

    Molecular point group: c1
  Charge       = 0
  Multiplicity = 1
  Basis Set: AUG-CC-PVTZ
    Blend: AUG-CC-PVTZ
  Basis Set: (AUG-CC-PVTZ AUX)
    Blend: AUG-CC-PVTZ-JKFIT

    Orbital Energies [Eh]
    ---------------------

    Doubly Occupied:

       1A    -91.963213     2A    -11.273695     3A    -11.269627
       4A    -11.259816     5A    -11.240686     6A    -11.238703
       7A    -11.229884     8A     -8.963576     9A     -6.644749
      10A     -6.643795    11A     -6.642974    12A     -1.139174
      13A     -1.044547    14A     -1.031684    15A     -0.936569
      16A     -0.833364    17A     -0.814163    18A     -0.686406
      19A     -0.663967    20A     -0.625298    21A     -0.605968
      22A     -0.586829    23A     -0.570986    24A     -0.537355
      25A     -0.518009    26A     -0.473153    27A     -0.451732
      28A     -0.441648    29A     -0.342672    30A     -0.276000

  @DF-RHF Final Energy:  -629.39967111486487

   => Energetics <=

    Nuclear Repulsion Energy =            344.7562118907935087
    One-Electron Energy =               -1546.4112839135902959
    Two-Electron Energy =                 572.2554009079318575
    Total Energy =                       -629.3996711148648728
  Basis Set: (AUG-CC-PVTZ AUX)
    Blend: AUG-CC-PVTZ-RI
    Molecular point group: c1

    Geometry (in Angstrom), charge = 0, multiplicity = 1:

       Center              X                  Y                   Z               Mass
    ------------   -----------------  -----------------  -----------------  -----------------
         S            1.738829298962     0.073271909773    -0.328179626700    31.972071174400
         C           -1.344234701038    -0.054543090227     0.070483373300    12.000000000000
         C            0.789436298962    -1.268970090227     0.445372373300    12.000000000000
         C           -0.545375501038    -1.384370690227     0.013576773300    12.000000000000
         C           -0.659424701038     1.201173909773     0.358152373300    12.000000000000
         C           -2.810671701038     0.018735909773    -0.255485626700    12.000000000000
         C            0.666788298962     1.374175909773     0.138616373300    12.000000000000
         H            0.890218298962    -1.176402090227     1.534392373300     1.007825032230
         H            1.263867298962    -2.203368090227     0.135615373300     1.007825032230
         H           -1.137392701038    -2.139973090227    -0.272968626700     1.007825032230
         H           -1.253766701038     2.067373909773     0.644175373300     1.007825032230
         H           -2.991068701038     0.658839909773    -1.125676626700     1.007825032230
         H           -3.372008701038     0.444418909773     0.583880373300     1.007825032230
         H           -3.216813701038    -0.973952090227    -0.467478626700     1.007825032230
         H            1.132729298962     2.353571909773     0.202396373300     1.007825032230

  Basis Set: AUG-CC-PVTZ
    Blend: AUG-CC-PVTZ
  Basis Set: (AUG-CC-PVTZ AUX)
    Blend: AUG-CC-PVTZ-JKFIT
	 Reference Energy          =    -629.3996711148648728 [Eh]
	 Singles Energy            =      -0.0000000000000000 [Eh]
	 Same-Spin Energy          =      -0.3170024645466153 [Eh]
	 Opposite-Spin Energy      =      -1.0274855210986547 [Eh]
	 Correlation Energy        =      -1.3444879856452698 [Eh]
	 Total Energy              =    -630.7441591005101600 [Eh]

	 ================> DF-SCS-MP2 Energies <==================
	-----------------------------------------------------------
	 SCS Same-Spin Scale       =       0.3333333333333333 [-]
	 SCS Opposite-Spin Scale   =       1.2000000000000000 [-]
	 SCS Same-Spin Energy      =      -0.1056674881822051 [Eh]
	 SCS Opposite-Spin Energy  =      -1.2329826253183855 [Eh]
	 SCS Correlation Energy    =      -1.3386501135005906 [Eh]
	 SCS Total Energy          =    -630.7383212283654075 [Eh]
	-----------------------------------------------------------

  Dipole Moment: [D]
     X:    -1.0651      Y:    -0.1982      Z:     0.5303     Total:     1.2062

*** Psi4 exiting successfully. Buy a developer a beer!
