                               Psi4 1.4a3.dev225

  ==> Input File <==

--------------------------------------------------------------------------
#psi4
#
memory 32 gb

molecule  {
0 1
  S        1.7971649     0.0445692    -0.3371429
  C       -1.2625450    -0.0636770     0.0596210
  C        0.8711260    -1.2781040     0.4345100
  C       -0.5666070    -1.2221760     0.0100460
  C       -0.5777350     1.1920400     0.3472900
  C       -2.7289820     0.0096020    -0.2663480
  C        0.7484780     1.3650420     0.1277540
  H        0.9719080    -1.1855360     1.5235300
  H        1.3455570    -2.2125020     0.1247530
  H       -1.0557030    -2.1491070    -0.2838310
  H       -1.1720770     2.0582400     0.6333130
  H       -2.9093790     0.6497060    -1.1365390
  H       -3.2903190     0.4352850     0.5730180
  H       -3.1351240    -0.9830860    -0.4783410
  H        1.2144190     2.3444380     0.1915340
units angstrom
no_reorient  #important for SAPT in psi4, default
symmetry c1  #important for SAPT in psi4, default
}

set PROPERTIES_ORIGIN ["COM"]
properties('MP2/aug-cc-pvtz', properties = ['dipole'])
--------------------------------------------------------------------------

    Molecular point group: c1
  Charge       = 0
  Multiplicity = 1
  Basis Set: AUG-CC-PVTZ
    Blend: AUG-CC-PVTZ
  Basis Set: (AUG-CC-PVTZ AUX)
    Blend: AUG-CC-PVTZ-JKFIT

    Orbital Energies [Eh]
    ---------------------

    Doubly Occupied:

       1A    -91.957839     2A    -11.267931     3A    -11.261952
       4A    -11.243893     5A    -11.238007     6A    -11.232229
       7A    -11.226741     8A     -8.958891     9A     -6.640161
      10A     -6.639245    11A     -6.638348    12A     -1.146967
      13A     -1.048616    14A     -1.024141    15A     -0.936177
      16A     -0.848533    17A     -0.804634    18A     -0.676352
      19A     -0.663739    20A     -0.620306    21A     -0.605094
      22A     -0.578749    23A     -0.569919    24A     -0.534696
      25A     -0.518814    26A     -0.480072    27A     -0.459110
      28A     -0.439625    29A     -0.352188    30A     -0.295910

  @DF-RHF Final Energy:  -629.45683519554893

   => Energetics <=

    Nuclear Repulsion Energy =            347.7830478878422014
    One-Electron Energy =               -1552.6620061889489079
    Two-Electron Energy =                 575.4221231055577164
    Total Energy =                       -629.4568351955489334
  Basis Set: (AUG-CC-PVTZ AUX)
    Blend: AUG-CC-PVTZ-RI
    Molecular point group: c1

    Geometry (in Angstrom), charge = 0, multiplicity = 1:

       Center              X                  Y                   Z               Mass
    ------------   -----------------  -----------------  -----------------  -----------------
         S            1.733163770920     0.040936632080    -0.327607770833    31.972071174400
         C           -1.326546129080    -0.067309567920     0.069156129167    12.000000000000
         C            0.807124870920    -1.281736567920     0.444045129167    12.000000000000
         C           -0.630608129080    -1.225808567920     0.019581129167    12.000000000000
         C           -0.641736129080     1.188407432080     0.356825129167    12.000000000000
         C           -2.792983129080     0.005969432080    -0.256812870833    12.000000000000
         C            0.684476870920     1.361409432080     0.137289129167    12.000000000000
         H            0.907906870920    -1.189168567920     1.533065129167     1.007825032230
         H            1.281555870920    -2.216134567920     0.134288129167     1.007825032230
         H           -1.119704129080    -2.152739567920    -0.274295870833     1.007825032230
         H           -1.236078129080     2.054607432080     0.642848129167     1.007825032230
         H           -2.973380129080     0.646073432080    -1.127003870833     1.007825032230
         H           -3.354320129080     0.431652432080     0.582553129167     1.007825032230
         H           -3.199125129080    -0.986718567920    -0.468805870833     1.007825032230
         H            1.150417870920     2.340805432080     0.201069129167     1.007825032230

  Basis Set: AUG-CC-PVTZ
    Blend: AUG-CC-PVTZ
  Basis Set: (AUG-CC-PVTZ AUX)
    Blend: AUG-CC-PVTZ-JKFIT
	 Reference Energy          =    -629.4568351955489334 [Eh]
	 Singles Energy            =      -0.0000000000000000 [Eh]
	 Same-Spin Energy          =      -0.3118872305619140 [Eh]
	 Opposite-Spin Energy      =      -1.0185124147399789 [Eh]
	 Correlation Energy        =      -1.3303996453018929 [Eh]
	 Total Energy              =    -630.7872348408508287 [Eh]

	 ================> DF-SCS-MP2 Energies <==================
	-----------------------------------------------------------
	 SCS Same-Spin Scale       =       0.3333333333333333 [-]
	 SCS Opposite-Spin Scale   =       1.2000000000000000 [-]
	 SCS Same-Spin Energy      =      -0.1039624101873047 [Eh]
	 SCS Opposite-Spin Energy  =      -1.2222148976879745 [Eh]
	 SCS Correlation Energy    =      -1.3261773078752792 [Eh]
	 SCS Total Energy          =    -630.7830125034241746 [Eh]
	-----------------------------------------------------------

  Dipole Moment: [D]
     X:    -1.1008      Y:    -0.2787      Z:     0.5511     Total:     1.2622

*** Psi4 exiting successfully. Buy a developer a beer!
