                               Psi4 1.4a3.dev225

  ==> Input File <==

--------------------------------------------------------------------------
#psi4
#
memory 32 gb

molecule  {
0 1
  S        1.8205190     0.0641380    -0.3390420
  C       -1.2625450    -0.0636770     0.0596210
  C        0.8711260    -1.2781040     0.4345100
  C       -0.5666070    -1.2221760     0.0100460
  C       -0.5777350     1.1920400     0.3472900
  C       -2.7289820     0.0096020    -0.2663480
  C        0.7484780     1.3650420     0.1277540
  H        0.9719080    -1.1855360     1.5235300
  H        1.3455570    -2.2125020     0.1247530
  H       -1.0557030    -2.1491070    -0.2838310
  H       -1.1720770     2.0582400     0.6333130
  H       -2.8929077     0.5912608    -1.0570855
  H       -3.2903190     0.4352850     0.5730180
  H       -3.1351240    -0.9830860    -0.4783410
  H        1.2144190     2.3444380     0.1915340
units angstrom
no_reorient  #important for SAPT in psi4, default
symmetry c1  #important for SAPT in psi4, default
}

set PROPERTIES_ORIGIN ["COM"]
properties('MP2/aug-cc-pvtz', properties = ['dipole'])
--------------------------------------------------------------------------

    Molecular point group: c1
  Charge       = 0
  Multiplicity = 1
  Basis Set: AUG-CC-PVTZ
    Blend: AUG-CC-PVTZ
  Basis Set: (AUG-CC-PVTZ AUX)
    Blend: AUG-CC-PVTZ-JKFIT

    Orbital Energies [Eh]
    ---------------------

    Doubly Occupied:

       1A    -91.959098     2A    -11.268189     3A    -11.263648
       4A    -11.243360     5A    -11.237772     6A    -11.231409
       7A    -11.214474     8A     -8.959646     9A     -6.640884
      10A     -6.639943    11A     -6.639087    12A     -1.144860
      13A     -1.049341    14A     -1.022437    15A     -0.943822
      16A     -0.849903    17A     -0.804669    18A     -0.675947
      19A     -0.665235    20A     -0.621345    21A     -0.605856
      22A     -0.583834    23A     -0.574800    24A     -0.534957
      25A     -0.518539    26A     -0.477231    27A     -0.460608
      28A     -0.440371    29A     -0.353893    30A     -0.295143

  @DF-RHF Final Energy:  -629.45102308124183

   => Energetics <=

    Nuclear Repulsion Energy =            347.2322182269995210
    One-Electron Energy =               -1551.5258843752899338
    Two-Electron Energy =                 574.8426430670485843
    Total Energy =                       -629.4510230812418285
  Basis Set: (AUG-CC-PVTZ AUX)
    Blend: AUG-CC-PVTZ-RI
    Molecular point group: c1

    Geometry (in Angstrom), charge = 0, multiplicity = 1:

       Center              X                  Y                   Z               Mass
    ------------   -----------------  -----------------  -----------------  -----------------
         S            1.749704987675     0.055446707637    -0.329679648292    31.972071174400
         C           -1.333359012325    -0.072368292363     0.068983351708    12.000000000000
         C            0.800311987675    -1.286795292363     0.443872351708    12.000000000000
         C           -0.637421012325    -1.230867292363     0.019408351708    12.000000000000
         C           -0.648549012325     1.183348707637     0.356652351708    12.000000000000
         C           -2.799796012325     0.000910707637    -0.256985648292    12.000000000000
         C            0.677663987675     1.356350707637     0.137116351708    12.000000000000
         H            0.901093987675    -1.194227292363     1.532892351708     1.007825032230
         H            1.274742987675    -2.221193292363     0.134115351708     1.007825032230
         H           -1.126517012325    -2.157798292363    -0.274468648292     1.007825032230
         H           -1.242891012325     2.049548707637     0.642675351708     1.007825032230
         H           -2.963721712325     0.582569507637    -1.047723148292     1.007825032230
         H           -3.361133012325     0.426593707637     0.582380351708     1.007825032230
         H           -3.205938012325    -0.991777292363    -0.468978648292     1.007825032230
         H            1.143604987675     2.335746707637     0.200896351708     1.007825032230

  Basis Set: AUG-CC-PVTZ
    Blend: AUG-CC-PVTZ
  Basis Set: (AUG-CC-PVTZ AUX)
    Blend: AUG-CC-PVTZ-JKFIT
	 Reference Energy          =    -629.4510230812418285 [Eh]
	 Singles Energy            =      -0.0000000000000000 [Eh]
	 Same-Spin Energy          =      -0.3117084820164167 [Eh]
	 Opposite-Spin Energy      =      -1.0181385940303846 [Eh]
	 Correlation Energy        =      -1.3298470760468013 [Eh]
	 Total Energy              =    -630.7808701572886321 [Eh]

	 ================> DF-SCS-MP2 Energies <==================
	-----------------------------------------------------------
	 SCS Same-Spin Scale       =       0.3333333333333333 [-]
	 SCS Opposite-Spin Scale   =       1.2000000000000000 [-]
	 SCS Same-Spin Energy      =      -0.1039028273388055 [Eh]
	 SCS Opposite-Spin Energy  =      -1.2217663128364615 [Eh]
	 SCS Correlation Energy    =      -1.3256691401752672 [Eh]
	 SCS Total Energy          =    -630.7766922214170791 [Eh]
	-----------------------------------------------------------

  Dipole Moment: [D]
     X:    -1.1314      Y:    -0.2638      Z:     0.5171     Total:     1.2717

*** Psi4 exiting successfully. Buy a developer a beer!
