                               Psi4 1.4a3.dev225

  ==> Input File <==

--------------------------------------------------------------------------
#psi4
#
memory 32 gb

molecule  {
0 1
  S        1.8205190     0.0641380    -0.3390420
  C       -1.2625450    -0.0636770     0.0596210
  C        0.8450001    -1.3150405     0.4557970
  C       -0.5666070    -1.2221760     0.0100460
  C       -0.5777350     1.1920400     0.3472900
  C       -2.7289820     0.0096020    -0.2663480
  C        0.7484780     1.3650420     0.1277540
  H        0.9719080    -1.1855360     1.5235300
  H        1.3455570    -2.2125020     0.1247530
  H       -1.0557030    -2.1491070    -0.2838310
  H       -1.1720770     2.0582400     0.6333130
  H       -2.9093790     0.6497060    -1.1365390
  H       -3.2903190     0.4352850     0.5730180
  H       -3.1351240    -0.9830860    -0.4783410
  H        1.2144190     2.3444380     0.1915340
units angstrom
no_reorient  #important for SAPT in psi4, default
symmetry c1  #important for SAPT in psi4, default
}

set PROPERTIES_ORIGIN ["COM"]
properties('MP2/aug-cc-pvtz', properties = ['dipole'])
--------------------------------------------------------------------------

    Molecular point group: c1
  Charge       = 0
  Multiplicity = 1
  Basis Set: AUG-CC-PVTZ
    Blend: AUG-CC-PVTZ
  Basis Set: (AUG-CC-PVTZ AUX)
    Blend: AUG-CC-PVTZ-JKFIT

    Orbital Energies [Eh]
    ---------------------

    Doubly Occupied:

       1A    -91.958340     2A    -11.268380     3A    -11.265029
       4A    -11.245132     5A    -11.237112     6A    -11.231494
       7A    -11.227135     8A     -8.958374     9A     -6.639548
      10A     -6.638610    11A     -6.637798    12A     -1.143598
      13A     -1.043919    14A     -1.024554    15A     -0.935096
      16A     -0.851835    17A     -0.803117    18A     -0.678037
      19A     -0.663594    20A     -0.621511    21A     -0.608948
      22A     -0.575952    23A     -0.570954    24A     -0.533830
      25A     -0.518064    26A     -0.473753    27A     -0.459168
      28A     -0.440994    29A     -0.351491    30A     -0.295118

  @DF-RHF Final Energy:  -629.45556690097510

   => Energetics <=

    Nuclear Repulsion Energy =            346.1281116904769988
    One-Electron Energy =               -1549.3663875692400325
    Two-Electron Energy =                 573.7827089777879337
    Total Energy =                       -629.4555669009751000
  Basis Set: (AUG-CC-PVTZ AUX)
    Blend: AUG-CC-PVTZ-RI
    Molecular point group: c1

    Geometry (in Angstrom), charge = 0, multiplicity = 1:

       Center              X                  Y                   Z               Mass
    ------------   -----------------  -----------------  -----------------  -----------------
         S            1.752651495075     0.058877212315    -0.331244956349    31.972071174400
         C           -1.330412504925    -0.068937787685     0.067418043651    12.000000000000
         C            0.777132595075    -1.320301287685     0.463594043651    12.000000000000
         C           -0.634474504925    -1.227436787685     0.017843043651    12.000000000000
         C           -0.645602504925     1.186779212315     0.355087043651    12.000000000000
         C           -2.796849504925     0.004341212315    -0.258550956349    12.000000000000
         C            0.680610495075     1.359781212315     0.135551043651    12.000000000000
         H            0.904040495075    -1.190796787685     1.531327043651     1.007825032230
         H            1.277689495075    -2.217762787685     0.132550043651     1.007825032230
         H           -1.123570504925    -2.154367787685    -0.276033956349     1.007825032230
         H           -1.239944504925     2.052979212315     0.641110043651     1.007825032230
         H           -2.977246504925     0.644445212315    -1.128741956349     1.007825032230
         H           -3.358186504925     0.430024212315     0.580815043651     1.007825032230
         H           -3.202991504925    -0.988346787685    -0.470543956349     1.007825032230
         H            1.146551495075     2.339177212315     0.199331043651     1.007825032230

  Basis Set: AUG-CC-PVTZ
    Blend: AUG-CC-PVTZ
  Basis Set: (AUG-CC-PVTZ AUX)
    Blend: AUG-CC-PVTZ-JKFIT
	 Reference Energy          =    -629.4555669009751000 [Eh]
	 Singles Energy            =      -0.0000000000000000 [Eh]
	 Same-Spin Energy          =      -0.3116820680346825 [Eh]
	 Opposite-Spin Energy      =      -1.0187436206022347 [Eh]
	 Correlation Energy        =      -1.3304256886369172 [Eh]
	 Total Energy              =    -630.7859925896119648 [Eh]

	 ================> DF-SCS-MP2 Energies <==================
	-----------------------------------------------------------
	 SCS Same-Spin Scale       =       0.3333333333333333 [-]
	 SCS Opposite-Spin Scale   =       1.2000000000000000 [-]
	 SCS Same-Spin Energy      =      -0.1038940226782275 [Eh]
	 SCS Opposite-Spin Energy  =      -1.2224923447226816 [Eh]
	 SCS Correlation Energy    =      -1.3263863674009091 [Eh]
	 SCS Total Energy          =    -630.7819532683760144 [Eh]
	-----------------------------------------------------------

  Dipole Moment: [D]
     X:    -1.1175      Y:    -0.3244      Z:     0.5835     Total:     1.3017

*** Psi4 exiting successfully. Buy a developer a beer!
