                               Psi4 1.4a3.dev225

  ==> Input File <==

--------------------------------------------------------------------------
#psi4
#
memory 32 gb

molecule  {
0 1
  S        1.8205190     0.0641380    -0.3390420
  C       -1.2625450    -0.0636770     0.0596210
  C        0.8711260    -1.2781040     0.4345100
  C       -0.5666070    -1.2221760     0.0100460
  C       -0.5777350     1.1920400     0.3472900
  C       -2.7289820     0.0096020    -0.2663480
  C        0.7484780     1.3650420     0.1277540
  H        0.9719080    -1.1855360     1.5235300
  H        1.3455570    -2.2125020     0.1247530
  H       -1.0557030    -2.1491070    -0.2838310
  H       -1.1720770     2.0582400     0.6333130
  H       -2.9258503     0.7081512    -1.2159925
  H       -3.2903190     0.4352850     0.5730180
  H       -3.1351240    -0.9830860    -0.4783410
  H        1.2144190     2.3444380     0.1915340
units angstrom
no_reorient  #important for SAPT in psi4, default
symmetry c1  #important for SAPT in psi4, default
}

set PROPERTIES_ORIGIN ["COM"]
properties('MP2/aug-cc-pvtz', properties = ['dipole'])
--------------------------------------------------------------------------

    Molecular point group: c1
  Charge       = 0
  Multiplicity = 1
  Basis Set: AUG-CC-PVTZ
    Blend: AUG-CC-PVTZ
  Basis Set: (AUG-CC-PVTZ AUX)
    Blend: AUG-CC-PVTZ-JKFIT

    Orbital Energies [Eh]
    ---------------------

    Doubly Occupied:

       1A    -91.959541     2A    -11.268413     3A    -11.264550
       4A    -11.245185     5A    -11.238516     6A    -11.238122
       7A    -11.233183     8A     -8.960093     9A     -6.641330
      10A     -6.640390    11A     -6.639530    12A     -1.145120
      13A     -1.045740    14A     -1.023056    15A     -0.931035
      16A     -0.848711    17A     -0.803570    18A     -0.676699
      19A     -0.662175    20A     -0.619513    21A     -0.604090
      22A     -0.576681    23A     -0.558517    24A     -0.532898
      25A     -0.515113    26A     -0.477912    27A     -0.460789
      28A     -0.439433    29A     -0.353365    30A     -0.295826

  @DF-RHF Final Energy:  -629.45067850421640

   => Energetics <=

    Nuclear Repulsion Energy =            346.3825621092626648
    One-Electron Energy =               -1549.8682880781952917
    Two-Electron Energy =                 574.0350474647162855
    Total Energy =                       -629.4506785042163983
  Basis Set: (AUG-CC-PVTZ AUX)
    Blend: AUG-CC-PVTZ-RI
    Molecular point group: c1

    Geometry (in Angstrom), charge = 0, multiplicity = 1:

       Center              X                  Y                   Z               Mass
    ------------   -----------------  -----------------  -----------------  -----------------
         S            1.750001327875     0.054395202156    -0.328250176055    31.972071174400
         C           -1.333062672125    -0.073419797844     0.070412823945    12.000000000000
         C            0.800608327875    -1.287846797844     0.445301823945    12.000000000000
         C           -0.637124672125    -1.231918797844     0.020837823945    12.000000000000
         C           -0.648252672125     1.182297202156     0.358081823945    12.000000000000
         C           -2.799499672125    -0.000140797844    -0.255556176055    12.000000000000
         C            0.677960327875     1.355299202156     0.138545823945    12.000000000000
         H            0.901390327875    -1.195278797844     1.534321823945     1.007825032230
         H            1.275039327875    -2.222244797844     0.135544823945     1.007825032230
         H           -1.126220672125    -2.158849797844    -0.273039176055     1.007825032230
         H           -1.242594672125     2.048497202156     0.644104823945     1.007825032230
         H           -2.996367972125     0.698408402156    -1.205200676055     1.007825032230
         H           -3.360836672125     0.425542202156     0.583809823945     1.007825032230
         H           -3.205641672125    -0.992828797844    -0.467549176055     1.007825032230
         H            1.143901327875     2.334695202156     0.202325823945     1.007825032230

  Basis Set: AUG-CC-PVTZ
    Blend: AUG-CC-PVTZ
  Basis Set: (AUG-CC-PVTZ AUX)
    Blend: AUG-CC-PVTZ-JKFIT
	 Reference Energy          =    -629.4506785042163983 [Eh]
	 Singles Energy            =      -0.0000000000000000 [Eh]
	 Same-Spin Energy          =      -0.3116340153039867 [Eh]
	 Opposite-Spin Energy      =      -1.0192430119681637 [Eh]
	 Correlation Energy        =      -1.3308770272721504 [Eh]
	 Total Energy              =    -630.7815555314884932 [Eh]

	 ================> DF-SCS-MP2 Energies <==================
	-----------------------------------------------------------
	 SCS Same-Spin Scale       =       0.3333333333333333 [-]
	 SCS Opposite-Spin Scale   =       1.2000000000000000 [-]
	 SCS Same-Spin Energy      =      -0.1038780051013289 [Eh]
	 SCS Opposite-Spin Energy  =      -1.2230916143617965 [Eh]
	 SCS Correlation Energy    =      -1.3269696194631253 [Eh]
	 SCS Total Energy          =    -630.7776481236795689 [Eh]
	-----------------------------------------------------------

  Dipole Moment: [D]
     X:    -1.0585      Y:    -0.3175      Z:     0.5867     Total:     1.2512

*** Psi4 exiting successfully. Buy a developer a beer!
