                               Psi4 1.4a3.dev225

  ==> Input File <==

--------------------------------------------------------------------------
#psi4
#
memory 32 gb

molecule  {
0 1
  S        1.8205190     0.0641380    -0.3390420
  C       -1.2625450    -0.0636770     0.0596210
  C        0.8711260    -1.2781040     0.4345100
  C       -0.5666070    -1.2221760     0.0100460
  C       -0.5777350     1.1920400     0.3472900
  C       -2.7289820     0.0096020    -0.2663480
  C        0.7484780     1.3650420     0.1277540
  H        0.9719080    -1.1855360     1.5235300
  H        1.2587256    -2.0414865     0.1814454
  H       -1.0557030    -2.1491070    -0.2838310
  H       -1.1720770     2.0582400     0.6333130
  H       -2.9093790     0.6497060    -1.1365390
  H       -3.2903190     0.4352850     0.5730180
  H       -3.1351240    -0.9830860    -0.4783410
  H        1.2144190     2.3444380     0.1915340
units angstrom
no_reorient  #important for SAPT in psi4, default
symmetry c1  #important for SAPT in psi4, default
}

set PROPERTIES_ORIGIN ["COM"]
properties('MP2/aug-cc-pvtz', properties = ['dipole'])
--------------------------------------------------------------------------

    Molecular point group: c1
  Charge       = 0
  Multiplicity = 1
  Basis Set: AUG-CC-PVTZ
    Blend: AUG-CC-PVTZ
  Basis Set: (AUG-CC-PVTZ AUX)
    Blend: AUG-CC-PVTZ-JKFIT

    Orbital Energies [Eh]
    ---------------------

    Doubly Occupied:

       1A    -91.958361     2A    -11.267956     3A    -11.243463
       4A    -11.240376     5A    -11.237393     6A    -11.231099
       7A    -11.226328     8A     -8.959015     9A     -6.640273
      10A     -6.639333    11A     -6.638483    12A     -1.146910
      13A     -1.050790    14A     -1.031886    15A     -0.935724
      16A     -0.868491    17A     -0.803850    18A     -0.675789
      19A     -0.672602    20A     -0.628464    21A     -0.615406
      22A     -0.576046    23A     -0.571774    24A     -0.534746
      25A     -0.521271    26A     -0.481077    27A     -0.461407
      28A     -0.439581    29A     -0.353102    30A     -0.294984

  @DF-RHF Final Energy:  -629.42333008252081

   => Energetics <=

    Nuclear Repulsion Energy =            347.9653006702067728
    One-Electron Energy =               -1552.8853070819754976
    Two-Electron Energy =                 575.4966763292479754
    Total Energy =                       -629.4233300825208062
  Basis Set: (AUG-CC-PVTZ AUX)
    Blend: AUG-CC-PVTZ-RI
    Molecular point group: c1

    Geometry (in Angstrom), charge = 0, multiplicity = 1:

       Center              X                  Y                   Z               Mass
    ------------   -----------------  -----------------  -----------------  -----------------
         S            1.750634262922     0.053382558795    -0.329474897334    31.972071174400
         C           -1.332429737078    -0.074432441205     0.069188102666    12.000000000000
         C            0.801241262922    -1.288859441205     0.444077102666    12.000000000000
         C           -0.636491737078    -1.232931441205     0.019613102666    12.000000000000
         C           -0.647619737078     1.181284558795     0.356857102666    12.000000000000
         C           -2.798866737078    -0.001153441205    -0.256780897334    12.000000000000
         C            0.678593262922     1.354286558795     0.137321102666    12.000000000000
         H            0.902023262922    -1.196291441205     1.533097102666     1.007825032230
         H            1.188840862922    -2.052241941205     0.191012502666     1.007825032230
         H           -1.125587737078    -2.159862441205    -0.274263897334     1.007825032230
         H           -1.241961737078     2.047484558795     0.642880102666     1.007825032230
         H           -2.979263737078     0.638950558795    -1.126971897334     1.007825032230
         H           -3.360203737078     0.424529558795     0.582585102666     1.007825032230
         H           -3.205008737078    -0.993841441205    -0.468773897334     1.007825032230
         H            1.144534262922     2.333682558795     0.201101102666     1.007825032230

  Basis Set: AUG-CC-PVTZ
    Blend: AUG-CC-PVTZ
  Basis Set: (AUG-CC-PVTZ AUX)
    Blend: AUG-CC-PVTZ-JKFIT
	 Reference Energy          =    -629.4233300825208062 [Eh]
	 Singles Energy            =      -0.0000000000000000 [Eh]
	 Same-Spin Energy          =      -0.3115903794427077 [Eh]
	 Opposite-Spin Energy      =      -1.0179306373973045 [Eh]
	 Correlation Energy        =      -1.3295210168400122 [Eh]
	 Total Energy              =    -630.7528510993607824 [Eh]

	 ================> DF-SCS-MP2 Energies <==================
	-----------------------------------------------------------
	 SCS Same-Spin Scale       =       0.3333333333333333 [-]
	 SCS Opposite-Spin Scale   =       1.2000000000000000 [-]
	 SCS Same-Spin Energy      =      -0.1038634598142359 [Eh]
	 SCS Opposite-Spin Energy  =      -1.2215167648767653 [Eh]
	 SCS Correlation Energy    =      -1.3253802246910011 [Eh]
	 SCS Total Energy          =    -630.7487103072118089 [Eh]
	-----------------------------------------------------------

  Dipole Moment: [D]
     X:    -1.0770      Y:    -0.3157      Z:     0.5592     Total:     1.2539

*** Psi4 exiting successfully. Buy a developer a beer!
