                               Psi4 1.4a3.dev225

  ==> Input File <==

--------------------------------------------------------------------------
#psi4
#
memory 32 gb

molecule  {
0 1
  S        1.8205190     0.0641380    -0.3390420
  C       -1.2625450    -0.0636770     0.0596210
  C        0.8711260    -1.2781040     0.4345100
  C       -0.6695282    -1.0508474     0.0173776
  C       -0.5777350     1.1920400     0.3472900
  C       -2.7289820     0.0096020    -0.2663480
  C        0.7484780     1.3650420     0.1277540
  H        0.9719080    -1.1855360     1.5235300
  H        1.3455570    -2.2125020     0.1247530
  H       -1.0557030    -2.1491070    -0.2838310
  H       -1.1720770     2.0582400     0.6333130
  H       -2.9093790     0.6497060    -1.1365390
  H       -3.2903190     0.4352850     0.5730180
  H       -3.1351240    -0.9830860    -0.4783410
  H        1.2144190     2.3444380     0.1915340
units angstrom
no_reorient  #important for SAPT in psi4, default
symmetry c1  #important for SAPT in psi4, default
}

set PROPERTIES_ORIGIN ["COM"]
properties('MP2/aug-cc-pvtz', properties = ['dipole'])
--------------------------------------------------------------------------

    Molecular point group: c1
  Charge       = 0
  Multiplicity = 1
  Basis Set: AUG-CC-PVTZ
    Blend: AUG-CC-PVTZ
  Basis Set: (AUG-CC-PVTZ AUX)
    Blend: AUG-CC-PVTZ-JKFIT

    Orbital Energies [Eh]
    ---------------------

    Doubly Occupied:

       1A    -91.955919     2A    -11.269294     3A    -11.266079
       4A    -11.237359     5A    -11.225924     6A    -11.222915
       7A    -11.211013     8A     -8.956632     9A     -6.637912
      10A     -6.636984    11A     -6.636099    12A     -1.167862
      13A     -1.063845    14A     -1.009166    15A     -0.943074
      16A     -0.865388    17A     -0.790956    18A     -0.665915
      19A     -0.662148    20A     -0.624617    21A     -0.605950
      22A     -0.576556    23A     -0.571996    24A     -0.533614
      25A     -0.512202    26A     -0.470565    27A     -0.457823
      28A     -0.437889    29A     -0.371231    30A     -0.304881

  @DF-RHF Final Energy:  -629.39101504708799

   => Energetics <=

    Nuclear Repulsion Energy =            349.4034373871510866
    One-Electron Energy =               -1555.8052853737567602
    Two-Electron Energy =                 577.0108329395176270
    Total Energy =                       -629.3910150470879898
  Basis Set: (AUG-CC-PVTZ AUX)
    Blend: AUG-CC-PVTZ-RI
    Molecular point group: c1

    Geometry (in Angstrom), charge = 0, multiplicity = 1:

       Center              X                  Y                   Z               Mass
    ------------   -----------------  -----------------  -----------------  -----------------
         S            1.760877016588     0.036570000021    -0.329750197647    31.972071174400
         C           -1.322186983412    -0.091244999979     0.068912802353    12.000000000000
         C            0.811484016588    -1.305671999979     0.443801802353    12.000000000000
         C           -0.729170183412    -1.078415399979     0.026669402353    12.000000000000
         C           -0.637376983412     1.164472000021     0.356581802353    12.000000000000
         C           -2.788623983412    -0.017965999979    -0.257056197647    12.000000000000
         C            0.688836016588     1.337474000021     0.137045802353    12.000000000000
         H            0.912266016588    -1.213103999979     1.532821802353     1.007825032230
         H            1.285915016588    -2.240069999979     0.134044802353     1.007825032230
         H           -1.115344983412    -2.176674999979    -0.274539197647     1.007825032230
         H           -1.231718983412     2.030672000021     0.642604802353     1.007825032230
         H           -2.969020983412     0.622138000021    -1.127247197647     1.007825032230
         H           -3.349960983412     0.407717000021     0.582309802353     1.007825032230
         H           -3.194765983412    -1.010653999979    -0.469049197647     1.007825032230
         H            1.154777016588     2.316870000021     0.200825802353     1.007825032230

  Basis Set: AUG-CC-PVTZ
    Blend: AUG-CC-PVTZ
  Basis Set: (AUG-CC-PVTZ AUX)
    Blend: AUG-CC-PVTZ-JKFIT
	 Reference Energy          =    -629.3910150470879898 [Eh]
	 Singles Energy            =      -0.0000000000000000 [Eh]
	 Same-Spin Energy          =      -0.3099989780760513 [Eh]
	 Opposite-Spin Energy      =      -1.0158342362660391 [Eh]
	 Correlation Energy        =      -1.3258332143420903 [Eh]
	 Total Energy              =    -630.7168482614300729 [Eh]

	 ================> DF-SCS-MP2 Energies <==================
	-----------------------------------------------------------
	 SCS Same-Spin Scale       =       0.3333333333333333 [-]
	 SCS Opposite-Spin Scale   =       1.2000000000000000 [-]
	 SCS Same-Spin Energy      =      -0.1033329926920171 [Eh]
	 SCS Opposite-Spin Energy  =      -1.2190010835192469 [Eh]
	 SCS Correlation Energy    =      -1.3223340762112639 [Eh]
	 SCS Total Energy          =    -630.7133491232992810 [Eh]
	-----------------------------------------------------------

  Dipole Moment: [D]
     X:    -1.1455      Y:    -0.3367      Z:     0.5731     Total:     1.3243

*** Psi4 exiting successfully. Buy a developer a beer!
