                               Psi4 1.4a3.dev225

  ==> Input File <==

--------------------------------------------------------------------------
#psi4
#
memory 32 gb

molecule  {
0 1
  S        1.7241681    -0.0107646    -0.3356105
  C       -1.2625450    -0.0636770     0.0596210
  C        0.8711260    -1.2781040     0.4345100
  C       -0.5666070    -1.2221760     0.0100460
  C       -0.5777350     1.1920400     0.3472900
  C       -2.7289820     0.0096020    -0.2663480
  C        0.7484780     1.3650420     0.1277540
  H        0.9719080    -1.1855360     1.5235300
  H        1.3455570    -2.2125020     0.1247530
  H       -1.0557030    -2.1491070    -0.2838310
  H       -1.1720770     2.0582400     0.6333130
  H       -2.9093790     0.6497060    -1.1365390
  H       -3.2903190     0.4352850     0.5730180
  H       -3.1351240    -0.9830860    -0.4783410
  H        1.2144190     2.3444380     0.1915340
units angstrom
no_reorient  #important for SAPT in psi4, default
symmetry c1  #important for SAPT in psi4, default
}

set PROPERTIES_ORIGIN ["COM"]
properties('MP2/aug-cc-pvtz', properties = ['dipole'])
--------------------------------------------------------------------------

    Molecular point group: c1
  Charge       = 0
  Multiplicity = 1
  Basis Set: AUG-CC-PVTZ
    Blend: AUG-CC-PVTZ
  Basis Set: (AUG-CC-PVTZ AUX)
    Blend: AUG-CC-PVTZ-JKFIT

    Orbital Energies [Eh]
    ---------------------

    Doubly Occupied:

       1A    -91.952923     2A    -11.266817     3A    -11.256140
       4A    -11.243244     5A    -11.238268     6A    -11.232789
       7A    -11.226634     8A     -8.955734     9A     -6.637134
      10A     -6.636217    11A     -6.635202    12A     -1.154834
      13A     -1.055071    14A     -1.027644    15A     -0.935837
      16A     -0.846911    17A     -0.806381    18A     -0.677228
      19A     -0.666022    20A     -0.621995    21A     -0.607305
      22A     -0.586130    23A     -0.570399    24A     -0.535923
      25A     -0.522375    26A     -0.487039    27A     -0.453860
      28A     -0.437812    29A     -0.346636    30A     -0.297721

  @DF-RHF Final Energy:  -629.45098805064129

   => Energetics <=

    Nuclear Repulsion Energy =            350.8862335959366305
    One-Electron Energy =               -1558.8379966867228177
    Two-Electron Energy =                 578.5007750401449584
    Total Energy =                       -629.4509880506412856
  Basis Set: (AUG-CC-PVTZ AUX)
    Blend: AUG-CC-PVTZ-RI
    Molecular point group: c1

    Geometry (in Angstrom), charge = 0, multiplicity = 1:

       Center              X                  Y                   Z               Mass
    ------------   -----------------  -----------------  -----------------  -----------------
         S            1.680998547925     0.001393802584    -0.326512681902    31.972071174400
         C           -1.305714552075    -0.051518597416     0.068718818098    12.000000000000
         C            0.827956447925    -1.265945597416     0.443607818098    12.000000000000
         C           -0.609776552075    -1.210017597416     0.019143818098    12.000000000000
         C           -0.620904552075     1.204198402584     0.356387818098    12.000000000000
         C           -2.772151552075     0.021760402584    -0.257250181902    12.000000000000
         C            0.705308447925     1.377200402584     0.136851818098    12.000000000000
         H            0.928738447925    -1.173377597416     1.532627818098     1.007825032230
         H            1.302387447925    -2.200343597416     0.133850818098     1.007825032230
         H           -1.098872552075    -2.136948597416    -0.274733181902     1.007825032230
         H           -1.215246552075     2.070398402584     0.642410818098     1.007825032230
         H           -2.952548552075     0.661864402584    -1.127441181902     1.007825032230
         H           -3.333488552075     0.447443402584     0.582115818098     1.007825032230
         H           -3.178293552075    -0.970927597416    -0.469243181902     1.007825032230
         H            1.171249447925     2.356596402584     0.200631818098     1.007825032230

  Basis Set: AUG-CC-PVTZ
    Blend: AUG-CC-PVTZ
  Basis Set: (AUG-CC-PVTZ AUX)
    Blend: AUG-CC-PVTZ-JKFIT
	 Reference Energy          =    -629.4509880506412856 [Eh]
	 Singles Energy            =      -0.0000000000000000 [Eh]
	 Same-Spin Energy          =      -0.3128353891672659 [Eh]
	 Opposite-Spin Energy      =      -1.0186816112400405 [Eh]
	 Correlation Energy        =      -1.3315170004073065 [Eh]
	 Total Energy              =    -630.7825050510485880 [Eh]

	 ================> DF-SCS-MP2 Energies <==================
	-----------------------------------------------------------
	 SCS Same-Spin Scale       =       0.3333333333333333 [-]
	 SCS Opposite-Spin Scale   =       1.2000000000000000 [-]
	 SCS Same-Spin Energy      =      -0.1042784630557553 [Eh]
	 SCS Opposite-Spin Energy  =      -1.2224179334880485 [Eh]
	 SCS Correlation Energy    =      -1.3266963965438039 [Eh]
	 SCS Total Energy          =    -630.7776844471850382 [Eh]
	-----------------------------------------------------------

  Dipole Moment: [D]
     X:    -1.1091      Y:    -0.2701      Z:     0.5730     Total:     1.2773

*** Psi4 exiting successfully. Buy a developer a beer!
