                               Psi4 1.4a3.dev225

  ==> Input File <==

--------------------------------------------------------------------------
#psi4
#
memory 32 gb

molecule  {
0 1
  S        1.8205190     0.0641380    -0.3390420
  C       -1.2625450    -0.0636770     0.0596210
  C        0.8711260    -1.2781040     0.4345100
  C       -0.5666070    -1.2221760     0.0100460
  C       -0.5777350     1.1920400     0.3472900
  C       -2.7289820     0.0096020    -0.2663480
  C        0.7484780     1.3650420     0.1277540
  H        0.9719080    -1.1855360     1.5235300
  H        1.3238492    -2.1697481     0.1389261
  H       -1.0557030    -2.1491070    -0.2838310
  H       -1.1720770     2.0582400     0.6333130
  H       -2.9093790     0.6497060    -1.1365390
  H       -3.2903190     0.4352850     0.5730180
  H       -3.1351240    -0.9830860    -0.4783410
  H        1.2144190     2.3444380     0.1915340
units angstrom
no_reorient  #important for SAPT in psi4, default
symmetry c1  #important for SAPT in psi4, default
}

set PROPERTIES_ORIGIN ["COM"]
properties('MP2/aug-cc-pvtz', properties = ['dipole'])
--------------------------------------------------------------------------

    Molecular point group: c1
  Charge       = 0
  Multiplicity = 1
  Basis Set: AUG-CC-PVTZ
    Blend: AUG-CC-PVTZ
  Basis Set: (AUG-CC-PVTZ AUX)
    Blend: AUG-CC-PVTZ-JKFIT

    Orbital Energies [Eh]
    ---------------------

    Doubly Occupied:

       1A    -91.958945     2A    -11.268130     3A    -11.258163
       4A    -11.243920     5A    -11.237721     6A    -11.231782
       7A    -11.226646     8A     -8.959528     9A     -6.640772
      10A     -6.639831    11A     -6.638976    12A     -1.145078
      13A     -1.047291    14A     -1.024614    15A     -0.936082
      16A     -0.853117    17A     -0.803866    18A     -0.676062
      19A     -0.664671    20A     -0.620462    21A     -0.608906
      22A     -0.576445    23A     -0.570414    24A     -0.534397
      25A     -0.518780    26A     -0.478524    27A     -0.460934
      28A     -0.439836    29A     -0.353426    30A     -0.295260

  @DF-RHF Final Energy:  -629.45619945951637

   => Energetics <=

    Nuclear Repulsion Energy =            347.0506453236295101
    One-Electron Energy =               -1551.1885334043811326
    Two-Electron Energy =                 574.6816886212351392
    Total Energy =                       -629.4561994595163696
  Basis Set: (AUG-CC-PVTZ AUX)
    Blend: AUG-CC-PVTZ-RI
    Molecular point group: c1

    Geometry (in Angstrom), charge = 0, multiplicity = 1:

       Center              X                  Y                   Z               Mass
    ------------   -----------------  -----------------  -----------------  -----------------
         S            1.750048433612     0.054536355646    -0.329092408464    31.972071174400
         C           -1.333015566388    -0.073278644354     0.069570591536    12.000000000000
         C            0.800655433612    -1.287705644354     0.444459591536    12.000000000000
         C           -0.637077566388    -1.231777644354     0.019995591536    12.000000000000
         C           -0.648205566388     1.182438355646     0.357239591536    12.000000000000
         C           -2.799452566388     0.000000355646    -0.256398408464    12.000000000000
         C            0.678007433612     1.355440355646     0.137703591536    12.000000000000
         H            0.901437433612    -1.195137644354     1.533479591536     1.007825032230
         H            1.253378633612    -2.179349744354     0.148875691536     1.007825032230
         H           -1.126173566388    -2.158708644354    -0.273881408464     1.007825032230
         H           -1.242547566388     2.048638355646     0.643262591536     1.007825032230
         H           -2.979849566388     0.640104355646    -1.126589408464     1.007825032230
         H           -3.360789566388     0.425683355646     0.582967591536     1.007825032230
         H           -3.205594566388    -0.992687644354    -0.468391408464     1.007825032230
         H            1.143948433612     2.334836355646     0.201483591536     1.007825032230

  Basis Set: AUG-CC-PVTZ
    Blend: AUG-CC-PVTZ
  Basis Set: (AUG-CC-PVTZ AUX)
    Blend: AUG-CC-PVTZ-JKFIT
	 Reference Energy          =    -629.4561994595163696 [Eh]
	 Singles Energy            =      -0.0000000000000000 [Eh]
	 Same-Spin Energy          =      -0.3116186352219663 [Eh]
	 Opposite-Spin Energy      =      -1.0182733179142260 [Eh]
	 Correlation Energy        =      -1.3298919531361924 [Eh]
	 Total Energy              =    -630.7860914126525813 [Eh]

	 ================> DF-SCS-MP2 Energies <==================
	-----------------------------------------------------------
	 SCS Same-Spin Scale       =       0.3333333333333333 [-]
	 SCS Opposite-Spin Scale   =       1.2000000000000000 [-]
	 SCS Same-Spin Energy      =      -0.1038728784073221 [Eh]
	 SCS Opposite-Spin Energy  =      -1.2219279814970712 [Eh]
	 SCS Correlation Energy    =      -1.3258008599043933 [Eh]
	 SCS Total Energy          =    -630.7820003194207175 [Eh]
	-----------------------------------------------------------

  Dipole Moment: [D]
     X:    -1.0925      Y:    -0.2991      Z:     0.5488     Total:     1.2586

*** Psi4 exiting successfully. Buy a developer a beer!
