                               Psi4 1.4a3.dev225

  ==> Input File <==

--------------------------------------------------------------------------
#psi4
#
memory 32 gb

molecule  {
0 1
  S        1.8205190     0.0641380    -0.3390420
  C       -1.2625450    -0.0636770     0.0596210
  C        0.8711260    -1.2781040     0.4345100
  C       -0.5666070    -1.2221760     0.0100460
  C       -0.5777350     1.1920400     0.3472900
  C       -2.7289820     0.0096020    -0.2663480
  C        0.7484780     1.3650420     0.1277540
  H        0.9719080    -1.1855360     1.5235300
  H        1.3455570    -2.2125020     0.1247530
  H       -1.0557030    -2.1491070    -0.2838310
  H       -1.1720770     2.0582400     0.6333130
  H       -2.9205859     0.6608618    -1.1257996
  H       -3.2903190     0.4352850     0.5730180
  H       -3.1351240    -0.9830860    -0.4783410
  H        1.2144190     2.3444380     0.1915340
units angstrom
no_reorient  #important for SAPT in psi4, default
symmetry c1  #important for SAPT in psi4, default
}

set PROPERTIES_ORIGIN ["COM"]
properties('MP2/aug-cc-pvtz', properties = ['dipole'])
--------------------------------------------------------------------------

    Molecular point group: c1
  Charge       = 0
  Multiplicity = 1
  Basis Set: AUG-CC-PVTZ
    Blend: AUG-CC-PVTZ
  Basis Set: (AUG-CC-PVTZ AUX)
    Blend: AUG-CC-PVTZ-JKFIT

    Orbital Energies [Eh]
    ---------------------

    Doubly Occupied:

       1A    -91.959284     2A    -11.268280     3A    -11.264065
       4A    -11.244294     5A    -11.237932     6A    -11.232213
       7A    -11.226814     8A     -8.959833     9A     -6.641071
      10A     -6.640131    11A     -6.639273    12A     -1.144864
      13A     -1.046910    14A     -1.022711    15A     -0.936334
      16A     -0.849239    17A     -0.803986    18A     -0.676290
      19A     -0.663288    20A     -0.620113    21A     -0.604376
      22A     -0.576672    23A     -0.568243    24A     -0.535006
      25A     -0.518196    26A     -0.477560    27A     -0.460717
      28A     -0.439844    29A     -0.353618    30A     -0.295462

  @DF-RHF Final Energy:  -629.45702389873156

   => Energetics <=

    Nuclear Repulsion Energy =            346.7670498143559144
    One-Electron Energy =               -1550.6349115901350615
    Two-Electron Energy =                 574.4108378770475838
    Total Energy =                       -629.4570238987315633
  Basis Set: (AUG-CC-PVTZ AUX)
    Blend: AUG-CC-PVTZ-RI
    Molecular point group: c1

    Geometry (in Angstrom), charge = 0, multiplicity = 1:

       Center              X                  Y                   Z               Mass
    ------------   -----------------  -----------------  -----------------  -----------------
         S            1.749953971159     0.054820601190    -0.329061520090    31.972071174400
         C           -1.333110028841    -0.072994398810     0.069601479910    12.000000000000
         C            0.800560971159    -1.287421398810     0.444490479910    12.000000000000
         C           -0.637172028841    -1.231493398810     0.020026479910    12.000000000000
         C           -0.648300028841     1.182722601190     0.357270479910    12.000000000000
         C           -2.799547028841     0.000284601190    -0.256367520090    12.000000000000
         C            0.677912971159     1.355724601190     0.137734479910    12.000000000000
         H            0.901342971159    -1.194853398810     1.533510479910     1.007825032230
         H            1.274991971159    -2.221819398810     0.134733479910     1.007825032230
         H           -1.126268028841    -2.158424398810    -0.273850520090     1.007825032230
         H           -1.242642028841     2.048922601190     0.643293479910     1.007825032230
         H           -2.991150928841     0.651544401190    -1.115819120090     1.007825032230
         H           -3.360884028841     0.425967601190     0.582998479910     1.007825032230
         H           -3.205689028841    -0.992403398810    -0.468360520090     1.007825032230
         H            1.143853971159     2.335120601190     0.201514479910     1.007825032230

  Basis Set: AUG-CC-PVTZ
    Blend: AUG-CC-PVTZ
  Basis Set: (AUG-CC-PVTZ AUX)
    Blend: AUG-CC-PVTZ-JKFIT
	 Reference Energy          =    -629.4570238987315633 [Eh]
	 Singles Energy            =      -0.0000000000000000 [Eh]
	 Same-Spin Energy          =      -0.3116575904940659 [Eh]
	 Opposite-Spin Energy      =      -1.0185710353941053 [Eh]
	 Correlation Energy        =      -1.3302286258881713 [Eh]
	 Total Energy              =    -630.7872525246197029 [Eh]

	 ================> DF-SCS-MP2 Energies <==================
	-----------------------------------------------------------
	 SCS Same-Spin Scale       =       0.3333333333333333 [-]
	 SCS Opposite-Spin Scale   =       1.2000000000000000 [-]
	 SCS Same-Spin Energy      =      -0.1038858634980220 [Eh]
	 SCS Opposite-Spin Energy  =      -1.2222852424729262 [Eh]
	 SCS Correlation Energy    =      -1.3261711059709482 [Eh]
	 SCS Total Energy          =    -630.7831950047025202 [Eh]
	-----------------------------------------------------------

  Dipole Moment: [D]
     X:    -1.1025      Y:    -0.2810      Z:     0.5483     Total:     1.2629

*** Psi4 exiting successfully. Buy a developer a beer!
