                               Psi4 1.4a3.dev225

  ==> Input File <==

--------------------------------------------------------------------------
#psi4
#
memory 32 gb

molecule  {
0 1
  S        1.8205190     0.0641380    -0.3390420
  C       -1.2625450    -0.0636770     0.0596210
  C        0.8972519    -1.2411675     0.4132230
  C       -0.5666070    -1.2221760     0.0100460
  C       -0.5777350     1.1920400     0.3472900
  C       -2.7289820     0.0096020    -0.2663480
  C        0.7484780     1.3650420     0.1277540
  H        0.9719080    -1.1855360     1.5235300
  H        1.3455570    -2.2125020     0.1247530
  H       -1.0557030    -2.1491070    -0.2838310
  H       -1.1720770     2.0582400     0.6333130
  H       -2.9093790     0.6497060    -1.1365390
  H       -3.2903190     0.4352850     0.5730180
  H       -3.1351240    -0.9830860    -0.4783410
  H        1.2144190     2.3444380     0.1915340
units angstrom
no_reorient  #important for SAPT in psi4, default
symmetry c1  #important for SAPT in psi4, default
}

set PROPERTIES_ORIGIN ["COM"]
properties('MP2/aug-cc-pvtz', properties = ['dipole'])
--------------------------------------------------------------------------

    Molecular point group: c1
  Charge       = 0
  Multiplicity = 1
  Basis Set: AUG-CC-PVTZ
    Blend: AUG-CC-PVTZ
  Basis Set: (AUG-CC-PVTZ AUX)
    Blend: AUG-CC-PVTZ-JKFIT

    Orbital Energies [Eh]
    ---------------------

    Doubly Occupied:

       1A    -91.959676     2A    -11.268154     3A    -11.263840
       4A    -11.243351     5A    -11.238662     6A    -11.232961
       7A    -11.226546     8A     -8.960923     9A     -6.642237
      10A     -6.641277    11A     -6.640361    12A     -1.146582
      13A     -1.050650    14A     -1.020994    15A     -0.937360
      16A     -0.846382    17A     -0.804753    18A     -0.675115
      19A     -0.662630    20A     -0.618524    21A     -0.600271
      22A     -0.577261    23A     -0.568355    24A     -0.535382
      25A     -0.517636    26A     -0.482774    27A     -0.459427
      28A     -0.438191    29A     -0.355390    30A     -0.295427

  @DF-RHF Final Energy:  -629.45494214655980

   => Energetics <=

    Nuclear Repulsion Energy =            347.4559809696397679
    One-Electron Energy =               -1551.9996546312720511
    Two-Electron Energy =                 575.0887315150724817
    Total Energy =                       -629.4549421465598016
  Basis Set: (AUG-CC-PVTZ AUX)
    Blend: AUG-CC-PVTZ-RI
    Molecular point group: c1

    Geometry (in Angstrom), charge = 0, multiplicity = 1:

       Center              X                  Y                   Z               Mass
    ------------   -----------------  -----------------  -----------------  -----------------
         S            1.747054820475     0.050964697478    -0.326684867999    31.972071174400
         C           -1.336009179525    -0.076850302522     0.071978132001    12.000000000000
         C            0.823787720475    -1.254340802522     0.425580132001    12.000000000000
         C           -0.640071179525    -1.235349302522     0.022403132001    12.000000000000
         C           -0.651199179525     1.178866697478     0.359647132001    12.000000000000
         C           -2.802446179525    -0.003571302522    -0.253990867999    12.000000000000
         C            0.675013820475     1.351868697478     0.140111132001    12.000000000000
         H            0.898443820475    -1.198709302522     1.535887132001     1.007825032230
         H            1.272092820475    -2.225675302522     0.137110132001     1.007825032230
         H           -1.129167179525    -2.162280302522    -0.271473867999     1.007825032230
         H           -1.245541179525     2.045066697478     0.645670132001     1.007825032230
         H           -2.982843179525     0.636532697478    -1.124181867999     1.007825032230
         H           -3.363783179525     0.422111697478     0.585375132001     1.007825032230
         H           -3.208588179525    -0.996259302522    -0.465983867999     1.007825032230
         H            1.140954820475     2.331264697478     0.203891132001     1.007825032230

  Basis Set: AUG-CC-PVTZ
    Blend: AUG-CC-PVTZ
  Basis Set: (AUG-CC-PVTZ AUX)
    Blend: AUG-CC-PVTZ-JKFIT
	 Reference Energy          =    -629.4549421465598016 [Eh]
	 Singles Energy            =      -0.0000000000000000 [Eh]
	 Same-Spin Energy          =      -0.3118326356443095 [Eh]
	 Opposite-Spin Energy      =      -1.0187170214878010 [Eh]
	 Correlation Energy        =      -1.3305496571321105 [Eh]
	 Total Energy              =    -630.7854918036919116 [Eh]

	 ================> DF-SCS-MP2 Energies <==================
	-----------------------------------------------------------
	 SCS Same-Spin Scale       =       0.3333333333333333 [-]
	 SCS Opposite-Spin Scale   =       1.2000000000000000 [-]
	 SCS Same-Spin Energy      =      -0.1039442118814365 [Eh]
	 SCS Opposite-Spin Energy  =      -1.2224604257853611 [Eh]
	 SCS Correlation Energy    =      -1.3264046376667975 [Eh]
	 SCS Total Energy          =    -630.7813467842265709 [Eh]
	-----------------------------------------------------------

  Dipole Moment: [D]
     X:    -1.0899      Y:    -0.2495      Z:     0.5068     Total:     1.2276

*** Psi4 exiting successfully. Buy a developer a beer!
