                               Psi4 1.4a3.dev225

  ==> Input File <==

--------------------------------------------------------------------------
#psi4
#
memory 32 gb

molecule  {
0 1
  S        1.7734913     0.0254027    -0.3351022
  C       -1.2625450    -0.0636770     0.0596210
  C        0.8711260    -1.2781040     0.4345100
  C       -0.5666070    -1.2221760     0.0100460
  C       -0.5777350     1.1920400     0.3472900
  C       -2.7289820     0.0096020    -0.2663480
  C        0.7484780     1.3650420     0.1277540
  H        0.9719080    -1.1855360     1.5235300
  H        1.3455570    -2.2125020     0.1247530
  H       -1.0557030    -2.1491070    -0.2838310
  H       -1.1720770     2.0582400     0.6333130
  H       -2.9093790     0.6497060    -1.1365390
  H       -3.2903190     0.4352850     0.5730180
  H       -3.1351240    -0.9830860    -0.4783410
  H        1.2144190     2.3444380     0.1915340
units angstrom
no_reorient  #important for SAPT in psi4, default
symmetry c1  #important for SAPT in psi4, default
}

set PROPERTIES_ORIGIN ["COM"]
properties('MP2/aug-cc-pvtz', properties = ['dipole'])
--------------------------------------------------------------------------

    Molecular point group: c1
  Charge       = 0
  Multiplicity = 1
  Basis Set: AUG-CC-PVTZ
    Blend: AUG-CC-PVTZ
  Basis Set: (AUG-CC-PVTZ AUX)
    Blend: AUG-CC-PVTZ-JKFIT

    Orbital Energies [Eh]
    ---------------------

    Doubly Occupied:

       1A    -91.956284     2A    -11.267586     3A    -11.259920
       4A    -11.243664     5A    -11.238099     6A    -11.232373
       7A    -11.226696     8A     -8.957889     9A     -6.639196
      10A     -6.638294    11A     -6.637357    12A     -1.149354
      13A     -1.050589    14A     -1.025477    15A     -0.936087
      16A     -0.847958    17A     -0.805289    18A     -0.676530
      19A     -0.664441    20A     -0.620914    21A     -0.605769
      22A     -0.581048    23A     -0.570097    24A     -0.535093
      25A     -0.520007    26A     -0.482568    27A     -0.457375
      28A     -0.439162    29A     -0.350585    30A     -0.296420

  @DF-RHF Final Energy:  -629.45577269859564

   => Energetics <=

    Nuclear Repulsion Energy =            348.8086426918251277
    One-Electron Energy =               -1554.7045885933596310
    Two-Electron Energy =                 576.4401732029389223
    Total Energy =                       -629.4557726985956378
  Basis Set: (AUG-CC-PVTZ AUX)
    Blend: AUG-CC-PVTZ-RI
    Molecular point group: c1

    Geometry (in Angstrom), charge = 0, multiplicity = 1:

       Center              X                  Y                   Z               Mass
    ------------   -----------------  -----------------  -----------------  -----------------
         S            1.716246061882     0.027239802267    -0.326149438817    31.972071174400
         C           -1.319790238118    -0.061839897733     0.068573761183    12.000000000000
         C            0.813880761882    -1.276266897733     0.443462761183    12.000000000000
         C           -0.623852238118    -1.220338897733     0.018998761183    12.000000000000
         C           -0.634980238118     1.193877102267     0.356242761183    12.000000000000
         C           -2.786227238118     0.011439102267    -0.257395238817    12.000000000000
         C            0.691232761882     1.366879102267     0.136706761183    12.000000000000
         H            0.914662761882    -1.183698897733     1.532482761183     1.007825032230
         H            1.288311761882    -2.210664897733     0.133705761183     1.007825032230
         H           -1.112948238118    -2.147269897733    -0.274878238817     1.007825032230
         H           -1.229322238118     2.060077102267     0.642265761183     1.007825032230
         H           -2.966624238118     0.651543102267    -1.127586238817     1.007825032230
         H           -3.347564238118     0.437122102267     0.581970761183     1.007825032230
         H           -3.192369238118    -0.981248897733    -0.469388238817     1.007825032230
         H            1.157173761882     2.346275102267     0.200486761183     1.007825032230

  Basis Set: AUG-CC-PVTZ
    Blend: AUG-CC-PVTZ
  Basis Set: (AUG-CC-PVTZ AUX)
    Blend: AUG-CC-PVTZ-JKFIT
	 Reference Energy          =    -629.4557726985956378 [Eh]
	 Singles Energy            =      -0.0000000000000000 [Eh]
	 Same-Spin Energy          =      -0.3121604005802345 [Eh]
	 Opposite-Spin Energy      =      -1.0185029897612266 [Eh]
	 Correlation Energy        =      -1.3306633903414611 [Eh]
	 Total Energy              =    -630.7864360889370801 [Eh]

	 ================> DF-SCS-MP2 Energies <==================
	-----------------------------------------------------------
	 SCS Same-Spin Scale       =       0.3333333333333333 [-]
	 SCS Opposite-Spin Scale   =       1.2000000000000000 [-]
	 SCS Same-Spin Energy      =      -0.1040534668600782 [Eh]
	 SCS Opposite-Spin Energy  =      -1.2222035877134718 [Eh]
	 SCS Correlation Energy    =      -1.3262570545735499 [Eh]
	 SCS Total Energy          =    -630.7820297531692404 [Eh]
	-----------------------------------------------------------

  Dipole Moment: [D]
     X:    -1.1023      Y:    -0.2736      Z:     0.5574     Total:     1.2652

*** Psi4 exiting successfully. Buy a developer a beer!
