                               Psi4 1.4a3.dev225

  ==> Input File <==

--------------------------------------------------------------------------
#psi4
#
memory 32 gb

molecule  {
0 1
  S        1.8205190     0.0641380    -0.3390420
  C       -1.2625450    -0.0636770     0.0596210
  C        0.8711260    -1.2781040     0.4345100
  C       -0.5666070    -1.2221760     0.0100460
  C       -0.5777350     1.1920400     0.3472900
  C       -2.7289820     0.0096020    -0.2663480
  C        0.7791226     1.3278552     0.1144105
  H        0.9719080    -1.1855360     1.5235300
  H        1.3455570    -2.2125020     0.1247530
  H       -1.0557030    -2.1491070    -0.2838310
  H       -1.1720770     2.0582400     0.6333130
  H       -2.9093790     0.6497060    -1.1365390
  H       -3.2903190     0.4352850     0.5730180
  H       -3.1351240    -0.9830860    -0.4783410
  H        1.2144190     2.3444380     0.1915340
units angstrom
no_reorient  #important for SAPT in psi4, default
symmetry c1  #important for SAPT in psi4, default
}

set PROPERTIES_ORIGIN ["COM"]
properties('MP2/aug-cc-pvtz', properties = ['dipole'])
--------------------------------------------------------------------------

    Molecular point group: c1
  Charge       = 0
  Multiplicity = 1
  Basis Set: AUG-CC-PVTZ
    Blend: AUG-CC-PVTZ
  Basis Set: (AUG-CC-PVTZ AUX)
    Blend: AUG-CC-PVTZ-JKFIT

    Orbital Energies [Eh]
    ---------------------

    Doubly Occupied:

       1A    -91.961664     2A    -11.271372     3A    -11.264865
       4A    -11.243179     5A    -11.239153     6A    -11.230250
       7A    -11.225922     8A     -8.963139     9A     -6.644482
      10A     -6.643412    11A     -6.642575    12A     -1.146180
      13A     -1.051910    14A     -1.018012    15A     -0.937663
      16A     -0.851803    17A     -0.799584    18A     -0.676023
      19A     -0.658206    20A     -0.617906    21A     -0.604834
      22A     -0.575343    23A     -0.569268    24A     -0.534371
      25A     -0.517862    26A     -0.481698    27A     -0.465868
      28A     -0.438138    29A     -0.355629    30A     -0.289460

  @DF-RHF Final Energy:  -629.45234587909761

   => Energetics <=

    Nuclear Repulsion Energy =            347.3923022355023136
    One-Electron Energy =               -1551.8497577289131186
    Two-Electron Energy =                 575.0051096143132554
    Total Energy =                       -629.4523458790976065
  Basis Set: (AUG-CC-PVTZ AUX)
    Blend: AUG-CC-PVTZ-RI
    Molecular point group: c1

    Geometry (in Angstrom), charge = 0, multiplicity = 1:

       Center              X                  Y                   Z               Mass
    ------------   -----------------  -----------------  -----------------  -----------------
         S            1.746570823875     0.058904021873    -0.327535693897    31.972071174400
         C           -1.336493176125    -0.068910978127     0.071127306103    12.000000000000
         C            0.797177823875    -1.283337978127     0.446016306103    12.000000000000
         C           -0.640555176125    -1.227409978127     0.021552306103    12.000000000000
         C           -0.651683176125     1.186806021873     0.358796306103    12.000000000000
         C           -2.802930176125     0.004368021873    -0.254841693897    12.000000000000
         C            0.705174423875     1.322621221873     0.125916806103    12.000000000000
         H            0.897959823875    -1.190769978127     1.535036306103     1.007825032230
         H            1.271608823875    -2.217735978127     0.136259306103     1.007825032230
         H           -1.129651176125    -2.154340978127    -0.272324693897     1.007825032230
         H           -1.246025176125     2.053006021873     0.644819306103     1.007825032230
         H           -2.983327176125     0.644472021873    -1.125032693897     1.007825032230
         H           -3.364267176125     0.430051021873     0.584524306103     1.007825032230
         H           -3.209072176125    -0.988319978127    -0.466834693897     1.007825032230
         H            1.140470823875     2.339204021873     0.203040306103     1.007825032230

  Basis Set: AUG-CC-PVTZ
    Blend: AUG-CC-PVTZ
  Basis Set: (AUG-CC-PVTZ AUX)
    Blend: AUG-CC-PVTZ-JKFIT
	 Reference Energy          =    -629.4523458790976065 [Eh]
	 Singles Energy            =      -0.0000000000000000 [Eh]
	 Same-Spin Energy          =      -0.3128564125590931 [Eh]
	 Opposite-Spin Energy      =      -1.0197961424204331 [Eh]
	 Correlation Energy        =      -1.3326525549795263 [Eh]
	 Total Energy              =    -630.7849984340771243 [Eh]

	 ================> DF-SCS-MP2 Energies <==================
	-----------------------------------------------------------
	 SCS Same-Spin Scale       =       0.3333333333333333 [-]
	 SCS Opposite-Spin Scale   =       1.2000000000000000 [-]
	 SCS Same-Spin Energy      =      -0.1042854708530310 [Eh]
	 SCS Opposite-Spin Energy  =      -1.2237553709045197 [Eh]
	 SCS Correlation Energy    =      -1.3280408417575507 [Eh]
	 SCS Total Energy          =    -630.7803867208551765 [Eh]
	-----------------------------------------------------------

  Dipole Moment: [D]
     X:    -0.9556      Y:    -0.3324      Z:     0.5162     Total:     1.1359

*** Psi4 exiting successfully. Buy a developer a beer!
