                               Psi4 1.4a3.dev225

  ==> Input File <==

--------------------------------------------------------------------------
#psi4
#
memory 32 gb

molecule  {
0 1
  S        1.8205190     0.0641380    -0.3390420
  C       -1.2625450    -0.0636770     0.0596210
  C        0.9233777    -1.2042310     0.3919360
  C       -0.5666070    -1.2221760     0.0100460
  C       -0.5777350     1.1920400     0.3472900
  C       -2.7289820     0.0096020    -0.2663480
  C        0.7484780     1.3650420     0.1277540
  H        0.9719080    -1.1855360     1.5235300
  H        1.3455570    -2.2125020     0.1247530
  H       -1.0557030    -2.1491070    -0.2838310
  H       -1.1720770     2.0582400     0.6333130
  H       -2.9093790     0.6497060    -1.1365390
  H       -3.2903190     0.4352850     0.5730180
  H       -3.1351240    -0.9830860    -0.4783410
  H        1.2144190     2.3444380     0.1915340
units angstrom
no_reorient  #important for SAPT in psi4, default
symmetry c1  #important for SAPT in psi4, default
}

set PROPERTIES_ORIGIN ["COM"]
properties('MP2/aug-cc-pvtz', properties = ['dipole'])
--------------------------------------------------------------------------

    Molecular point group: c1
  Charge       = 0
  Multiplicity = 1
  Basis Set: AUG-CC-PVTZ
    Blend: AUG-CC-PVTZ
  Basis Set: (AUG-CC-PVTZ AUX)
    Blend: AUG-CC-PVTZ-JKFIT

    Orbital Energies [Eh]
    ---------------------

    Doubly Occupied:

       1A    -91.959572     2A    -11.268024     3A    -11.264418
       4A    -11.242715     5A    -11.239404     6A    -11.233992
       7A    -11.226355     8A     -8.961727     9A     -6.643137
      10A     -6.642118    11A     -6.641139    12A     -1.148959
      13A     -1.055113    14A     -1.019553    15A     -0.938307
      16A     -0.843679    17A     -0.805411    18A     -0.674592
      19A     -0.662189    20A     -0.618009    21A     -0.596477
      22A     -0.577623    23A     -0.566953    24A     -0.536973
      25A     -0.518106    26A     -0.488051    27A     -0.456250
      28A     -0.435837    29A     -0.356816    30A     -0.295100

  @DF-RHF Final Energy:  -629.44857855140776

   => Energetics <=

    Nuclear Repulsion Energy =            348.1581785637758912
    One-Electron Energy =               -1553.3803125838417145
    Two-Electron Energy =                 575.7735554686580599
    Total Energy =                       -629.4485785514077634
  Basis Set: (AUG-CC-PVTZ AUX)
    Blend: AUG-CC-PVTZ-RI
    Molecular point group: c1

    Geometry (in Angstrom), charge = 0, multiplicity = 1:

       Center              X                  Y                   Z               Mass
    ------------   -----------------  -----------------  -----------------  -----------------
         S            1.744256493885     0.047008440059    -0.324404823824    31.972071174400
         C           -1.338807506115    -0.080806559941     0.074258176176    12.000000000000
         C            0.847115193885    -1.221360559941     0.406573176176    12.000000000000
         C           -0.642869506115    -1.239305559941     0.024683176176    12.000000000000
         C           -0.653997506115     1.174910440059     0.361927176176    12.000000000000
         C           -2.805244506115    -0.007527559941    -0.251710823824    12.000000000000
         C            0.672215493885     1.347912440059     0.142391176176    12.000000000000
         H            0.895645493885    -1.202665559941     1.538167176176     1.007825032230
         H            1.269294493885    -2.229631559941     0.139390176176     1.007825032230
         H           -1.131965506115    -2.166236559941    -0.269193823824     1.007825032230
         H           -1.248339506115     2.041110440059     0.647950176176     1.007825032230
         H           -2.985641506115     0.632576440059    -1.121901823824     1.007825032230
         H           -3.366581506115     0.418155440059     0.587655176176     1.007825032230
         H           -3.211386506115    -1.000215559941    -0.463703823824     1.007825032230
         H            1.138156493885     2.327308440059     0.206171176176     1.007825032230

  Basis Set: AUG-CC-PVTZ
    Blend: AUG-CC-PVTZ
  Basis Set: (AUG-CC-PVTZ AUX)
    Blend: AUG-CC-PVTZ-JKFIT
	 Reference Energy          =    -629.4485785514077634 [Eh]
	 Singles Energy            =      -0.0000000000000000 [Eh]
	 Same-Spin Energy          =      -0.3122289968227154 [Eh]
	 Opposite-Spin Energy      =      -1.0191861865613463 [Eh]
	 Correlation Energy        =      -1.3314151833840617 [Eh]
	 Total Energy              =    -630.7799937347917876 [Eh]

	 ================> DF-SCS-MP2 Energies <==================
	-----------------------------------------------------------
	 SCS Same-Spin Scale       =       0.3333333333333333 [-]
	 SCS Opposite-Spin Scale   =       1.2000000000000000 [-]
	 SCS Same-Spin Energy      =      -0.1040763322742385 [Eh]
	 SCS Opposite-Spin Energy  =      -1.2230234238736155 [Eh]
	 SCS Correlation Energy    =      -1.3270997561478539 [Eh]
	 SCS Total Energy          =    -630.7756783075556086 [Eh]
	-----------------------------------------------------------

  Dipole Moment: [D]
     X:    -1.0836      Y:    -0.2156      Z:     0.4668     Total:     1.1994

*** Psi4 exiting successfully. Buy a developer a beer!
