                               Psi4 1.4a3.dev225

  ==> Input File <==

--------------------------------------------------------------------------
#psi4
#
memory 32 gb

molecule  {
0 1
  S        1.8205190     0.0641380    -0.3390420
  C       -1.2625450    -0.0636770     0.0596210
  C        0.8711260    -1.2781040     0.4345100
  C       -0.5666070    -1.2221760     0.0100460
  C       -0.5777350     1.1920400     0.3472900
  C       -2.7289820     0.0096020    -0.2663480
  C        0.7484780     1.3650420     0.1277540
  H        0.9719080    -1.1855360     1.5235300
  H        1.3455570    -2.2125020     0.1247530
  H       -1.0557030    -2.1491070    -0.2838310
  H       -1.1720770     2.0582400     0.6333130
  H       -2.8868037     0.6268128    -1.1572193
  H       -3.2903190     0.4352850     0.5730180
  H       -3.1351240    -0.9830860    -0.4783410
  H        1.2144190     2.3444380     0.1915340
units angstrom
no_reorient  #important for SAPT in psi4, default
symmetry c1  #important for SAPT in psi4, default
}

set PROPERTIES_ORIGIN ["COM"]
properties('MP2/aug-cc-pvtz', properties = ['dipole'])
--------------------------------------------------------------------------

    Molecular point group: c1
  Charge       = 0
  Multiplicity = 1
  Basis Set: AUG-CC-PVTZ
    Blend: AUG-CC-PVTZ
  Basis Set: (AUG-CC-PVTZ AUX)
    Blend: AUG-CC-PVTZ-JKFIT

    Orbital Energies [Eh]
    ---------------------

    Doubly Occupied:

       1A    -91.959228     2A    -11.268257     3A    -11.263920
       4A    -11.243898     5A    -11.237841     6A    -11.231918
       7A    -11.226799     8A     -8.959778     9A     -6.641016
      10A     -6.640076    11A     -6.639218    12A     -1.144804
      13A     -1.047011    14A     -1.022599    15A     -0.936178
      16A     -0.848928    17A     -0.803846    18A     -0.676153
      19A     -0.662772    20A     -0.619000    21A     -0.604890
      22A     -0.576806    23A     -0.572416    24A     -0.533117
      25A     -0.516505    26A     -0.477416    27A     -0.460563
      28A     -0.440230    29A     -0.353588    30A     -0.295358

  @DF-RHF Final Energy:  -629.45690943641159

   => Energetics <=

    Nuclear Repulsion Energy =            346.8109265681246711
    One-Electron Energy =               -1550.7274181681036680
    Two-Electron Energy =                 574.4595821635674611
    Total Energy =                       -629.4569094364115927
  Basis Set: (AUG-CC-PVTZ AUX)
    Blend: AUG-CC-PVTZ-RI
    Molecular point group: c1

    Geometry (in Angstrom), charge = 0, multiplicity = 1:

       Center              X                  Y                   Z               Mass
    ------------   -----------------  -----------------  -----------------  -----------------
         S            1.749650078209     0.055126894181    -0.328778879370    31.972071174400
         C           -1.333413921791    -0.072688105819     0.069884120630    12.000000000000
         C            0.800257078209    -1.287115105819     0.444773120630    12.000000000000
         C           -0.637475921791    -1.231187105819     0.020309120630    12.000000000000
         C           -0.648603921791     1.183028894181     0.357553120630    12.000000000000
         C           -2.799850921791     0.000590894181    -0.256084879370    12.000000000000
         C            0.677609078209     1.356030894181     0.138017120630    12.000000000000
         H            0.901039078209    -1.194547105819     1.533793120630     1.007825032230
         H            1.274688078209    -2.221513105819     0.135016120630     1.007825032230
         H           -1.126571921791    -2.158118105819    -0.273567879370     1.007825032230
         H           -1.242945921791     2.049228894181     0.643576120630     1.007825032230
         H           -2.957672621791     0.617801694181    -1.146956179370     1.007825032230
         H           -3.361187921791     0.426273894181     0.583281120630     1.007825032230
         H           -3.205992921791    -0.992097105819    -0.468077879370     1.007825032230
         H            1.143550078209     2.335426894181     0.201797120630     1.007825032230

  Basis Set: AUG-CC-PVTZ
    Blend: AUG-CC-PVTZ
  Basis Set: (AUG-CC-PVTZ AUX)
    Blend: AUG-CC-PVTZ-JKFIT
	 Reference Energy          =    -629.4569094364115927 [Eh]
	 Singles Energy            =      -0.0000000000000000 [Eh]
	 Same-Spin Energy          =      -0.3116693807645462 [Eh]
	 Opposite-Spin Energy      =      -1.0186113578932097 [Eh]
	 Correlation Energy        =      -1.3302807386577560 [Eh]
	 Total Energy              =    -630.7871901750693269 [Eh]

	 ================> DF-SCS-MP2 Energies <==================
	-----------------------------------------------------------
	 SCS Same-Spin Scale       =       0.3333333333333333 [-]
	 SCS Opposite-Spin Scale   =       1.2000000000000000 [-]
	 SCS Same-Spin Energy      =      -0.1038897935881821 [Eh]
	 SCS Opposite-Spin Energy  =      -1.2223336294718516 [Eh]
	 SCS Correlation Energy    =      -1.3262234230600336 [Eh]
	 SCS Total Energy          =    -630.7831328594716069 [Eh]
	-----------------------------------------------------------

  Dipole Moment: [D]
     X:    -1.0992      Y:    -0.2953      Z:     0.5405     Total:     1.2600

*** Psi4 exiting successfully. Buy a developer a beer!
