                               Psi4 1.4a3.dev225

  ==> Input File <==

--------------------------------------------------------------------------
#psi4
#
memory 32 gb

molecule  {
0 1
  S        1.8205190     0.0641380    -0.3390420
  C       -1.2625450    -0.0636770     0.0596210
  C        0.8711260    -1.2781040     0.4345100
  C       -0.5666070    -1.2221760     0.0100460
  C       -0.5777350     1.1920400     0.3472900
  C       -2.7289820     0.0096020    -0.2663480
  C        0.7484780     1.3650420     0.1277540
  H        0.9719080    -1.1855360     1.5235300
  H        1.3889727    -2.2980097     0.0964068
  H       -1.0557030    -2.1491070    -0.2838310
  H       -1.1720770     2.0582400     0.6333130
  H       -2.9093790     0.6497060    -1.1365390
  H       -3.2903190     0.4352850     0.5730180
  H       -3.1351240    -0.9830860    -0.4783410
  H        1.2144190     2.3444380     0.1915340
units angstrom
no_reorient  #important for SAPT in psi4, default
symmetry c1  #important for SAPT in psi4, default
}

set PROPERTIES_ORIGIN ["COM"]
properties('MP2/aug-cc-pvtz', properties = ['dipole'])
--------------------------------------------------------------------------

    Molecular point group: c1
  Charge       = 0
  Multiplicity = 1
  Basis Set: AUG-CC-PVTZ
    Blend: AUG-CC-PVTZ
  Basis Set: (AUG-CC-PVTZ AUX)
    Blend: AUG-CC-PVTZ-JKFIT

    Orbital Energies [Eh]
    ---------------------

    Doubly Occupied:

       1A    -91.960092     2A    -11.275192     3A    -11.268697
       4A    -11.244777     5A    -11.238378     6A    -11.232959
       7A    -11.227214     8A     -8.960566     9A     -6.641791
      10A     -6.640854    11A     -6.639989    12A     -1.144785
      13A     -1.046793    14A     -1.019773    15A     -0.936770
      16A     -0.842866    17A     -0.804203    18A     -0.676735
      19A     -0.661176    20A     -0.619528    21A     -0.595858
      22A     -0.577284    23A     -0.567682    24A     -0.534367
      25A     -0.515007    26A     -0.475310    27A     -0.459608
      28A     -0.440288    29A     -0.354129    30A     -0.295895

  @DF-RHF Final Energy:  -629.45023517771961

   => Energetics <=

    Nuclear Repulsion Energy =            346.2844971316409897
    One-Electron Energy =               -1549.6723311310677218
    Two-Electron Energy =                 573.9375988217070699
    Total Energy =                       -629.4502351777196054
  Basis Set: (AUG-CC-PVTZ AUX)
    Blend: AUG-CC-PVTZ-RI
    Molecular point group: c1

    Geometry (in Angstrom), charge = 0, multiplicity = 1:

       Center              X                  Y                   Z               Mass
    ------------   -----------------  -----------------  -----------------  -----------------
         S            1.749462605201     0.055690152498    -0.328709919594    31.972071174400
         C           -1.333601394799    -0.072124847502     0.069953080406    12.000000000000
         C            0.800069605201    -1.286551847502     0.444842080406    12.000000000000
         C           -0.637663394799    -1.230623847502     0.020378080406    12.000000000000
         C           -0.648791394799     1.183592152498     0.357622080406    12.000000000000
         C           -2.800038394799     0.001154152498    -0.256015919594    12.000000000000
         C            0.677421605201     1.356594152498     0.138086080406    12.000000000000
         H            0.900851605201    -1.193983847502     1.533862080406     1.007825032230
         H            1.317916305201    -2.306457547502     0.106738880406     1.007825032230
         H           -1.126759394799    -2.157554847502    -0.273498919594     1.007825032230
         H           -1.243133394799     2.049792152498     0.643645080406     1.007825032230
         H           -2.980435394799     0.641258152498    -1.126206919594     1.007825032230
         H           -3.361375394799     0.426837152498     0.583350080406     1.007825032230
         H           -3.206180394799    -0.991533847502    -0.468008919594     1.007825032230
         H            1.143362605201     2.335990152498     0.201866080406     1.007825032230

  Basis Set: AUG-CC-PVTZ
    Blend: AUG-CC-PVTZ
  Basis Set: (AUG-CC-PVTZ AUX)
    Blend: AUG-CC-PVTZ-JKFIT
	 Reference Energy          =    -629.4502351777196054 [Eh]
	 Singles Energy            =      -0.0000000000000000 [Eh]
	 Same-Spin Energy          =      -0.3117572248585757 [Eh]
	 Opposite-Spin Energy      =      -1.0193953500874402 [Eh]
	 Correlation Energy        =      -1.3311525749460160 [Eh]
	 Total Energy              =    -630.7813877526656370 [Eh]

	 ================> DF-SCS-MP2 Energies <==================
	-----------------------------------------------------------
	 SCS Same-Spin Scale       =       0.3333333333333333 [-]
	 SCS Opposite-Spin Scale   =       1.2000000000000000 [-]
	 SCS Same-Spin Energy      =      -0.1039190749528586 [Eh]
	 SCS Opposite-Spin Energy  =      -1.2232744201049282 [Eh]
	 SCS Correlation Energy    =      -1.3271934950577866 [Eh]
	 SCS Total Energy          =    -630.7774286727774324 [Eh]
	-----------------------------------------------------------

  Dipole Moment: [D]
     X:    -1.1246      Y:    -0.2474      Z:     0.5394     Total:     1.2715

*** Psi4 exiting successfully. Buy a developer a beer!
