                               Psi4 1.4a3.dev225

  ==> Input File <==

--------------------------------------------------------------------------
#psi4
#
memory 32 gb

molecule  {
0 1
  S        1.8205190     0.0641380    -0.3390420
  C       -1.2625450    -0.0636770     0.0596210
  C        0.8711260    -1.2781040     0.4345100
  C       -0.5666070    -1.2221760     0.0100460
  C       -0.5777350     1.1920400     0.3472900
  C       -2.7289820     0.0096020    -0.2663480
  C        0.7178334     1.4022288     0.1410975
  H        0.9719080    -1.1855360     1.5235300
  H        1.3455570    -2.2125020     0.1247530
  H       -1.0557030    -2.1491070    -0.2838310
  H       -1.1720770     2.0582400     0.6333130
  H       -2.9093790     0.6497060    -1.1365390
  H       -3.2903190     0.4352850     0.5730180
  H       -3.1351240    -0.9830860    -0.4783410
  H        1.2144190     2.3444380     0.1915340
units angstrom
no_reorient  #important for SAPT in psi4, default
symmetry c1  #important for SAPT in psi4, default
}

set PROPERTIES_ORIGIN ["COM"]
properties('MP2/aug-cc-pvtz', properties = ['dipole'])
--------------------------------------------------------------------------

    Molecular point group: c1
  Charge       = 0
  Multiplicity = 1
  Basis Set: AUG-CC-PVTZ
    Blend: AUG-CC-PVTZ
  Basis Set: (AUG-CC-PVTZ AUX)
    Blend: AUG-CC-PVTZ-JKFIT

    Orbital Energies [Eh]
    ---------------------

    Doubly Occupied:

       1A    -91.956682     2A    -11.265774     3A    -11.263166
       4A    -11.245153     5A    -11.236644     6A    -11.233822
       7A    -11.227627     8A     -8.956518     9A     -6.637676
      10A     -6.636808    11A     -6.635943    12A     -1.144397
      13A     -1.042889    14A     -1.027717    15A     -0.934568
      16A     -0.846369    17A     -0.807933    18A     -0.677252
      19A     -0.668484    20A     -0.622004    21A     -0.604309
      22A     -0.577318    23A     -0.569955    24A     -0.534714
      25A     -0.517688    26A     -0.474973    27A     -0.452859
      28A     -0.441448    29A     -0.351431    30A     -0.301025

  @DF-RHF Final Energy:  -629.45679923820467

   => Energetics <=

    Nuclear Repulsion Energy =            346.2107633231486830
    One-Electron Energy =               -1549.5488309289673907
    Two-Electron Energy =                 573.8812683676139841
    Total Energy =                       -629.4567992382046668
  Basis Set: (AUG-CC-PVTZ AUX)
    Blend: AUG-CC-PVTZ-RI
    Molecular point group: c1

    Geometry (in Angstrom), charge = 0, multiplicity = 1:

       Center              X                  Y                   Z               Mass
    ------------   -----------------  -----------------  -----------------  -----------------
         S            1.753135491675     0.050937887920    -0.330394130450    31.972071174400
         C           -1.329928508325    -0.076877112080     0.068268869550    12.000000000000
         C            0.803742491675    -1.291304112080     0.443157869550    12.000000000000
         C           -0.633990508325    -1.235376112080     0.018693869550    12.000000000000
         C           -0.645118508325     1.178839887920     0.355937869550    12.000000000000
         C           -2.796365508325    -0.003598112080    -0.257700130450    12.000000000000
         C            0.650449891675     1.389028687920     0.149745369550    12.000000000000
         H            0.904524491675    -1.198736112080     1.532177869550     1.007825032230
         H            1.278173491675    -2.225702112080     0.133400869550     1.007825032230
         H           -1.123086508325    -2.162307112080    -0.275183130450     1.007825032230
         H           -1.239460508325     2.045039887920     0.641960869550     1.007825032230
         H           -2.976762508325     0.636505887920    -1.127891130450     1.007825032230
         H           -3.357702508325     0.422084887920     0.581665869550     1.007825032230
         H           -3.202507508325    -0.996286112080    -0.469693130450     1.007825032230
         H            1.147035491675     2.331237887920     0.200181869550     1.007825032230

  Basis Set: AUG-CC-PVTZ
    Blend: AUG-CC-PVTZ
  Basis Set: (AUG-CC-PVTZ AUX)
    Blend: AUG-CC-PVTZ-JKFIT
	 Reference Energy          =    -629.4567992382046668 [Eh]
	 Singles Energy            =      -0.0000000000000000 [Eh]
	 Same-Spin Energy          =      -0.3107321641456723 [Eh]
	 Opposite-Spin Energy      =      -1.0177147557123805 [Eh]
	 Correlation Energy        =      -1.3284469198580529 [Eh]
	 Total Energy              =    -630.7852461580627050 [Eh]

	 ================> DF-SCS-MP2 Energies <==================
	-----------------------------------------------------------
	 SCS Same-Spin Scale       =       0.3333333333333333 [-]
	 SCS Opposite-Spin Scale   =       1.2000000000000000 [-]
	 SCS Same-Spin Energy      =      -0.1035773880485574 [Eh]
	 SCS Opposite-Spin Energy  =      -1.2212577068548565 [Eh]
	 SCS Correlation Energy    =      -1.3248350949034138 [Eh]
	 SCS Total Energy          =    -630.7816343331080589 [Eh]
	-----------------------------------------------------------

  Dipole Moment: [D]
     X:    -1.2426      Y:    -0.2341      Z:     0.5753     Total:     1.3892

*** Psi4 exiting successfully. Buy a developer a beer!
