                               Psi4 1.4a3.dev225

  ==> Input File <==

--------------------------------------------------------------------------
#psi4
#
memory 32 gb

molecule  {
0 1
  S        1.8205190     0.0641380    -0.3390420
  C       -1.2625450    -0.0636770     0.0596210
  C        0.8711260    -1.2781040     0.4345100
  C       -0.5666070    -1.2221760     0.0100460
  C       -0.5777350     1.1920400     0.3472900
  C       -2.7289820     0.0096020    -0.2663480
  C        0.7484780     1.3650420     0.1277540
  H        0.9719080    -1.1855360     1.5235300
  H        1.3455570    -2.2125020     0.1247530
  H       -1.0557030    -2.1491070    -0.2838310
  H       -1.1720770     2.0582400     0.6333130
  H       -2.9317345     0.6718193    -1.1147985
  H       -3.2903190     0.4352850     0.5730180
  H       -3.1351240    -0.9830860    -0.4783410
  H        1.2144190     2.3444380     0.1915340
units angstrom
no_reorient  #important for SAPT in psi4, default
symmetry c1  #important for SAPT in psi4, default
}

set PROPERTIES_ORIGIN ["COM"]
properties('MP2/aug-cc-pvtz', properties = ['dipole'])
--------------------------------------------------------------------------

    Molecular point group: c1
  Charge       = 0
  Multiplicity = 1
  Basis Set: AUG-CC-PVTZ
    Blend: AUG-CC-PVTZ
  Basis Set: (AUG-CC-PVTZ AUX)
    Blend: AUG-CC-PVTZ-JKFIT

    Orbital Energies [Eh]
    ---------------------

    Doubly Occupied:

       1A    -91.959301     2A    -11.268290     3A    -11.264111
       4A    -11.244436     5A    -11.237963     6A    -11.232300
       7A    -11.226827     8A     -8.959850     9A     -6.641088
      10A     -6.640148    11A     -6.639289    12A     -1.144886
      13A     -1.046886    14A     -1.022746    15A     -0.936404
      16A     -0.849342    17A     -0.804035    18A     -0.676334
      19A     -0.663472    20A     -0.620510    21A     -0.604237
      22A     -0.576688    23A     -0.566733    24A     -0.535694
      25A     -0.518665    26A     -0.477607    27A     -0.460763
      28A     -0.439703    29A     -0.353611    30A     -0.295493

  @DF-RHF Final Energy:  -629.45692295663127

   => Energetics <=

    Nuclear Repulsion Energy =            346.7531194304466453
    One-Electron Energy =               -1550.6052609032599321
    Two-Electron Energy =                 574.3952185161821262
    Total Energy =                       -629.4569229566312742
  Basis Set: (AUG-CC-PVTZ AUX)
    Blend: AUG-CC-PVTZ-RI
    Molecular point group: c1

    Geometry (in Angstrom), charge = 0, multiplicity = 1:

       Center              X                  Y                   Z               Mass
    ------------   -----------------  -----------------  -----------------  -----------------
         S            1.750054260096     0.054722031322    -0.329160482169    31.972071174400
         C           -1.333009739904    -0.073092968678     0.069502517831    12.000000000000
         C            0.800661260096    -1.287519968678     0.444391517831    12.000000000000
         C           -0.637071739904    -1.231591968678     0.019927517831    12.000000000000
         C           -0.648199739904     1.182624031322     0.357171517831    12.000000000000
         C           -2.799446739904     0.000186031322    -0.256466482169    12.000000000000
         C            0.678013260096     1.355626031322     0.137635517831    12.000000000000
         H            0.901443260096    -1.194951968678     1.533411517831     1.007825032230
         H            1.275092260096    -2.221917968678     0.134634517831     1.007825032230
         H           -1.126167739904    -2.158522968678    -0.273949482169     1.007825032230
         H           -1.242541739904     2.048824031322     0.643194517831     1.007825032230
         H           -3.002199239904     0.662403331322    -1.104916982169     1.007825032230
         H           -3.360783739904     0.425869031322     0.582899517831     1.007825032230
         H           -3.205588739904    -0.992501968678    -0.468459482169     1.007825032230
         H            1.143954260096     2.335022031322     0.201415517831     1.007825032230

  Basis Set: AUG-CC-PVTZ
    Blend: AUG-CC-PVTZ
  Basis Set: (AUG-CC-PVTZ AUX)
    Blend: AUG-CC-PVTZ-JKFIT
	 Reference Energy          =    -629.4569229566312742 [Eh]
	 Singles Energy            =      -0.0000000000000000 [Eh]
	 Same-Spin Energy          =      -0.3116604979869187 [Eh]
	 Opposite-Spin Energy      =      -1.0185663557814475 [Eh]
	 Correlation Energy        =      -1.3302268537683664 [Eh]
	 Total Energy              =    -630.7871498103996828 [Eh]

	 ================> DF-SCS-MP2 Energies <==================
	-----------------------------------------------------------
	 SCS Same-Spin Scale       =       0.3333333333333333 [-]
	 SCS Opposite-Spin Scale   =       1.2000000000000000 [-]
	 SCS Same-Spin Energy      =      -0.1038868326623062 [Eh]
	 SCS Opposite-Spin Energy  =      -1.2222796269377370 [Eh]
	 SCS Correlation Energy    =      -1.3261664596000431 [Eh]
	 SCS Total Energy          =    -630.7830894162312916 [Eh]
	-----------------------------------------------------------

  Dipole Moment: [D]
     X:    -1.1040      Y:    -0.2761      Z:     0.5512     Total:     1.2644

*** Psi4 exiting successfully. Buy a developer a beer!
