                               Psi4 1.4a3.dev225

  ==> Input File <==

--------------------------------------------------------------------------
#psi4
#
memory 32 gb

molecule  {
0 1
  S        1.8205190     0.0641380    -0.3390420
  C       -1.2625450    -0.0636770     0.0596210
  C        0.8711260    -1.2781040     0.4345100
  C       -0.5408767    -1.2650081     0.0082131
  C       -0.5777350     1.1920400     0.3472900
  C       -2.7289820     0.0096020    -0.2663480
  C        0.7484780     1.3650420     0.1277540
  H        0.9719080    -1.1855360     1.5235300
  H        1.3455570    -2.2125020     0.1247530
  H       -1.0557030    -2.1491070    -0.2838310
  H       -1.1720770     2.0582400     0.6333130
  H       -2.9093790     0.6497060    -1.1365390
  H       -3.2903190     0.4352850     0.5730180
  H       -3.1351240    -0.9830860    -0.4783410
  H        1.2144190     2.3444380     0.1915340
units angstrom
no_reorient  #important for SAPT in psi4, default
symmetry c1  #important for SAPT in psi4, default
}

set PROPERTIES_ORIGIN ["COM"]
properties('MP2/aug-cc-pvtz', properties = ['dipole'])
--------------------------------------------------------------------------

    Molecular point group: c1
  Charge       = 0
  Multiplicity = 1
  Basis Set: AUG-CC-PVTZ
    Blend: AUG-CC-PVTZ
  Basis Set: (AUG-CC-PVTZ AUX)
    Blend: AUG-CC-PVTZ-JKFIT

    Orbital Energies [Eh]
    ---------------------

    Doubly Occupied:

       1A    -91.960244     2A    -11.269288     3A    -11.262774
       4A    -11.251240     5A    -11.238479     6A    -11.234170
       7A    -11.227444     8A     -8.960744     9A     -6.641968
      10A     -6.641024    11A     -6.640174    12A     -1.142314
      13A     -1.044144    14A     -1.026117    15A     -0.935761
      16A     -0.844395    17A     -0.806972    18A     -0.679037
      19A     -0.663088    20A     -0.619416    21A     -0.604752
      22A     -0.579107    23A     -0.569866    24A     -0.535010
      25A     -0.517880    26A     -0.477188    27A     -0.461354
      28A     -0.440171    29A     -0.349738    30A     -0.291219

  @DF-RHF Final Energy:  -629.45092125795475

   => Energetics <=

    Nuclear Repulsion Energy =            346.2351198492401636
    One-Electron Energy =               -1549.5419249871092688
    Two-Electron Energy =                 573.8558838799143587
    Total Energy =                       -629.4509212579547466
  Basis Set: (AUG-CC-PVTZ AUX)
    Blend: AUG-CC-PVTZ-RI
    Molecular point group: c1

    Geometry (in Angstrom), charge = 0, multiplicity = 1:

       Center              X                  Y                   Z               Mass
    ------------   -----------------  -----------------  -----------------  -----------------
         S            1.747097193072     0.059508688260    -0.328768590805    31.972071174400
         C           -1.335966806928    -0.068306311740     0.069894409195    12.000000000000
         C            0.797704193072    -1.282733311740     0.444783409195    12.000000000000
         C           -0.614298506928    -1.269637411740     0.018486509195    12.000000000000
         C           -0.651156806928     1.187410688260     0.357563409195    12.000000000000
         C           -2.802403806928     0.004972688260    -0.256074590805    12.000000000000
         C            0.675056193072     1.360412688260     0.138027409195    12.000000000000
         H            0.898486193072    -1.190165311740     1.533803409195     1.007825032230
         H            1.272135193072    -2.217131311740     0.135026409195     1.007825032230
         H           -1.129124806928    -2.153736311740    -0.273557590805     1.007825032230
         H           -1.245498806928     2.053610688260     0.643586409195     1.007825032230
         H           -2.982800806928     0.645076688260    -1.126265590805     1.007825032230
         H           -3.363740806928     0.430655688260     0.583291409195     1.007825032230
         H           -3.208545806928    -0.987715311740    -0.468067590805     1.007825032230
         H            1.140997193072     2.339808688260     0.201807409195     1.007825032230

  Basis Set: AUG-CC-PVTZ
    Blend: AUG-CC-PVTZ
  Basis Set: (AUG-CC-PVTZ AUX)
    Blend: AUG-CC-PVTZ-JKFIT
	 Reference Energy          =    -629.4509212579547466 [Eh]
	 Singles Energy            =      -0.0000000000000000 [Eh]
	 Same-Spin Energy          =      -0.3126873738734320 [Eh]
	 Opposite-Spin Energy      =      -1.0202799002000429 [Eh]
	 Correlation Energy        =      -1.3329672740734750 [Eh]
	 Total Energy              =    -630.7838885320281861 [Eh]

	 ================> DF-SCS-MP2 Energies <==================
	-----------------------------------------------------------
	 SCS Same-Spin Scale       =       0.3333333333333333 [-]
	 SCS Opposite-Spin Scale   =       1.2000000000000000 [-]
	 SCS Same-Spin Energy      =      -0.1042291246244773 [Eh]
	 SCS Opposite-Spin Energy  =      -1.2243358802400515 [Eh]
	 SCS Correlation Energy    =      -1.3285650048645288 [Eh]
	 SCS Total Energy          =    -630.7794862628193187 [Eh]
	-----------------------------------------------------------

  Dipole Moment: [D]
     X:    -1.0946      Y:    -0.2556      Z:     0.5406     Total:     1.2473

*** Psi4 exiting successfully. Buy a developer a beer!
