                               Psi4 1.4a3.dev225

  ==> Input File <==

--------------------------------------------------------------------------
#psi4
#
memory 32 gb

molecule  {
0 1
  S        1.8205190     0.0641380    -0.3390420
  C       -1.2625450    -0.0636770     0.0596210
  C        0.8711260    -1.2781040     0.4345100
  C       -0.5666070    -1.2221760     0.0100460
  C       -0.5777350     1.1920400     0.3472900
  C       -2.7289820     0.0096020    -0.2663480
  C        0.7484780     1.3650420     0.1277540
  H        0.9719080    -1.1855360     1.5235300
  H        1.3455570    -2.2125020     0.1247530
  H       -1.0107690    -2.0639484    -0.2568321
  H       -1.1720770     2.0582400     0.6333130
  H       -2.9093790     0.6497060    -1.1365390
  H       -3.2903190     0.4352850     0.5730180
  H       -3.1351240    -0.9830860    -0.4783410
  H        1.2144190     2.3444380     0.1915340
units angstrom
no_reorient  #important for SAPT in psi4, default
symmetry c1  #important for SAPT in psi4, default
}

set PROPERTIES_ORIGIN ["COM"]
properties('MP2/aug-cc-pvtz', properties = ['dipole'])
--------------------------------------------------------------------------

    Molecular point group: c1
  Charge       = 0
  Multiplicity = 1
  Basis Set: AUG-CC-PVTZ
    Blend: AUG-CC-PVTZ
  Basis Set: (AUG-CC-PVTZ AUX)
    Blend: AUG-CC-PVTZ-JKFIT

    Orbital Energies [Eh]
    ---------------------

    Doubly Occupied:

       1A    -91.958712     2A    -11.267936     3A    -11.263061
       4A    -11.243571     5A    -11.237159     6A    -11.226978
       7A    -11.220064     8A     -8.959265     9A     -6.640505
      10A     -6.639565    11A     -6.638710    12A     -1.145272
      13A     -1.047279    14A     -1.024528    15A     -0.937399
      16A     -0.851129    17A     -0.809449    18A     -0.688722
      19A     -0.662765    20A     -0.619307    21A     -0.604118
      22A     -0.584123    23A     -0.570042    24A     -0.534850
      25A     -0.517525    26A     -0.479673    27A     -0.460222
      28A     -0.439891    29A     -0.353228    30A     -0.295039

  @DF-RHF Final Energy:  -629.45125420415832

   => Energetics <=

    Nuclear Repulsion Energy =            347.3267866803585093
    One-Electron Energy =               -1551.7159122818547985
    Two-Electron Energy =                 574.9378713973379718
    Total Energy =                       -629.4512542041583174
  Basis Set: (AUG-CC-PVTZ AUX)
    Blend: AUG-CC-PVTZ-RI
    Molecular point group: c1

    Geometry (in Angstrom), charge = 0, multiplicity = 1:

       Center              X                  Y                   Z               Mass
    ------------   -----------------  -----------------  -----------------  -----------------
         S            1.749448947101     0.054154897678    -0.329207784911    31.972071174400
         C           -1.333615052899    -0.073660102322     0.069455215089    12.000000000000
         C            0.800055947101    -1.288087102322     0.444344215089    12.000000000000
         C           -0.637677052899    -1.232159102322     0.019880215089    12.000000000000
         C           -0.648805052899     1.182056897678     0.357124215089    12.000000000000
         C           -2.800052052899    -0.000381102322    -0.256513784911    12.000000000000
         C            0.677407947101     1.355058897678     0.137588215089    12.000000000000
         H            0.900837947101    -1.195519102322     1.533364215089     1.007825032230
         H            1.274486947101    -2.222485102322     0.134587215089     1.007825032230
         H           -1.081839052899    -2.073931502322    -0.246997884911     1.007825032230
         H           -1.243147052899     2.048256897678     0.643147215089     1.007825032230
         H           -2.980449052899     0.639722897678    -1.126704784911     1.007825032230
         H           -3.361389052899     0.425301897678     0.582852215089     1.007825032230
         H           -3.206194052899    -0.993069102322    -0.468506784911     1.007825032230
         H            1.143348947101     2.334454897678     0.201368215089     1.007825032230

  Basis Set: AUG-CC-PVTZ
    Blend: AUG-CC-PVTZ
  Basis Set: (AUG-CC-PVTZ AUX)
    Blend: AUG-CC-PVTZ-JKFIT
	 Reference Energy          =    -629.4512542041583174 [Eh]
	 Singles Energy            =      -0.0000000000000000 [Eh]
	 Same-Spin Energy          =      -0.3114730865874626 [Eh]
	 Opposite-Spin Energy      =      -1.0180890141504844 [Eh]
	 Correlation Energy        =      -1.3295621007379470 [Eh]
	 Total Energy              =    -630.7808163048962342 [Eh]

	 ================> DF-SCS-MP2 Energies <==================
	-----------------------------------------------------------
	 SCS Same-Spin Scale       =       0.3333333333333333 [-]
	 SCS Opposite-Spin Scale   =       1.2000000000000000 [-]
	 SCS Same-Spin Energy      =      -0.1038243621958209 [Eh]
	 SCS Opposite-Spin Energy  =      -1.2217068169805811 [Eh]
	 SCS Correlation Energy    =      -1.3255311791764020 [Eh]
	 SCS Total Energy          =    -630.7767853833347544 [Eh]
	-----------------------------------------------------------

  Dipole Moment: [D]
     X:    -1.1327      Y:    -0.3131      Z:     0.5391     Total:     1.2930

*** Psi4 exiting successfully. Buy a developer a beer!
