                               Psi4 1.4a3.dev225

  ==> Input File <==

--------------------------------------------------------------------------
#psi4
#
memory 32 gb

molecule  {
0 1
  S        1.8205190     0.0641380    -0.3390420
  C       -1.2625450    -0.0636770     0.0596210
  C        0.8711260    -1.2781040     0.4345100
  C       -0.5666070    -1.2221760     0.0100460
  C       -0.5777350     1.1920400     0.3472900
  C       -2.7289820     0.0096020    -0.2663480
  C        0.7484780     1.3650420     0.1277540
  H        0.9719080    -1.1855360     1.5235300
  H        1.3455570    -2.2125020     0.1247530
  H       -1.0557030    -2.1491070    -0.2838310
  H       -1.1720770     2.0582400     0.6333130
  H       -2.9011434     0.6204834    -1.0968123
  H       -3.2903190     0.4352850     0.5730180
  H       -3.1351240    -0.9830860    -0.4783410
  H        1.2144190     2.3444380     0.1915340
units angstrom
no_reorient  #important for SAPT in psi4, default
symmetry c1  #important for SAPT in psi4, default
}

set PROPERTIES_ORIGIN ["COM"]
properties('MP2/aug-cc-pvtz', properties = ['dipole'])
--------------------------------------------------------------------------

    Molecular point group: c1
  Charge       = 0
  Multiplicity = 1
  Basis Set: AUG-CC-PVTZ
    Blend: AUG-CC-PVTZ
  Basis Set: (AUG-CC-PVTZ AUX)
    Blend: AUG-CC-PVTZ-JKFIT

    Orbital Energies [Eh]
    ---------------------

    Doubly Occupied:

       1A    -91.959169     2A    -11.268224     3A    -11.263814
       4A    -11.243731     5A    -11.237826     6A    -11.231722
       7A    -11.220692     8A     -8.959718     9A     -6.640956
      10A     -6.640016    11A     -6.639159    12A     -1.144813
      13A     -1.047959    14A     -1.022539    15A     -0.939740
      16A     -0.849479    17A     -0.804260    18A     -0.676078
      19A     -0.663988    20A     -0.620295    21A     -0.605053
      22A     -0.578772    23A     -0.573936    24A     -0.534718
      25A     -0.518218    26A     -0.477357    27A     -0.460630
      28A     -0.440186    29A     -0.353750    30A     -0.295273

  @DF-RHF Final Energy:  -629.45605683459462

   => Energetics <=

    Nuclear Repulsion Energy =            346.9993973882081377
    One-Electron Energy =               -1551.0867707470304140
    Two-Electron Energy =                 574.6313165242277137
    Total Energy =                       -629.4560568345946194
  Basis Set: (AUG-CC-PVTZ AUX)
    Blend: AUG-CC-PVTZ-RI
    Molecular point group: c1

    Geometry (in Angstrom), charge = 0, multiplicity = 1:

       Center              X                  Y                   Z               Mass
    ------------   -----------------  -----------------  -----------------  -----------------
         S            1.749779073175     0.055183831267    -0.329322279783    31.972071174400
         C           -1.333284926825    -0.072631168733     0.069340720217    12.000000000000
         C            0.800386073175    -1.287058168733     0.444229720217    12.000000000000
         C           -0.637346926825    -1.231130168733     0.019765720217    12.000000000000
         C           -0.648474926825     1.183085831267     0.357009720217    12.000000000000
         C           -2.799721926825     0.000647831267    -0.256628279783    12.000000000000
         C            0.677738073175     1.356087831267     0.137473720217    12.000000000000
         H            0.901168073175    -1.194490168733     1.533249720217     1.007825032230
         H            1.274817073175    -2.221456168733     0.134472720217     1.007825032230
         H           -1.126442926825    -2.158061168733    -0.274111279783     1.007825032230
         H           -1.242816926825     2.049285831267     0.643032720217     1.007825032230
         H           -2.971883326825     0.611529231267    -1.087092579783     1.007825032230
         H           -3.361058926825     0.426330831267     0.582737720217     1.007825032230
         H           -3.205863926825    -0.992040168733    -0.468621279783     1.007825032230
         H            1.143679073175     2.335483831267     0.201253720217     1.007825032230

  Basis Set: AUG-CC-PVTZ
    Blend: AUG-CC-PVTZ
  Basis Set: (AUG-CC-PVTZ AUX)
    Blend: AUG-CC-PVTZ-JKFIT
	 Reference Energy          =    -629.4560568345946194 [Eh]
	 Singles Energy            =      -0.0000000000000000 [Eh]
	 Same-Spin Energy          =      -0.3116779319561352 [Eh]
	 Opposite-Spin Energy      =      -1.0183249451335046 [Eh]
	 Correlation Energy        =      -1.3300028770896399 [Eh]
	 Total Energy              =    -630.7860597116842882 [Eh]

	 ================> DF-SCS-MP2 Energies <==================
	-----------------------------------------------------------
	 SCS Same-Spin Scale       =       0.3333333333333333 [-]
	 SCS Opposite-Spin Scale   =       1.2000000000000000 [-]
	 SCS Same-Spin Energy      =      -0.1038926439853784 [Eh]
	 SCS Opposite-Spin Energy  =      -1.2219899341602054 [Eh]
	 SCS Correlation Energy    =      -1.3258825781455839 [Eh]
	 SCS Total Energy          =    -630.7819394127402575 [Eh]
	-----------------------------------------------------------

  Dipole Moment: [D]
     X:    -1.1178      Y:    -0.2736      Z:     0.5297     Total:     1.2669

*** Psi4 exiting successfully. Buy a developer a beer!
