                               Psi4 1.4a3.dev225

  ==> Input File <==

--------------------------------------------------------------------------
#psi4
#
memory 32 gb

molecule  {
0 1
  S        1.8435466     0.0841031    -0.3407989
  C       -1.2625450    -0.0636770     0.0596210
  C        0.8711260    -1.2781040     0.4345100
  C       -0.5666070    -1.2221760     0.0100460
  C       -0.5777350     1.1920400     0.3472900
  C       -2.7289820     0.0096020    -0.2663480
  C        0.7484780     1.3650420     0.1277540
  H        0.9719080    -1.1855360     1.5235300
  H        1.3455570    -2.2125020     0.1247530
  H       -1.0557030    -2.1491070    -0.2838310
  H       -1.1720770     2.0582400     0.6333130
  H       -2.9093790     0.6497060    -1.1365390
  H       -3.2903190     0.4352850     0.5730180
  H       -3.1351240    -0.9830860    -0.4783410
  H        1.2144190     2.3444380     0.1915340
units angstrom
no_reorient  #important for SAPT in psi4, default
symmetry c1  #important for SAPT in psi4, default
}

set PROPERTIES_ORIGIN ["COM"]
properties('MP2/aug-cc-pvtz', properties = ['dipole'])
--------------------------------------------------------------------------

    Molecular point group: c1
  Charge       = 0
  Multiplicity = 1
  Basis Set: AUG-CC-PVTZ
    Blend: AUG-CC-PVTZ
  Basis Set: (AUG-CC-PVTZ AUX)
    Blend: AUG-CC-PVTZ-JKFIT

    Orbital Energies [Eh]
    ---------------------

    Doubly Occupied:

       1A    -91.960562     2A    -11.268608     3A    -11.266115
       4A    -11.244460     5A    -11.237784     6A    -11.232047
       7A    -11.226890     8A     -8.960657     9A     -6.641866
      10A     -6.640896    11A     -6.640074    12A     -1.142959
      13A     -1.045542    14A     -1.021113    15A     -0.936371
      16A     -0.849765    17A     -0.803203    18A     -0.676200
      19A     -0.662548    20A     -0.619187    21A     -0.604074
      22A     -0.574881    23A     -0.569416    24A     -0.534039
      25A     -0.516624    26A     -0.475017    27A     -0.461918
      28A     -0.440231    29A     -0.354873    30A     -0.294976

  @DF-RHF Final Energy:  -629.45651411450717

   => Energetics <=

    Nuclear Repulsion Energy =            345.8031383727475259
    One-Electron Energy =               -1548.7135137437317098
    Two-Electron Energy =                 573.4538612564770119
    Total Energy =                       -629.4565141145071721
  Basis Set: (AUG-CC-PVTZ AUX)
    Blend: AUG-CC-PVTZ-RI
    Molecular point group: c1

    Geometry (in Angstrom), charge = 0, multiplicity = 1:

       Center              X                  Y                   Z               Mass
    ------------   -----------------  -----------------  -----------------  -----------------
         S            1.766309220083     0.069188482975    -0.330220434064    31.972071174400
         C           -1.339782379917    -0.078591617025     0.070199465936    12.000000000000
         C            0.793888620083    -1.293018617025     0.445088465936    12.000000000000
         C           -0.643844379917    -1.237090617025     0.020624465936    12.000000000000
         C           -0.654972379917     1.177125382975     0.357868465936    12.000000000000
         C           -2.806219379917    -0.005312617025    -0.255769534064    12.000000000000
         C            0.671240620083     1.350127382975     0.138332465936    12.000000000000
         H            0.894670620083    -1.200450617025     1.534108465936     1.007825032230
         H            1.268319620083    -2.227416617025     0.135331465936     1.007825032230
         H           -1.132940379917    -2.164021617025    -0.273252534064     1.007825032230
         H           -1.249314379917     2.043325382975     0.643891465936     1.007825032230
         H           -2.986616379917     0.634791382975    -1.125960534064     1.007825032230
         H           -3.367556379917     0.420370382975     0.583596465936     1.007825032230
         H           -3.212361379917    -0.998000617025    -0.467762534064     1.007825032230
         H            1.137181620083     2.329523382975     0.202112465936     1.007825032230

  Basis Set: AUG-CC-PVTZ
    Blend: AUG-CC-PVTZ
  Basis Set: (AUG-CC-PVTZ AUX)
    Blend: AUG-CC-PVTZ-JKFIT
	 Reference Energy          =    -629.4565141145071721 [Eh]
	 Singles Energy            =      -0.0000000000000000 [Eh]
	 Same-Spin Energy          =      -0.3114707140112488 [Eh]
	 Opposite-Spin Energy      =      -1.0187027614327711 [Eh]
	 Correlation Energy        =      -1.3301734754440200 [Eh]
	 Total Energy              =    -630.7866875899511570 [Eh]

	 ================> DF-SCS-MP2 Energies <==================
	-----------------------------------------------------------
	 SCS Same-Spin Scale       =       0.3333333333333333 [-]
	 SCS Opposite-Spin Scale   =       1.2000000000000000 [-]
	 SCS Same-Spin Energy      =      -0.1038235713370829 [Eh]
	 SCS Opposite-Spin Energy  =      -1.2224433137193251 [Eh]
	 SCS Correlation Energy    =      -1.3262668850564081 [Eh]
	 SCS Total Energy          =    -630.7827809995635562 [Eh]
	-----------------------------------------------------------

  Dipole Moment: [D]
     X:    -1.1035      Y:    -0.2949      Z:     0.5408     Total:     1.2638

*** Psi4 exiting successfully. Buy a developer a beer!
