                               Psi4 1.4a3.dev225

  ==> Input File <==

--------------------------------------------------------------------------
#psi4
#
memory 32 gb

molecule  {
0 1
  S        1.8205190     0.0641380    -0.3390420
  C       -1.2625450    -0.0636770     0.0596210
  C        0.8711260    -1.2781040     0.4345100
  C       -0.5768991    -1.2050431     0.0107792
  C       -0.5777350     1.1920400     0.3472900
  C       -2.7289820     0.0096020    -0.2663480
  C        0.7484780     1.3650420     0.1277540
  H        0.9719080    -1.1855360     1.5235300
  H        1.3455570    -2.2125020     0.1247530
  H       -1.0557030    -2.1491070    -0.2838310
  H       -1.1720770     2.0582400     0.6333130
  H       -2.9093790     0.6497060    -1.1365390
  H       -3.2903190     0.4352850     0.5730180
  H       -3.1351240    -0.9830860    -0.4783410
  H        1.2144190     2.3444380     0.1915340
units angstrom
no_reorient  #important for SAPT in psi4, default
symmetry c1  #important for SAPT in psi4, default
}

set PROPERTIES_ORIGIN ["COM"]
properties('MP2/aug-cc-pvtz', properties = ['dipole'])
--------------------------------------------------------------------------

    Molecular point group: c1
  Charge       = 0
  Multiplicity = 1
  Basis Set: AUG-CC-PVTZ
    Blend: AUG-CC-PVTZ
  Basis Set: (AUG-CC-PVTZ AUX)
    Blend: AUG-CC-PVTZ-JKFIT

    Orbital Energies [Eh]
    ---------------------

    Doubly Occupied:

       1A    -91.958885     2A    -11.267918     3A    -11.264541
       4A    -11.241218     5A    -11.237687     6A    -11.231227
       7A    -11.226582     8A     -8.959455     9A     -6.640698
      10A     -6.639759    11A     -6.638898    12A     -1.146144
      13A     -1.048303    14A     -1.021256    15A     -0.936613
      16A     -0.851050    17A     -0.802670    18A     -0.675074
      19A     -0.663170    20A     -0.620058    21A     -0.604486
      22A     -0.575960    23A     -0.569694    24A     -0.534093
      25A     -0.517448    26A     -0.477257    27A     -0.460197
      28A     -0.439957    29A     -0.355384    30A     -0.296915

  @DF-RHF Final Energy:  -629.45751717651581

   => Energetics <=

    Nuclear Repulsion Energy =            347.0097374839407394
    One-Electron Energy =               -1551.1293160662094124
    Two-Electron Energy =                 574.6620614057529792
    Total Energy =                       -629.4575171765158075
  Basis Set: (AUG-CC-PVTZ AUX)
    Blend: AUG-CC-PVTZ-RI
    Molecular point group: c1

    Geometry (in Angstrom), charge = 0, multiplicity = 1:

       Center              X                  Y                   Z               Mass
    ------------   -----------------  -----------------  -----------------  -----------------
         S            1.750955541514     0.053085855125    -0.329043445006    31.972071174400
         C           -1.332108458486    -0.074729144875     0.069619554994    12.000000000000
         C            0.801562541514    -1.289156144875     0.444508554994    12.000000000000
         C           -0.646462558486    -1.216095244875     0.020777754994    12.000000000000
         C           -0.647298458486     1.180987855125     0.357288554994    12.000000000000
         C           -2.798545458486    -0.001450144875    -0.256349445006    12.000000000000
         C            0.678914541514     1.353989855125     0.137752554994    12.000000000000
         H            0.902344541514    -1.196588144875     1.533528554994     1.007825032230
         H            1.275993541514    -2.223554144875     0.134751554994     1.007825032230
         H           -1.125266458486    -2.160159144875    -0.273832445006     1.007825032230
         H           -1.241640458486     2.047187855125     0.643311554994     1.007825032230
         H           -2.978942458486     0.638653855125    -1.126540445006     1.007825032230
         H           -3.359882458486     0.424232855125     0.583016554994     1.007825032230
         H           -3.204687458486    -0.994138144875    -0.468342445006     1.007825032230
         H            1.144855541514     2.333385855125     0.201532554994     1.007825032230

  Basis Set: AUG-CC-PVTZ
    Blend: AUG-CC-PVTZ
  Basis Set: (AUG-CC-PVTZ AUX)
    Blend: AUG-CC-PVTZ-JKFIT
	 Reference Energy          =    -629.4575171765158075 [Eh]
	 Singles Energy            =      -0.0000000000000000 [Eh]
	 Same-Spin Energy          =      -0.3113106304176538 [Eh]
	 Opposite-Spin Energy      =      -1.0180129015156227 [Eh]
	 Correlation Energy        =      -1.3293235319332766 [Eh]
	 Total Energy              =    -630.7868407084490627 [Eh]

	 ================> DF-SCS-MP2 Energies <==================
	-----------------------------------------------------------
	 SCS Same-Spin Scale       =       0.3333333333333333 [-]
	 SCS Opposite-Spin Scale   =       1.2000000000000000 [-]
	 SCS Same-Spin Energy      =      -0.1037702101392179 [Eh]
	 SCS Opposite-Spin Energy  =      -1.2216154818187472 [Eh]
	 SCS Correlation Energy    =      -1.3253856919579652 [Eh]
	 SCS Total Energy          =    -630.7829028684737978 [Eh]
	-----------------------------------------------------------

  Dipole Moment: [D]
     X:    -1.1040      Y:    -0.2972      Z:     0.5477     Total:     1.2677

*** Psi4 exiting successfully. Buy a developer a beer!
