                               Psi4 1.4a3.dev225

  ==> Input File <==

--------------------------------------------------------------------------
#psi4
#
memory 32 gb

molecule  {
0 1
  S        1.8205190     0.0641380    -0.3390420
  C       -1.2625450    -0.0636770     0.0596210
  C        0.8711260    -1.2781040     0.4345100
  C       -0.5666070    -1.2221760     0.0100460
  C       -0.5777350     1.1920400     0.3472900
  C       -2.7289820     0.0096020    -0.2663480
  C        0.6258994     1.5137891     0.1811281
  H        0.9719080    -1.1855360     1.5235300
  H        1.3455570    -2.2125020     0.1247530
  H       -1.0557030    -2.1491070    -0.2838310
  H       -1.1720770     2.0582400     0.6333130
  H       -2.9093790     0.6497060    -1.1365390
  H       -3.2903190     0.4352850     0.5730180
  H       -3.1351240    -0.9830860    -0.4783410
  H        1.2144190     2.3444380     0.1915340
units angstrom
no_reorient  #important for SAPT in psi4, default
symmetry c1  #important for SAPT in psi4, default
}

set PROPERTIES_ORIGIN ["COM"]
properties('MP2/aug-cc-pvtz', properties = ['dipole'])
--------------------------------------------------------------------------

    Molecular point group: c1
  Charge       = 0
  Multiplicity = 1
  Basis Set: AUG-CC-PVTZ
    Blend: AUG-CC-PVTZ
  Basis Set: (AUG-CC-PVTZ AUX)
    Blend: AUG-CC-PVTZ-JKFIT

    Orbital Energies [Eh]
    ---------------------

    Doubly Occupied:

       1A    -91.946472     2A    -11.263399     3A    -11.260226
       4A    -11.248409     5A    -11.238559     6A    -11.234738
       7A    -11.230008     8A     -8.945217     9A     -6.626223
      10A     -6.625414    11A     -6.624546    12A     -1.146985
      13A     -1.046930    14A     -1.032488    15A     -0.929253
      16A     -0.838640    17A     -0.818171    18A     -0.697807
      19A     -0.673256    20A     -0.628282    21A     -0.604294
      22A     -0.577771    23A     -0.569741    24A     -0.537896
      25A     -0.518362    26A     -0.470270    27A     -0.453119
      28A     -0.414069    29A     -0.344000    30A     -0.315026

  @DF-RHF Final Energy:  -629.43115059365869

   => Energetics <=

    Nuclear Repulsion Energy =            344.6785395446195821
    One-Electron Energy =               -1546.5002391985881331
    Two-Electron Energy =                 572.3905490603099224
    Total Energy =                       -629.4311505936586855
  Basis Set: (AUG-CC-PVTZ AUX)
    Blend: AUG-CC-PVTZ-RI
    Molecular point group: c1

    Geometry (in Angstrom), charge = 0, multiplicity = 1:

       Center              X                  Y                   Z               Mass
    ------------   -----------------  -----------------  -----------------  -----------------
         S            1.762982514796     0.038988697702    -0.334681795990    31.972071174400
         C           -1.320081485204    -0.088826302298     0.063981204010    12.000000000000
         C            0.813589514796    -1.303253302298     0.438870204010    12.000000000000
         C           -0.624143485204    -1.247325302298     0.014406204010    12.000000000000
         C           -0.635271485204     1.166890697702     0.351650204010    12.000000000000
         C           -2.786518485204    -0.015547302298    -0.261987795990    12.000000000000
         C            0.568362914796     1.488639797702     0.185488304010    12.000000000000
         H            0.914371514796    -1.210685302298     1.527890204010     1.007825032230
         H            1.288020514796    -2.237651302298     0.129113204010     1.007825032230
         H           -1.113239485204    -2.174256302298    -0.279470795990     1.007825032230
         H           -1.229613485204     2.033090697702     0.637673204010     1.007825032230
         H           -2.966915485204     0.624556697702    -1.132178795990     1.007825032230
         H           -3.347855485204     0.410135697702     0.577378204010     1.007825032230
         H           -3.192660485204    -1.008235302298    -0.473980795990     1.007825032230
         H            1.156882514796     2.319288697702     0.195894204010     1.007825032230

  Basis Set: AUG-CC-PVTZ
    Blend: AUG-CC-PVTZ
  Basis Set: (AUG-CC-PVTZ AUX)
    Blend: AUG-CC-PVTZ-JKFIT
	 Reference Energy          =    -629.4311505936586855 [Eh]
	 Singles Energy            =      -0.0000000000000000 [Eh]
	 Same-Spin Energy          =      -0.3094627355310371 [Eh]
	 Opposite-Spin Energy      =      -1.0169986632313881 [Eh]
	 Correlation Energy        =      -1.3264613987624252 [Eh]
	 Total Energy              =    -630.7576119924210616 [Eh]

	 ================> DF-SCS-MP2 Energies <==================
	-----------------------------------------------------------
	 SCS Same-Spin Scale       =       0.3333333333333333 [-]
	 SCS Opposite-Spin Scale   =       1.2000000000000000 [-]
	 SCS Same-Spin Energy      =      -0.1031542451770124 [Eh]
	 SCS Opposite-Spin Energy  =      -1.2203983958776656 [Eh]
	 SCS Correlation Energy    =      -1.3235526410546781 [Eh]
	 SCS Total Energy          =    -630.7547032347133609 [Eh]
	-----------------------------------------------------------

  Dipole Moment: [D]
     X:    -1.6625      Y:    -0.0358      Z:     0.6729     Total:     1.7939

*** Psi4 exiting successfully. Buy a developer a beer!
