                               Psi4 1.4a3.dev225

  ==> Input File <==

--------------------------------------------------------------------------
#psi4
#
memory 32 gb

molecule  {
0 1
  S        1.8205190     0.0641380    -0.3390420
  C       -1.2625450    -0.0636770     0.0596210
  C        0.8711260    -1.2781040     0.4345100
  C       -0.5666070    -1.2221760     0.0100460
  C       -0.5777350     1.1920400     0.3472900
  C       -2.7289820     0.0096020    -0.2663480
  C        0.7484780     1.3650420     0.1277540
  H        0.9719080    -1.1855360     1.5235300
  H        1.3455570    -2.2125020     0.1247530
  H       -1.1455710    -2.3194242    -0.3378289
  H       -1.1720770     2.0582400     0.6333130
  H       -2.9093790     0.6497060    -1.1365390
  H       -3.2903190     0.4352850     0.5730180
  H       -3.1351240    -0.9830860    -0.4783410
  H        1.2144190     2.3444380     0.1915340
units angstrom
no_reorient  #important for SAPT in psi4, default
symmetry c1  #important for SAPT in psi4, default
}

set PROPERTIES_ORIGIN ["COM"]
properties('MP2/aug-cc-pvtz', properties = ['dipole'])
--------------------------------------------------------------------------

    Molecular point group: c1
  Charge       = 0
  Multiplicity = 1
  Basis Set: AUG-CC-PVTZ
    Blend: AUG-CC-PVTZ
  Basis Set: (AUG-CC-PVTZ AUX)
    Blend: AUG-CC-PVTZ-JKFIT

    Orbital Energies [Eh]
    ---------------------

    Doubly Occupied:

       1A    -91.960928     2A    -11.269541     3A    -11.266579
       4A    -11.253874     5A    -11.246133     6A    -11.239959
       7A    -11.226663     8A     -8.961460     9A     -6.642691
      10A     -6.641748    11A     -6.640885    12A     -1.145459
      13A     -1.047431    14A     -1.021347    15A     -0.935625
      16A     -0.848461    17A     -0.797462    18A     -0.664541
      19A     -0.658593    20A     -0.621087    21A     -0.605760
      22A     -0.570636    23A     -0.558372    24A     -0.532651
      25A     -0.517924    26A     -0.470549    27A     -0.461725
      28A     -0.439854    29A     -0.354890    30A     -0.296904

  @DF-RHF Final Energy:  -629.43520337292159

   => Energetics <=

    Nuclear Repulsion Energy =            345.8567501803111099
    One-Electron Energy =               -1548.7844388626233467
    Two-Electron Energy =                 573.4924853093906449
    Total Energy =                       -629.4352033729215918
  Basis Set: (AUG-CC-PVTZ AUX)
    Blend: AUG-CC-PVTZ-RI
    Molecular point group: c1

    Geometry (in Angstrom), charge = 0, multiplicity = 1:

       Center              X                  Y                   Z               Mass
    ------------   -----------------  -----------------  -----------------  -----------------
         S            1.750661579122     0.056453069334    -0.328479165801    31.972071174400
         C           -1.332402420878    -0.071361930666     0.070183834199    12.000000000000
         C            0.801268579122    -1.285788930666     0.445072834199    12.000000000000
         C           -0.636464420878    -1.229860930666     0.020608834199    12.000000000000
         C           -0.647592420878     1.184355069334     0.357852834199    12.000000000000
         C           -2.798839420878     0.001917069334    -0.255785165801    12.000000000000
         C            0.678620579122     1.357357069334     0.138316834199    12.000000000000
         H            0.902050579122    -1.193220930666     1.534092834199     1.007825032230
         H            1.275699579122    -2.220186930666     0.135315834199     1.007825032230
         H           -1.215428420878    -2.327109130666    -0.327266065801     1.007825032230
         H           -1.241934420878     2.050555069334     0.643875834199     1.007825032230
         H           -2.979236420878     0.642021069334    -1.125976165801     1.007825032230
         H           -3.360176420878     0.427600069334     0.583580834199     1.007825032230
         H           -3.204981420878    -0.990770930666    -0.467778165801     1.007825032230
         H            1.144561579122     2.336753069334     0.202096834199     1.007825032230

  Basis Set: AUG-CC-PVTZ
    Blend: AUG-CC-PVTZ
  Basis Set: (AUG-CC-PVTZ AUX)
    Blend: AUG-CC-PVTZ-JKFIT
	 Reference Energy          =    -629.4352033729215918 [Eh]
	 Singles Energy            =      -0.0000000000000000 [Eh]
	 Same-Spin Energy          =      -0.3122142893911496 [Eh]
	 Opposite-Spin Energy      =      -1.0206659465354626 [Eh]
	 Correlation Energy        =      -1.3328802359266123 [Eh]
	 Total Energy              =    -630.7680836088482010 [Eh]

	 ================> DF-SCS-MP2 Energies <==================
	-----------------------------------------------------------
	 SCS Same-Spin Scale       =       0.3333333333333333 [-]
	 SCS Opposite-Spin Scale   =       1.2000000000000000 [-]
	 SCS Same-Spin Energy      =      -0.1040714297970499 [Eh]
	 SCS Opposite-Spin Energy  =      -1.2247991358425552 [Eh]
	 SCS Correlation Energy    =      -1.3288705656396049 [Eh]
	 SCS Total Energy          =    -630.7640739385611823 [Eh]
	-----------------------------------------------------------

  Dipole Moment: [D]
     X:    -1.0143      Y:    -0.1841      Z:     0.5674     Total:     1.1767

*** Psi4 exiting successfully. Buy a developer a beer!
