                               Psi4 1.4a3.dev225

  ==> Input File <==

--------------------------------------------------------------------------
#psi4
#
memory 32 gb

molecule  {
0 1
  S        1.8205190     0.0641380    -0.3390420
  C       -1.2625450    -0.0636770     0.0596210
  C        0.8711260    -1.2781040     0.4345100
  C       -0.5666070    -1.2221760     0.0100460
  C       -0.5777350     1.1920400     0.3472900
  C       -2.7289820     0.0096020    -0.2663480
  C        0.7362201     1.3799167     0.1330914
  H        0.9719080    -1.1855360     1.5235300
  H        1.3455570    -2.2125020     0.1247530
  H       -1.0557030    -2.1491070    -0.2838310
  H       -1.1720770     2.0582400     0.6333130
  H       -2.9093790     0.6497060    -1.1365390
  H       -3.2903190     0.4352850     0.5730180
  H       -3.1351240    -0.9830860    -0.4783410
  H        1.2144190     2.3444380     0.1915340
units angstrom
no_reorient  #important for SAPT in psi4, default
symmetry c1  #important for SAPT in psi4, default
}

set PROPERTIES_ORIGIN ["COM"]
properties('MP2/aug-cc-pvtz', properties = ['dipole'])
--------------------------------------------------------------------------

    Molecular point group: c1
  Charge       = 0
  Multiplicity = 1
  Basis Set: AUG-CC-PVTZ
    Blend: AUG-CC-PVTZ
  Basis Set: (AUG-CC-PVTZ AUX)
    Blend: AUG-CC-PVTZ-JKFIT

    Orbital Energies [Eh]
    ---------------------

    Doubly Occupied:

       1A    -91.958263     2A    -11.267191     3A    -11.263680
       4A    -11.244553     5A    -11.237387     6A    -11.232817
       7A    -11.227140     8A     -8.958503     9A     -6.639706
      10A     -6.638801    11A     -6.637939    12A     -1.144571
      13A     -1.045200    14A     -1.024662    15A     -0.935616
      16A     -0.848033    17A     -0.805577    18A     -0.676476
      19A     -0.665279    20A     -0.620610    21A     -0.604430
      22A     -0.577000    23A     -0.569828    24A     -0.534445
      25A     -0.517664    26A     -0.476329    27A     -0.457774
      28A     -0.440652    29A     -0.352762    30A     -0.297715

  @DF-RHF Final Energy:  -629.45752225789056

   => Energetics <=

    Nuclear Repulsion Energy =            346.5486143016113942
    One-Electron Energy =               -1550.2110671742211707
    Two-Electron Energy =                 574.2049306147191601
    Total Energy =                       -629.4575222578905596
  Basis Set: (AUG-CC-PVTZ AUX)
    Blend: AUG-CC-PVTZ-RI
    Molecular point group: c1

    Geometry (in Angstrom), charge = 0, multiplicity = 1:

       Center              X                  Y                   Z               Mass
    ------------   -----------------  -----------------  -----------------  -----------------
         S            1.751166097761     0.053327730248    -0.329536599484    31.972071174400
         C           -1.331897902239    -0.074487269752     0.069126400516    12.000000000000
         C            0.801773097761    -1.288914269752     0.444015400516    12.000000000000
         C           -0.635959902239    -1.232986269752     0.019551400516    12.000000000000
         C           -0.647087902239     1.181229730248     0.356795400516    12.000000000000
         C           -2.798334902239    -0.001208269752    -0.256842599484    12.000000000000
         C            0.666867197761     1.369106430248     0.142596800516    12.000000000000
         H            0.902555097761    -1.196346269752     1.533035400516     1.007825032230
         H            1.276204097761    -2.223312269752     0.134258400516     1.007825032230
         H           -1.125055902239    -2.159917269752    -0.274325599484     1.007825032230
         H           -1.241429902239     2.047429730248     0.642818400516     1.007825032230
         H           -2.978731902239     0.638895730248    -1.127033599484     1.007825032230
         H           -3.359671902239     0.424474730248     0.582523400516     1.007825032230
         H           -3.204476902239    -0.993896269752    -0.468835599484     1.007825032230
         H            1.145066097761     2.333627730248     0.201039400516     1.007825032230

  Basis Set: AUG-CC-PVTZ
    Blend: AUG-CC-PVTZ
  Basis Set: (AUG-CC-PVTZ AUX)
    Blend: AUG-CC-PVTZ-JKFIT
	 Reference Energy          =    -629.4575222578905596 [Eh]
	 Singles Energy            =      -0.0000000000000000 [Eh]
	 Same-Spin Energy          =      -0.3112553591534520 [Eh]
	 Opposite-Spin Energy      =      -1.0181926048337868 [Eh]
	 Correlation Energy        =      -1.3294479639872387 [Eh]
	 Total Energy              =    -630.7869702218778230 [Eh]

	 ================> DF-SCS-MP2 Energies <==================
	-----------------------------------------------------------
	 SCS Same-Spin Scale       =       0.3333333333333333 [-]
	 SCS Opposite-Spin Scale   =       1.2000000000000000 [-]
	 SCS Same-Spin Energy      =      -0.1037517863844840 [Eh]
	 SCS Opposite-Spin Energy  =      -1.2218311258005441 [Eh]
	 SCS Correlation Energy    =      -1.3255829121850280 [Eh]
	 SCS Total Energy          =    -630.7831051700756007 [Eh]
	-----------------------------------------------------------

  Dipole Moment: [D]
     X:    -1.1582      Y:    -0.2658      Z:     0.5573     Total:     1.3125

*** Psi4 exiting successfully. Buy a developer a beer!
