                               Psi4 1.4a3.dev225

  ==> Input File <==

--------------------------------------------------------------------------
#psi4
#
memory 32 gb

molecule  {
0 1
  S        1.8205190     0.0641380    -0.3390420
  C       -1.2625450    -0.0636770     0.0596210
  C        0.9756295    -1.1303581     0.3493621
  C       -0.5666070    -1.2221760     0.0100460
  C       -0.5777350     1.1920400     0.3472900
  C       -2.7289820     0.0096020    -0.2663480
  C        0.7484780     1.3650420     0.1277540
  H        0.9719080    -1.1855360     1.5235300
  H        1.3455570    -2.2125020     0.1247530
  H       -1.0557030    -2.1491070    -0.2838310
  H       -1.1720770     2.0582400     0.6333130
  H       -2.9093790     0.6497060    -1.1365390
  H       -3.2903190     0.4352850     0.5730180
  H       -3.1351240    -0.9830860    -0.4783410
  H        1.2144190     2.3444380     0.1915340
units angstrom
no_reorient  #important for SAPT in psi4, default
symmetry c1  #important for SAPT in psi4, default
}

set PROPERTIES_ORIGIN ["COM"]
properties('MP2/aug-cc-pvtz', properties = ['dipole'])
--------------------------------------------------------------------------

    Molecular point group: c1
  Charge       = 0
  Multiplicity = 1
  Basis Set: AUG-CC-PVTZ
    Blend: AUG-CC-PVTZ
  Basis Set: (AUG-CC-PVTZ AUX)
    Blend: AUG-CC-PVTZ-JKFIT

    Orbital Energies [Eh]
    ---------------------

    Doubly Occupied:

       1A    -91.957889     2A    -11.267723     3A    -11.267382
       4A    -11.242011     5A    -11.240832     6A    -11.236466
       7A    -11.226177     8A     -8.962619     9A     -6.644354
      10A     -6.642952    11A     -6.641877    12A     -1.156499
      13A     -1.066237    14A     -1.017451    15A     -0.939561
      16A     -0.839116    17A     -0.805296    18A     -0.675005
      19A     -0.661580    20A     -0.619249    21A     -0.590948
      22A     -0.577379    23A     -0.564473    24A     -0.541814
      25A     -0.520666    26A     -0.496196    27A     -0.445616
      28A     -0.429947    29A     -0.358553    30A     -0.293364

  @DF-RHF Final Energy:  -629.42026858642237

   => Energetics <=

    Nuclear Repulsion Energy =            349.6717349804512764
    One-Electron Energy =               -1556.3255420879902431
    Two-Electron Energy =                 577.2335385211166567
    Total Energy =                       -629.4202685864223668
  Basis Set: (AUG-CC-PVTZ AUX)
    Blend: AUG-CC-PVTZ-RI
    Molecular point group: c1

    Geometry (in Angstrom), charge = 0, multiplicity = 1:

       Center              X                  Y                   Z               Mass
    ------------   -----------------  -----------------  -----------------  -----------------
         S            1.738659819285     0.039095935933    -0.319844746185    31.972071174400
         C           -1.344404180715    -0.088719064067     0.078818253815    12.000000000000
         C            0.893770319285    -1.155400164067     0.368559353815    12.000000000000
         C           -0.648466180715    -1.247218064067     0.029243253815    12.000000000000
         C           -0.659594180715     1.166997935933     0.366487253815    12.000000000000
         C           -2.810841180715    -0.015440064067    -0.247150746185    12.000000000000
         C            0.666618819285     1.339999935933     0.146951253815    12.000000000000
         H            0.890048819285    -1.210578064067     1.542727253815     1.007825032230
         H            1.263697819285    -2.237544064067     0.143950253815     1.007825032230
         H           -1.137562180715    -2.174149064067    -0.264633746185     1.007825032230
         H           -1.253936180715     2.033197935933     0.652510253815     1.007825032230
         H           -2.991238180715     0.624663935933    -1.117341746185     1.007825032230
         H           -3.372178180715     0.410242935933     0.592215253815     1.007825032230
         H           -3.216983180715    -1.008128064067    -0.459143746185     1.007825032230
         H            1.132559819285     2.319395935933     0.210731253815     1.007825032230

  Basis Set: AUG-CC-PVTZ
    Blend: AUG-CC-PVTZ
  Basis Set: (AUG-CC-PVTZ AUX)
    Blend: AUG-CC-PVTZ-JKFIT
	 Reference Energy          =    -629.4202685864223668 [Eh]
	 Singles Energy            =      -0.0000000000000000 [Eh]
	 Same-Spin Energy          =      -0.3137814944164471 [Eh]
	 Opposite-Spin Energy      =      -1.0212598880203210 [Eh]
	 Correlation Energy        =      -1.3350413824367680 [Eh]
	 Total Energy              =    -630.7553099688591374 [Eh]

	 ================> DF-SCS-MP2 Energies <==================
	-----------------------------------------------------------
	 SCS Same-Spin Scale       =       0.3333333333333333 [-]
	 SCS Opposite-Spin Scale   =       1.2000000000000000 [-]
	 SCS Same-Spin Energy      =      -0.1045938314721490 [Eh]
	 SCS Opposite-Spin Energy  =      -1.2255118656243851 [Eh]
	 SCS Correlation Energy    =      -1.3301056970965341 [Eh]
	 SCS Total Energy          =    -630.7503742835189087 [Eh]
	-----------------------------------------------------------

  Dipole Moment: [D]
     X:    -1.0826      Y:    -0.1515      Z:     0.3781     Total:     1.1567

*** Psi4 exiting successfully. Buy a developer a beer!
