                               Psi4 1.4a3.dev225

  ==> Input File <==

--------------------------------------------------------------------------
#psi4
#
memory 32 gb

molecule  {
0 1
  S        1.8205190     0.0641380    -0.3390420
  C       -1.2625450    -0.0636770     0.0596210
  C        0.8188743    -1.3519770     0.4770840
  C       -0.5666070    -1.2221760     0.0100460
  C       -0.5777350     1.1920400     0.3472900
  C       -2.7289820     0.0096020    -0.2663480
  C        0.7484780     1.3650420     0.1277540
  H        0.9719080    -1.1855360     1.5235300
  H        1.3455570    -2.2125020     0.1247530
  H       -1.0557030    -2.1491070    -0.2838310
  H       -1.1720770     2.0582400     0.6333130
  H       -2.9093790     0.6497060    -1.1365390
  H       -3.2903190     0.4352850     0.5730180
  H       -3.1351240    -0.9830860    -0.4783410
  H        1.2144190     2.3444380     0.1915340
units angstrom
no_reorient  #important for SAPT in psi4, default
symmetry c1  #important for SAPT in psi4, default
}

set PROPERTIES_ORIGIN ["COM"]
properties('MP2/aug-cc-pvtz', properties = ['dipole'])
--------------------------------------------------------------------------

    Molecular point group: c1
  Charge       = 0
  Multiplicity = 1
  Basis Set: AUG-CC-PVTZ
    Blend: AUG-CC-PVTZ
  Basis Set: (AUG-CC-PVTZ AUX)
    Blend: AUG-CC-PVTZ-JKFIT

    Orbital Energies [Eh]
    ---------------------

    Doubly Occupied:

       1A    -91.956911     2A    -11.268484     3A    -11.266915
       4A    -11.246272     5A    -11.236289     6A    -11.231093
       7A    -11.227531     8A     -8.956587     9A     -6.637701
      10A     -6.636763    11A     -6.635984    12A     -1.142742
      13A     -1.041526    14A     -1.026566    15A     -0.933875
      16A     -0.854419    17A     -0.802389    18A     -0.680466
      19A     -0.664082    20A     -0.623825    21A     -0.613097
      22A     -0.575170    23A     -0.572072    24A     -0.533798
      25A     -0.518571    26A     -0.472116    27A     -0.455409
      28A     -0.440740    29A     -0.349002    30A     -0.294497

  @DF-RHF Final Energy:  -629.45108975245421

   => Energetics <=

    Nuclear Repulsion Energy =            345.4906521517529541
    One-Electron Energy =               -1548.0937011717232963
    Two-Electron Energy =                 573.1519592675160766
    Total Energy =                       -629.4510897524542088
  Basis Set: (AUG-CC-PVTZ AUX)
    Blend: AUG-CC-PVTZ-RI
    Molecular point group: c1

    Geometry (in Angstrom), charge = 0, multiplicity = 1:

       Center              X                  Y                   Z               Mass
    ------------   -----------------  -----------------  -----------------  -----------------
         S            1.755449821665     0.062833469734    -0.333525000524    31.972071174400
         C           -1.327614178335    -0.064981530266     0.065137999476    12.000000000000
         C            0.753805121665    -1.353281530266     0.482600999476    12.000000000000
         C           -0.631676178335    -1.223480530266     0.015562999476    12.000000000000
         C           -0.642804178335     1.190735469734     0.352806999476    12.000000000000
         C           -2.794051178335     0.008297469734    -0.260831000524    12.000000000000
         C            0.683408821665     1.363737469734     0.133270999476    12.000000000000
         H            0.906838821665    -1.186840530266     1.529046999476     1.007825032230
         H            1.280487821665    -2.213806530266     0.130269999476     1.007825032230
         H           -1.120772178335    -2.150411530266    -0.278314000524     1.007825032230
         H           -1.237146178335     2.056935469734     0.638829999476     1.007825032230
         H           -2.974448178335     0.648401469734    -1.131022000524     1.007825032230
         H           -3.355388178335     0.433980469734     0.578534999476     1.007825032230
         H           -3.200193178335    -0.984390530266    -0.472824000524     1.007825032230
         H            1.149349821665     2.343133469734     0.197050999476     1.007825032230

  Basis Set: AUG-CC-PVTZ
    Blend: AUG-CC-PVTZ
  Basis Set: (AUG-CC-PVTZ AUX)
    Blend: AUG-CC-PVTZ-JKFIT
	 Reference Energy          =    -629.4510897524542088 [Eh]
	 Singles Energy            =      -0.0000000000000000 [Eh]
	 Same-Spin Energy          =      -0.3118815773537140 [Eh]
	 Opposite-Spin Energy      =      -1.0191755285835868 [Eh]
	 Correlation Energy        =      -1.3310571059373009 [Eh]
	 Total Energy              =    -630.7821468583914566 [Eh]

	 ================> DF-SCS-MP2 Energies <==================
	-----------------------------------------------------------
	 SCS Same-Spin Scale       =       0.3333333333333333 [-]
	 SCS Opposite-Spin Scale   =       1.2000000000000000 [-]
	 SCS Same-Spin Energy      =      -0.1039605257845713 [Eh]
	 SCS Opposite-Spin Energy  =      -1.2230106343003042 [Eh]
	 SCS Correlation Energy    =      -1.3269711600848755 [Eh]
	 SCS Total Energy          =    -630.7780609125391038 [Eh]
	-----------------------------------------------------------

  Dipole Moment: [D]
     X:    -1.1382      Y:    -0.3646      Z:     0.6206     Total:     1.3467

*** Psi4 exiting successfully. Buy a developer a beer!
