                               Psi4 1.4a3.dev225

  ==> Input File <==

--------------------------------------------------------------------------
#psi4
#
memory 32 gb

molecule  {
0 1
  S        1.8205190     0.0641380    -0.3390420
  C       -1.2625450    -0.0636770     0.0596210
  C        0.8711260    -1.2781040     0.4345100
  C       -0.5666070    -1.2221760     0.0100460
  C       -0.5777350     1.1920400     0.3472900
  C       -2.7289820     0.0096020    -0.2663480
  C        0.7484780     1.3650420     0.1277540
  H        0.9719080    -1.1855360     1.5235300
  H        1.3455570    -2.2125020     0.1247530
  H       -1.0557030    -2.1491070    -0.2838310
  H       -1.1720770     2.0582400     0.6333130
  H       -2.9538430     0.6931258    -1.0920243
  H       -3.2903190     0.4352850     0.5730180
  H       -3.1351240    -0.9830860    -0.4783410
  H        1.2144190     2.3444380     0.1915340
units angstrom
no_reorient  #important for SAPT in psi4, default
symmetry c1  #important for SAPT in psi4, default
}

set PROPERTIES_ORIGIN ["COM"]
properties('MP2/aug-cc-pvtz', properties = ['dipole'])
--------------------------------------------------------------------------

    Molecular point group: c1
  Charge       = 0
  Multiplicity = 1
  Basis Set: AUG-CC-PVTZ
    Blend: AUG-CC-PVTZ
  Basis Set: (AUG-CC-PVTZ AUX)
    Blend: AUG-CC-PVTZ-JKFIT

    Orbital Energies [Eh]
    ---------------------

    Doubly Occupied:

       1A    -91.959332     2A    -11.268311     3A    -11.264198
       4A    -11.244731     5A    -11.238028     6A    -11.232456
       7A    -11.226862     8A     -8.959882     9A     -6.641120
      10A     -6.640179    11A     -6.639320    12A     -1.144930
      13A     -1.046851    14A     -1.022814    15A     -0.936574
      16A     -0.849550    17A     -0.804138    18A     -0.676418
      19A     -0.663862    20A     -0.621337    21A     -0.603999
      22A     -0.576751    23A     -0.563621    24A     -0.537124
      25A     -0.519479    26A     -0.477698    27A     -0.460850
      28A     -0.439400    29A     -0.353572    30A     -0.295549

  @DF-RHF Final Energy:  -629.45651235166747

   => Energetics <=

    Nuclear Repulsion Energy =            346.7263036334994126
    One-Electron Energy =               -1550.5477578417185214
    Two-Electron Energy =                 574.3649418565516953
    Total Energy =                       -629.4565123516674703
  Basis Set: (AUG-CC-PVTZ AUX)
    Blend: AUG-CC-PVTZ-RI
    Molecular point group: c1

    Geometry (in Angstrom), charge = 0, multiplicity = 1:

       Center              X                  Y                   Z               Mass
    ------------   -----------------  -----------------  -----------------  -----------------
         S            1.750253140492     0.054530365441    -0.329365350970    31.972071174400
         C           -1.332810859508    -0.073284634559     0.069297649030    12.000000000000
         C            0.800860140492    -1.287711634559     0.444186649030    12.000000000000
         C           -0.636872859508    -1.231783634559     0.019722649030    12.000000000000
         C           -0.648000859508     1.182432365441     0.356966649030    12.000000000000
         C           -2.799247859508    -0.000005634559    -0.256671350970    12.000000000000
         C            0.678212140492     1.355434365441     0.137430649030    12.000000000000
         H            0.901642140492    -1.195143634559     1.533206649030     1.007825032230
         H            1.275291140492    -2.222109634559     0.134429649030     1.007825032230
         H           -1.125968859508    -2.158714634559    -0.274154350970     1.007825032230
         H           -1.242342859508     2.048632365441     0.642989649030     1.007825032230
         H           -3.024108859508     0.683518165441    -1.082347650970     1.007825032230
         H           -3.360584859508     0.425677365441     0.582694649030     1.007825032230
         H           -3.205389859508    -0.992693634559    -0.468664350970     1.007825032230
         H            1.144153140492     2.334830365441     0.201210649030     1.007825032230

  Basis Set: AUG-CC-PVTZ
    Blend: AUG-CC-PVTZ
  Basis Set: (AUG-CC-PVTZ AUX)
    Blend: AUG-CC-PVTZ-JKFIT
	 Reference Energy          =    -629.4565123516674703 [Eh]
	 Singles Energy            =      -0.0000000000000000 [Eh]
	 Same-Spin Energy          =      -0.3116766703632085 [Eh]
	 Opposite-Spin Energy      =      -1.0185705167182586 [Eh]
	 Correlation Energy        =      -1.3302471870814672 [Eh]
	 Total Energy              =    -630.7867595387489246 [Eh]

	 ================> DF-SCS-MP2 Energies <==================
	-----------------------------------------------------------
	 SCS Same-Spin Scale       =       0.3333333333333333 [-]
	 SCS Opposite-Spin Scale   =       1.2000000000000000 [-]
	 SCS Same-Spin Energy      =      -0.1038922234544028 [Eh]
	 SCS Opposite-Spin Energy  =      -1.2222846200619102 [Eh]
	 SCS Correlation Energy    =      -1.3261768435163130 [Eh]
	 SCS Total Energy          =    -630.7826891951838206 [Eh]
	-----------------------------------------------------------

  Dipole Moment: [D]
     X:    -1.1075      Y:    -0.2663      Z:     0.5576     Total:     1.2682

*** Psi4 exiting successfully. Buy a developer a beer!
