                               Psi4 1.4a3.dev225

  ==> Input File <==

--------------------------------------------------------------------------
#psi4
#
memory 32 gb

molecule  {
0 1
  S        1.7252147    -0.0117005    -0.3305985
  C       -1.2625450    -0.0636770     0.0596210
  C        0.8711260    -1.2781040     0.4345100
  C       -0.5666070    -1.2221760     0.0100460
  C       -0.5777350     1.1920400     0.3472900
  C       -2.7289820     0.0096020    -0.2663480
  C        0.7484780     1.3650420     0.1277540
  H        0.9719080    -1.1855360     1.5235300
  H        1.3455570    -2.2125020     0.1247530
  H       -1.0557030    -2.1491070    -0.2838310
  H       -1.1720770     2.0582400     0.6333130
  H       -2.9093790     0.6497060    -1.1365390
  H       -3.2903190     0.4352850     0.5730180
  H       -3.1351240    -0.9830860    -0.4783410
  H        1.2144190     2.3444380     0.1915340
units angstrom
no_reorient  #important for SAPT in psi4, default
symmetry c1  #important for SAPT in psi4, default
}

set PROPERTIES_ORIGIN ["COM"]
properties('MP2/aug-cc-pvtz', properties = ['dipole'])
--------------------------------------------------------------------------

    Molecular point group: c1
  Charge       = 0
  Multiplicity = 1
  Basis Set: AUG-CC-PVTZ
    Blend: AUG-CC-PVTZ
  Basis Set: (AUG-CC-PVTZ AUX)
    Blend: AUG-CC-PVTZ-JKFIT

    Orbital Energies [Eh]
    ---------------------

    Doubly Occupied:

       1A    -91.952803     2A    -11.266875     3A    -11.255962
       4A    -11.243299     5A    -11.238238     6A    -11.232771
       7A    -11.226654     8A     -8.955678     9A     -6.637085
      10A     -6.636161    11A     -6.635145    12A     -1.155041
      13A     -1.055378    14A     -1.027701    15A     -0.935923
      16A     -0.846883    17A     -0.806458    18A     -0.677142
      19A     -0.666083    20A     -0.622188    21A     -0.607470
      22A     -0.586201    23A     -0.570442    24A     -0.536039
      25A     -0.522490    26A     -0.487162    27A     -0.453687
      28A     -0.437798    29A     -0.346838    30A     -0.297518

  @DF-RHF Final Energy:  -629.45076594388399

   => Energetics <=

    Nuclear Repulsion Energy =            350.9326812013476342
    One-Electron Energy =               -1558.9286646673160703
    Two-Electron Energy =                 578.5452175220844993
    Total Energy =                       -629.4507659438839937
  Basis Set: (AUG-CC-PVTZ AUX)
    Blend: AUG-CC-PVTZ-RI
    Molecular point group: c1

    Geometry (in Angstrom), charge = 0, multiplicity = 1:

       Center              X                  Y                   Z               Mass
    ------------   -----------------  -----------------  -----------------  -----------------
         S            1.681746472798     0.000724986523    -0.322930989312    31.972071174400
         C           -1.306013227202    -0.051251513477     0.067288510688    12.000000000000
         C            0.827657772798    -1.265678513477     0.442177510688    12.000000000000
         C           -0.610075227202    -1.209750513477     0.017713510688    12.000000000000
         C           -0.621203227202     1.204465486523     0.354957510688    12.000000000000
         C           -2.772450227202     0.022027486523    -0.258680489312    12.000000000000
         C            0.705009772798     1.377467486523     0.135421510688    12.000000000000
         H            0.928439772798    -1.173110513477     1.531197510688     1.007825032230
         H            1.302088772798    -2.200076513477     0.132420510688     1.007825032230
         H           -1.099171227202    -2.136681513477    -0.276163489312     1.007825032230
         H           -1.215545227202     2.070665486523     0.640980510688     1.007825032230
         H           -2.952847227202     0.662131486523    -1.128871489312     1.007825032230
         H           -3.333787227202     0.447710486523     0.580685510688     1.007825032230
         H           -3.178592227202    -0.970660513477    -0.470673489312     1.007825032230
         H            1.170950772798     2.356863486523     0.199201510688     1.007825032230

  Basis Set: AUG-CC-PVTZ
    Blend: AUG-CC-PVTZ
  Basis Set: (AUG-CC-PVTZ AUX)
    Blend: AUG-CC-PVTZ-JKFIT
	 Reference Energy          =    -629.4507659438839937 [Eh]
	 Singles Energy            =      -0.0000000000000000 [Eh]
	 Same-Spin Energy          =      -0.3128485235487725 [Eh]
	 Opposite-Spin Energy      =      -1.0186725261068599 [Eh]
	 Correlation Energy        =      -1.3315210496556324 [Eh]
	 Total Energy              =    -630.7822869935396284 [Eh]

	 ================> DF-SCS-MP2 Energies <==================
	-----------------------------------------------------------
	 SCS Same-Spin Scale       =       0.3333333333333333 [-]
	 SCS Opposite-Spin Scale   =       1.2000000000000000 [-]
	 SCS Same-Spin Energy      =      -0.1042828411829242 [Eh]
	 SCS Opposite-Spin Energy  =      -1.2224070313282318 [Eh]
	 SCS Correlation Energy    =      -1.3266898725111560 [Eh]
	 SCS Total Energy          =    -630.7774558163951042 [Eh]
	-----------------------------------------------------------

  Dipole Moment: [D]
     X:    -1.1099      Y:    -0.2705      Z:     0.5724     Total:     1.2778

*** Psi4 exiting successfully. Buy a developer a beer!
