                               Psi4 1.4a3.dev225

  ==> Input File <==

--------------------------------------------------------------------------
#psi4
#
memory 32 gb

molecule  {
0 1
  S        1.8205190     0.0641380    -0.3390420
  C       -1.2625450    -0.0636770     0.0596210
  C        0.8711260    -1.2781040     0.4345100
  C       -0.5666070    -1.2221760     0.0100460
  C       -0.5777350     1.1920400     0.3472900
  C       -2.7289820     0.0096020    -0.2663480
  C        0.7484780     1.3650420     0.1277540
  H        0.9719080    -1.1855360     1.5235300
  H        1.3455570    -2.2125020     0.1247530
  H       -0.9658350    -1.9787898    -0.2298331
  H       -1.1720770     2.0582400     0.6333130
  H       -2.9093790     0.6497060    -1.1365390
  H       -3.2903190     0.4352850     0.5730180
  H       -3.1351240    -0.9830860    -0.4783410
  H        1.2144190     2.3444380     0.1915340
units angstrom
no_reorient  #important for SAPT in psi4, default
symmetry c1  #important for SAPT in psi4, default
}

set PROPERTIES_ORIGIN ["COM"]
properties('MP2/aug-cc-pvtz', properties = ['dipole'])
--------------------------------------------------------------------------

    Molecular point group: c1
  Charge       = 0
  Multiplicity = 1
  Basis Set: AUG-CC-PVTZ
    Blend: AUG-CC-PVTZ
  Basis Set: (AUG-CC-PVTZ AUX)
    Blend: AUG-CC-PVTZ-JKFIT

    Orbital Energies [Eh]
    ---------------------

    Doubly Occupied:

       1A    -91.958325     2A    -11.267788     3A    -11.262338
       4A    -11.243345     5A    -11.236606     6A    -11.227194
       7A    -11.207930     8A     -8.958878     9A     -6.640120
      10A     -6.639180    11A     -6.638327    12A     -1.146383
      13A     -1.048308    14A     -1.027372    15A     -0.939325
      16A     -0.855329    17A     -0.816102    18A     -0.702110
      19A     -0.662536    20A     -0.619060    21A     -0.603823
      22A     -0.590098    23A     -0.570225    24A     -0.535256
      25A     -0.517436    26A     -0.481273    27A     -0.459912
      28A     -0.439865    29A     -0.353023    30A     -0.294873

  @DF-RHF Final Energy:  -629.42265746296800

   => Energetics <=

    Nuclear Repulsion Energy =            347.9487394446219355
    One-Electron Energy =               -1552.8581127904446930
    Two-Electron Energy =                 575.4867158828548099
    Total Energy =                       -629.4226574629680044
  Basis Set: (AUG-CC-PVTZ AUX)
    Blend: AUG-CC-PVTZ-RI
    Molecular point group: c1

    Geometry (in Angstrom), charge = 0, multiplicity = 1:

       Center              X                  Y                   Z               Mass
    ------------   -----------------  -----------------  -----------------  -----------------
         S            1.749044736428     0.053388840459    -0.329450658547    31.972071174400
         C           -1.334019263572    -0.074426159541     0.069212341453    12.000000000000
         C            0.799651736428    -1.288853159541     0.444101341453    12.000000000000
         C           -0.638081263572    -1.232925159541     0.019637341453    12.000000000000
         C           -0.649209263572     1.181290840459     0.356881341453    12.000000000000
         C           -2.800456263572    -0.001147159541    -0.256756658547    12.000000000000
         C            0.677003736428     1.354292840459     0.137345341453    12.000000000000
         H            0.900433736428    -1.196285159541     1.533121341453     1.007825032230
         H            1.274082736428    -2.223251159541     0.134344341453     1.007825032230
         H           -1.037309263572    -1.989538959541    -0.220241758547     1.007825032230
         H           -1.243551263572     2.047490840459     0.642904341453     1.007825032230
         H           -2.980853263572     0.638956840459    -1.126947658547     1.007825032230
         H           -3.361793263572     0.424535840459     0.582609341453     1.007825032230
         H           -3.206598263572    -0.993835159541    -0.468749658547     1.007825032230
         H            1.142944736428     2.333688840459     0.201125341453     1.007825032230

  Basis Set: AUG-CC-PVTZ
    Blend: AUG-CC-PVTZ
  Basis Set: (AUG-CC-PVTZ AUX)
    Blend: AUG-CC-PVTZ-JKFIT
	 Reference Energy          =    -629.4226574629680044 [Eh]
	 Singles Energy            =      -0.0000000000000000 [Eh]
	 Same-Spin Energy          =      -0.3113909941905086 [Eh]
	 Opposite-Spin Energy      =      -1.0180286781295287 [Eh]
	 Correlation Energy        =      -1.3294196723200373 [Eh]
	 Total Energy              =    -630.7520771352880047 [Eh]

	 ================> DF-SCS-MP2 Energies <==================
	-----------------------------------------------------------
	 SCS Same-Spin Scale       =       0.3333333333333333 [-]
	 SCS Opposite-Spin Scale   =       1.2000000000000000 [-]
	 SCS Same-Spin Energy      =      -0.1037969980635029 [Eh]
	 SCS Opposite-Spin Energy  =      -1.2216344137554345 [Eh]
	 SCS Correlation Energy    =      -1.3254314118189374 [Eh]
	 SCS Total Energy          =    -630.7480888747869585 [Eh]
	-----------------------------------------------------------

  Dipole Moment: [D]
     X:    -1.1566      Y:    -0.3251      Z:     0.5353     Total:     1.3153

*** Psi4 exiting successfully. Buy a developer a beer!
