                               Psi4 1.4a3.dev225

  ==> Input File <==

--------------------------------------------------------------------------
#psi4
#
memory 32 gb

molecule  {
0 1
  S        1.8205190     0.0641380    -0.3390420
  C       -1.2625450    -0.0636770     0.0596210
  C        0.8606757    -1.2928786     0.4430248
  C       -0.5666070    -1.2221760     0.0100460
  C       -0.5777350     1.1920400     0.3472900
  C       -2.7289820     0.0096020    -0.2663480
  C        0.7484780     1.3650420     0.1277540
  H        0.9719080    -1.1855360     1.5235300
  H        1.3455570    -2.2125020     0.1247530
  H       -1.0557030    -2.1491070    -0.2838310
  H       -1.1720770     2.0582400     0.6333130
  H       -2.9093790     0.6497060    -1.1365390
  H       -3.2903190     0.4352850     0.5730180
  H       -3.1351240    -0.9830860    -0.4783410
  H        1.2144190     2.3444380     0.1915340
units angstrom
no_reorient  #important for SAPT in psi4, default
symmetry c1  #important for SAPT in psi4, default
}

set PROPERTIES_ORIGIN ["COM"]
properties('MP2/aug-cc-pvtz', properties = ['dipole'])
--------------------------------------------------------------------------

    Molecular point group: c1
  Charge       = 0
  Multiplicity = 1
  Basis Set: AUG-CC-PVTZ
    Blend: AUG-CC-PVTZ
  Basis Set: (AUG-CC-PVTZ AUX)
    Blend: AUG-CC-PVTZ-JKFIT

    Orbital Energies [Eh]
    ---------------------

    Doubly Occupied:

       1A    -91.958957     2A    -11.268316     3A    -11.264319
       4A    -11.244527     5A    -11.237589     6A    -11.231843
       7A    -11.226929     8A     -8.959280     9A     -6.640492
      10A     -6.639553    11A     -6.638715    12A     -1.144293
      13A     -1.045651    14A     -1.023406    15A     -0.935810
      16A     -0.850225    17A     -0.803603    18A     -0.676882
      19A     -0.663303    20A     -0.620376    21A     -0.606300
      22A     -0.576397    23A     -0.570222    24A     -0.534079
      25A     -0.517806    26A     -0.475742    27A     -0.460433
      28A     -0.440495    29A     -0.352809    30A     -0.295342

  @DF-RHF Final Energy:  -629.45685700551439

   => Energetics <=

    Nuclear Repulsion Energy =            346.5177961273230380
    One-Electron Energy =               -1550.1419184582127855
    Two-Electron Energy =                 574.1672653253754106
    Total Energy =                       -629.4568570055143937
  Basis Set: (AUG-CC-PVTZ AUX)
    Blend: AUG-CC-PVTZ-RI
    Molecular point group: c1

    Geometry (in Angstrom), charge = 0, multiplicity = 1:

       Center              X                  Y                   Z               Mass
    ------------   -----------------  -----------------  -----------------  -----------------
         S            1.750972486268     0.056503457864    -0.329876929844    31.972071174400
         C           -1.332091513732    -0.071311542136     0.068786070156    12.000000000000
         C            0.791129186268    -1.300513142136     0.452189870156    12.000000000000
         C           -0.636153513732    -1.229810542136     0.019211070156    12.000000000000
         C           -0.647281513732     1.184405457864     0.356455070156    12.000000000000
         C           -2.798528513732     0.001967457864    -0.257182929844    12.000000000000
         C            0.678931486268     1.357407457864     0.136919070156    12.000000000000
         H            0.902361486268    -1.193170542136     1.532695070156     1.007825032230
         H            1.276010486268    -2.220136542136     0.133918070156     1.007825032230
         H           -1.125249513732    -2.156741542136    -0.274665929844     1.007825032230
         H           -1.241623513732     2.050605457864     0.642478070156     1.007825032230
         H           -2.978925513732     0.642071457864    -1.127373929844     1.007825032230
         H           -3.359865513732     0.427650457864     0.582183070156     1.007825032230
         H           -3.204670513732    -0.990720542136    -0.469175929844     1.007825032230
         H            1.144872486268     2.336803457864     0.200699070156     1.007825032230

  Basis Set: AUG-CC-PVTZ
    Blend: AUG-CC-PVTZ
  Basis Set: (AUG-CC-PVTZ AUX)
    Blend: AUG-CC-PVTZ-JKFIT
	 Reference Energy          =    -629.4568570055143937 [Eh]
	 Singles Energy            =      -0.0000000000000000 [Eh]
	 Same-Spin Energy          =      -0.3116451673032198 [Eh]
	 Opposite-Spin Energy      =      -1.0186112487064503 [Eh]
	 Correlation Energy        =      -1.3302564160096702 [Eh]
	 Total Energy              =    -630.7871134215240545 [Eh]

	 ================> DF-SCS-MP2 Energies <==================
	-----------------------------------------------------------
	 SCS Same-Spin Scale       =       0.3333333333333333 [-]
	 SCS Opposite-Spin Scale   =       1.2000000000000000 [-]
	 SCS Same-Spin Energy      =      -0.1038817224344066 [Eh]
	 SCS Opposite-Spin Energy  =      -1.2223334984477403 [Eh]
	 SCS Correlation Energy    =      -1.3262152208821469 [Eh]
	 SCS Total Energy          =    -630.7830722263964844 [Eh]
	-----------------------------------------------------------

  Dipole Moment: [D]
     X:    -1.1071      Y:    -0.3010      Z:     0.5608     Total:     1.2770

*** Psi4 exiting successfully. Buy a developer a beer!
