                               Psi4 1.4a3.dev225

  ==> Input File <==

--------------------------------------------------------------------------
#psi4
#
memory 32 gb

molecule  {
0 1
  S        1.8205190     0.0641380    -0.3390420
  C       -1.2625450    -0.0636770     0.0596210
  C        0.8711260    -1.2781040     0.4345100
  C       -0.5666070    -1.2221760     0.0100460
  C       -0.5777350     1.1920400     0.3472900
  C       -2.7289820     0.0096020    -0.2663480
  C        0.7484780     1.3650420     0.1277540
  H        0.9719080    -1.1855360     1.5235300
  H        1.3455570    -2.2125020     0.1247530
  H       -1.0557030    -2.1491070    -0.2838310
  H       -1.1720770     2.0582400     0.6333130
  H       -2.8640361     0.6031677    -1.1768142
  H       -3.2903190     0.4352850     0.5730180
  H       -3.1351240    -0.9830860    -0.4783410
  H        1.2144190     2.3444380     0.1915340
units angstrom
no_reorient  #important for SAPT in psi4, default
symmetry c1  #important for SAPT in psi4, default
}

set PROPERTIES_ORIGIN ["COM"]
properties('MP2/aug-cc-pvtz', properties = ['dipole'])
--------------------------------------------------------------------------

    Molecular point group: c1
  Charge       = 0
  Multiplicity = 1
  Basis Set: AUG-CC-PVTZ
    Blend: AUG-CC-PVTZ
  Basis Set: (AUG-CC-PVTZ AUX)
    Blend: AUG-CC-PVTZ-JKFIT

    Orbital Energies [Eh]
    ---------------------

    Doubly Occupied:

       1A    -91.959188     2A    -11.268247     3A    -11.263816
       4A    -11.243657     5A    -11.237785     6A    -11.231693
       7A    -11.226807     8A     -8.959738     9A     -6.640976
      10A     -6.640036    11A     -6.639179    12A     -1.144768
      13A     -1.047103    14A     -1.022521    15A     -0.936118
      16A     -0.848722    17A     -0.803761    18A     -0.676057
      19A     -0.662460    20A     -0.618342    21A     -0.605327
      22A     -0.577467    23A     -0.574434    24A     -0.532035
      25A     -0.515124    26A     -0.477317    27A     -0.460448
      28A     -0.440458    29A     -0.353528    30A     -0.295280

  @DF-RHF Final Energy:  -629.45648560057487

   => Energetics <=

    Nuclear Repulsion Energy =            346.8419161064397258
    One-Electron Energy =               -1550.7920224871543269
    Two-Electron Energy =                 574.4936207801398496
    Total Energy =                       -629.4564856005748652
  Basis Set: (AUG-CC-PVTZ AUX)
    Blend: AUG-CC-PVTZ-RI
    Molecular point group: c1

    Geometry (in Angstrom), charge = 0, multiplicity = 1:

       Center              X                  Y                   Z               Mass
    ------------   -----------------  -----------------  -----------------  -----------------
         S            1.749445268779     0.055339597296    -0.328602610449    31.972071174400
         C           -1.333618731221    -0.072475402704     0.070060389551    12.000000000000
         C            0.800052268779    -1.286902402704     0.444949389551    12.000000000000
         C           -0.637680731221    -1.230974402704     0.020485389551    12.000000000000
         C           -0.648808731221     1.183241597296     0.357729389551    12.000000000000
         C           -2.800055731221     0.000803597296    -0.255908610449    12.000000000000
         C            0.677404268779     1.356243597296     0.138193389551    12.000000000000
         H            0.900834268779    -1.194334402704     1.533969389551     1.007825032230
         H            1.274483268779    -2.221300402704     0.135192389551     1.007825032230
         H           -1.126776731221    -2.157905402704    -0.273391610449     1.007825032230
         H           -1.243150731221     2.049441597296     0.643752389551     1.007825032230
         H           -2.935109831221     0.594369297296    -1.166374810449     1.007825032230
         H           -3.361392731221     0.426486597296     0.583457389551     1.007825032230
         H           -3.206197731221    -0.991884402704    -0.467901610449     1.007825032230
         H            1.143345268779     2.335639597296     0.201973389551     1.007825032230

  Basis Set: AUG-CC-PVTZ
    Blend: AUG-CC-PVTZ
  Basis Set: (AUG-CC-PVTZ AUX)
    Blend: AUG-CC-PVTZ-JKFIT
	 Reference Energy          =    -629.4564856005748652 [Eh]
	 Singles Energy            =      -0.0000000000000000 [Eh]
	 Same-Spin Energy          =      -0.3116942051879301 [Eh]
	 Opposite-Spin Energy      =      -1.0186596300490924 [Eh]
	 Correlation Energy        =      -1.3303538352370226 [Eh]
	 Total Energy              =    -630.7868394358118849 [Eh]

	 ================> DF-SCS-MP2 Energies <==================
	-----------------------------------------------------------
	 SCS Same-Spin Scale       =       0.3333333333333333 [-]
	 SCS Opposite-Spin Scale   =       1.2000000000000000 [-]
	 SCS Same-Spin Energy      =      -0.1038980683959767 [Eh]
	 SCS Opposite-Spin Energy  =      -1.2223915560589109 [Eh]
	 SCS Correlation Energy    =      -1.3262896244548876 [Eh]
	 SCS Total Energy          =    -630.7827752250298090 [Eh]
	-----------------------------------------------------------

  Dipole Moment: [D]
     X:    -1.0978      Y:    -0.3047      Z:     0.5362     Total:     1.2592

*** Psi4 exiting successfully. Buy a developer a beer!
