                               Psi4 1.4a3.dev225

  ==> Input File <==

--------------------------------------------------------------------------
#psi4
#
memory 32 gb

molecule  {
0 1
  S        1.8205190     0.0641380    -0.3390420
  C       -1.2625450    -0.0636770     0.0596210
  C        0.8711260    -1.2781040     0.4345100
  C       -0.5666070    -1.2221760     0.0100460
  C       -0.5777350     1.1920400     0.3472900
  C       -2.7289820     0.0096020    -0.2663480
  C        0.7484780     1.3650420     0.1277540
  H        0.9719080    -1.1855360     1.5235300
  H        1.3455570    -2.2125020     0.1247530
  H       -1.0557030    -2.1491070    -0.2838310
  H       -1.1720770     2.0582400     0.6333130
  H       -2.9176146     0.6789286    -1.1762657
  H       -3.2903190     0.4352850     0.5730180
  H       -3.1351240    -0.9830860    -0.4783410
  H        1.2144190     2.3444380     0.1915340
units angstrom
no_reorient  #important for SAPT in psi4, default
symmetry c1  #important for SAPT in psi4, default
}

set PROPERTIES_ORIGIN ["COM"]
properties('MP2/aug-cc-pvtz', properties = ['dipole'])
--------------------------------------------------------------------------

    Molecular point group: c1
  Charge       = 0
  Multiplicity = 1
  Basis Set: AUG-CC-PVTZ
    Blend: AUG-CC-PVTZ
  Basis Set: (AUG-CC-PVTZ AUX)
    Blend: AUG-CC-PVTZ-JKFIT

    Orbital Energies [Eh]
    ---------------------

    Doubly Occupied:

       1A    -91.959389     2A    -11.268334     3A    -11.264263
       4A    -11.244641     5A    -11.238000     6A    -11.232764
       7A    -11.232601     8A     -8.959940     9A     -6.641178
      10A     -6.640237    11A     -6.639378    12A     -1.144947
      13A     -1.046215    14A     -1.022846    15A     -0.933386
      16A     -0.848877    17A     -0.803707    18A     -0.676452
      19A     -0.662525    20A     -0.619498    21A     -0.604227
      22A     -0.576504    23A     -0.563823    24A     -0.533754
      25A     -0.516743    26A     -0.477698    27A     -0.460721
      28A     -0.439734    29A     -0.353489    30A     -0.295613

  @DF-RHF Final Energy:  -629.45500845189019

   => Energetics <=

    Nuclear Repulsion Energy =            346.5762140843897896
    One-Electron Energy =               -1550.2594718979407844
    Two-Electron Energy =                 574.2282493616606871
    Total Energy =                       -629.4550084518901940
  Basis Set: (AUG-CC-PVTZ AUX)
    Blend: AUG-CC-PVTZ-RI
    Molecular point group: c1

    Geometry (in Angstrom), charge = 0, multiplicity = 1:

       Center              X                  Y                   Z               Mass
    ------------   -----------------  -----------------  -----------------  -----------------
         S            1.749927242375     0.054658078526    -0.328607544564    31.972071174400
         C           -1.333136757625    -0.073156921474     0.070055455436    12.000000000000
         C            0.800534242375    -1.287583921474     0.444944455436    12.000000000000
         C           -0.637198757625    -1.231655921474     0.020480455436    12.000000000000
         C           -0.648326757625     1.182560078526     0.357724455436    12.000000000000
         C           -2.799573757625     0.000122078526    -0.255913544564    12.000000000000
         C            0.677886242375     1.355562078526     0.138188455436    12.000000000000
         H            0.901316242375    -1.195015921474     1.533964455436     1.007825032230
         H            1.274965242375    -2.221981921474     0.135187455436     1.007825032230
         H           -1.126294757625    -2.158586921474    -0.273396544564     1.007825032230
         H           -1.242668757625     2.048760078526     0.643747455436     1.007825032230
         H           -2.988206357625     0.669448678526    -1.165831244564     1.007825032230
         H           -3.360910757625     0.425805078526     0.583452455436     1.007825032230
         H           -3.205715757625    -0.992565921474    -0.467906544564     1.007825032230
         H            1.143827242375     2.334958078526     0.201968455436     1.007825032230

  Basis Set: AUG-CC-PVTZ
    Blend: AUG-CC-PVTZ
  Basis Set: (AUG-CC-PVTZ AUX)
    Blend: AUG-CC-PVTZ-JKFIT
	 Reference Energy          =    -629.4550084518901940 [Eh]
	 Singles Energy            =      -0.0000000000000000 [Eh]
	 Same-Spin Energy          =      -0.3116447394333764 [Eh]
	 Opposite-Spin Energy      =      -1.0188901624694973 [Eh]
	 Correlation Energy        =      -1.3305349019028736 [Eh]
	 Total Energy              =    -630.7855433537930594 [Eh]

	 ================> DF-SCS-MP2 Energies <==================
	-----------------------------------------------------------
	 SCS Same-Spin Scale       =       0.3333333333333333 [-]
	 SCS Opposite-Spin Scale   =       1.2000000000000000 [-]
	 SCS Same-Spin Energy      =      -0.1038815798111255 [Eh]
	 SCS Opposite-Spin Energy  =      -1.2226681949633966 [Eh]
	 SCS Correlation Energy    =      -1.3265497747745221 [Eh]
	 SCS Total Energy          =    -630.7815582266647425 [Eh]
	-----------------------------------------------------------

  Dipole Moment: [D]
     X:    -1.0815      Y:    -0.3005      Z:     0.5645     Total:     1.2564

*** Psi4 exiting successfully. Buy a developer a beer!
