                               Psi4 1.4a3.dev225

  ==> Input File <==

--------------------------------------------------------------------------
#psi4
#
memory 32 gb

molecule  {
0 1
  S        1.9551127     0.1882529    -0.3399230
  C       -1.2625450    -0.0636770     0.0596210
  C        0.8711260    -1.2781040     0.4345100
  C       -0.5666070    -1.2221760     0.0100460
  C       -0.5777350     1.1920400     0.3472900
  C       -2.7289820     0.0096020    -0.2663480
  C        0.7484780     1.3650420     0.1277540
  H        0.9719080    -1.1855360     1.5235300
  H        1.3455570    -2.2125020     0.1247530
  H       -1.0557030    -2.1491070    -0.2838310
  H       -1.1720770     2.0582400     0.6333130
  H       -2.9093790     0.6497060    -1.1365390
  H       -3.2903190     0.4352850     0.5730180
  H       -3.1351240    -0.9830860    -0.4783410
  H        1.2144190     2.3444380     0.1915340
units angstrom
no_reorient  #important for SAPT in psi4, default
symmetry c1  #important for SAPT in psi4, default
}

set PROPERTIES_ORIGIN ["COM"]
properties('MP2/aug-cc-pvtz', properties = ['dipole'])
--------------------------------------------------------------------------

    Molecular point group: c1
  Charge       = 0
  Multiplicity = 1
  Basis Set: AUG-CC-PVTZ
    Blend: AUG-CC-PVTZ
  Basis Set: (AUG-CC-PVTZ AUX)
    Blend: AUG-CC-PVTZ-JKFIT

    Orbital Energies [Eh]
    ---------------------

    Doubly Occupied:

       1A    -91.965042     2A    -11.276756     3A    -11.270315
       4A    -11.246632     5A    -11.237053     6A    -11.232158
       7A    -11.227649     8A     -8.963505     9A     -6.644589
      10A     -6.643470    11A     -6.642764    12A     -1.136444
      13A     -1.041821    14A     -1.013445    15A     -0.936989
      16A     -0.853267    17A     -0.799285    18A     -0.676555
      19A     -0.660629    20A     -0.617370    21A     -0.603260
      22A     -0.571680    23A     -0.565277    24A     -0.533127
      25A     -0.512820    26A     -0.472308    27A     -0.456068
      28A     -0.439551    29A     -0.358979    30A     -0.292979

  @DF-RHF Final Energy:  -629.44516097267103

   => Energetics <=

    Nuclear Repulsion Energy =            341.2969012163272282
    One-Electron Energy =               -1539.7005478197170305
    Two-Electron Energy =                 568.9584856307188829
    Total Energy =                       -629.4451609726710331
  Basis Set: (AUG-CC-PVTZ AUX)
    Blend: AUG-CC-PVTZ-RI
    Molecular point group: c1

    Geometry (in Angstrom), charge = 0, multiplicity = 1:

       Center              X                  Y                   Z               Mass
    ------------   -----------------  -----------------  -----------------  -----------------
         S            1.846036968220     0.143616369430    -0.329594495408    31.972071174400
         C           -1.371620731780    -0.108313530570     0.069949504592    12.000000000000
         C            0.762050268220    -1.322740530570     0.444838504592    12.000000000000
         C           -0.675682731780    -1.266812530570     0.020374504592    12.000000000000
         C           -0.686810731780     1.147403469430     0.357618504592    12.000000000000
         C           -2.838057731780    -0.035034530570    -0.256019495408    12.000000000000
         C            0.639402268220     1.320405469430     0.138082504592    12.000000000000
         H            0.862832268220    -1.230172530570     1.533858504592     1.007825032230
         H            1.236481268220    -2.257138530570     0.135081504592     1.007825032230
         H           -1.164778731780    -2.193743530570    -0.273502495408     1.007825032230
         H           -1.281152731780     2.013603469430     0.643641504592     1.007825032230
         H           -3.018454731780     0.605069469430    -1.126210495408     1.007825032230
         H           -3.399394731780     0.390648469430     0.583346504592     1.007825032230
         H           -3.244199731780    -1.027722530570    -0.468012495408     1.007825032230
         H            1.105343268220     2.299801469430     0.201862504592     1.007825032230

  Basis Set: AUG-CC-PVTZ
    Blend: AUG-CC-PVTZ
  Basis Set: (AUG-CC-PVTZ AUX)
    Blend: AUG-CC-PVTZ-JKFIT
	 Reference Energy          =    -629.4451609726710331 [Eh]
	 Singles Energy            =      -0.0000000000000000 [Eh]
	 Same-Spin Energy          =      -0.3110805346738489 [Eh]
	 Opposite-Spin Energy      =      -1.0199777263772238 [Eh]
	 Correlation Energy        =      -1.3310582610510728 [Eh]
	 Total Energy              =    -630.7762192337221450 [Eh]

	 ================> DF-SCS-MP2 Energies <==================
	-----------------------------------------------------------
	 SCS Same-Spin Scale       =       0.3333333333333333 [-]
	 SCS Opposite-Spin Scale   =       1.2000000000000000 [-]
	 SCS Same-Spin Energy      =      -0.1036935115579496 [Eh]
	 SCS Opposite-Spin Energy  =      -1.2239732716526686 [Eh]
	 SCS Correlation Energy    =      -1.3276667832106182 [Eh]
	 SCS Total Energy          =    -630.7728277558816217 [Eh]
	-----------------------------------------------------------

  Dipole Moment: [D]
     X:    -1.1466      Y:    -0.3633      Z:     0.5282     Total:     1.3136

*** Psi4 exiting successfully. Buy a developer a beer!
