                               Psi4 1.4a3.dev225

  ==> Input File <==

--------------------------------------------------------------------------
#psi4
#
memory 32 gb

molecule  {
0 1
  S        1.9116471     0.1453785    -0.3401993
  C       -1.2625450    -0.0636770     0.0596210
  C        0.8711260    -1.2781040     0.4345100
  C       -0.5666070    -1.2221760     0.0100460
  C       -0.5777350     1.1920400     0.3472900
  C       -2.7289820     0.0096020    -0.2663480
  C        0.7484780     1.3650420     0.1277540
  H        0.9719080    -1.1855360     1.5235300
  H        1.3455570    -2.2125020     0.1247530
  H       -1.0557030    -2.1491070    -0.2838310
  H       -1.1720770     2.0582400     0.6333130
  H       -2.9093790     0.6497060    -1.1365390
  H       -3.2903190     0.4352850     0.5730180
  H       -3.1351240    -0.9830860    -0.4783410
  H        1.2144190     2.3444380     0.1915340
units angstrom
no_reorient  #important for SAPT in psi4, default
symmetry c1  #important for SAPT in psi4, default
}

set PROPERTIES_ORIGIN ["COM"]
properties('MP2/aug-cc-pvtz', properties = ['dipole'])
--------------------------------------------------------------------------

    Molecular point group: c1
  Charge       = 0
  Multiplicity = 1
  Basis Set: AUG-CC-PVTZ
    Blend: AUG-CC-PVTZ
  Basis Set: (AUG-CC-PVTZ AUX)
    Blend: AUG-CC-PVTZ-JKFIT

    Orbital Energies [Eh]
    ---------------------

    Doubly Occupied:

       1A    -91.963630     2A    -11.272399     3A    -11.269643
       4A    -11.245632     5A    -11.237363     6A    -11.232011
       7A    -11.227277     8A     -8.962642     9A     -6.643775
      10A     -6.642712    11A     -6.641972    12A     -1.138575
      13A     -1.042843    14A     -1.016377    15A     -0.936746
      16A     -0.851775    17A     -0.800917    18A     -0.676285
      19A     -0.661239    20A     -0.617962    21A     -0.603343
      22A     -0.571976    23A     -0.567322    24A     -0.533409
      25A     -0.514052    26A     -0.471220    27A     -0.460800
      28A     -0.440393    29A     -0.357836    30A     -0.293674

  @DF-RHF Final Energy:  -629.45122637252882

   => Energetics <=

    Nuclear Repulsion Energy =            343.0386339269448399
    One-Electron Energy =               -1543.1881183750117543
    Two-Electron Energy =                 570.6982580755380923
    Total Energy =                       -629.4512263725288221
  Basis Set: (AUG-CC-PVTZ AUX)
    Blend: AUG-CC-PVTZ-RI
    Molecular point group: c1

    Geometry (in Angstrom), charge = 0, multiplicity = 1:

       Center              X                  Y                   Z               Mass
    ------------   -----------------  -----------------  -----------------  -----------------
         S            1.814975432418     0.112977318994    -0.329791945860    31.972071174400
         C           -1.359216667582    -0.096078181006     0.070028354140    12.000000000000
         C            0.774454332418    -1.310505181006     0.444917354140    12.000000000000
         C           -0.663278667582    -1.254577181006     0.020453354140    12.000000000000
         C           -0.674406667582     1.159638818994     0.357697354140    12.000000000000
         C           -2.825653667582    -0.022799181006    -0.255940645860    12.000000000000
         C            0.651806332418     1.332640818994     0.138161354140    12.000000000000
         H            0.875236332418    -1.217937181006     1.533937354140     1.007825032230
         H            1.248885332418    -2.244903181006     0.135160354140     1.007825032230
         H           -1.152374667582    -2.181508181006    -0.273423645860     1.007825032230
         H           -1.268748667582     2.025838818994     0.643720354140     1.007825032230
         H           -3.006050667582     0.617304818994    -1.126131645860     1.007825032230
         H           -3.386990667582     0.402883818994     0.583425354140     1.007825032230
         H           -3.231795667582    -1.015487181006    -0.467933645860     1.007825032230
         H            1.117747332418     2.312036818994     0.201941354140     1.007825032230

  Basis Set: AUG-CC-PVTZ
    Blend: AUG-CC-PVTZ
  Basis Set: (AUG-CC-PVTZ AUX)
    Blend: AUG-CC-PVTZ-JKFIT
	 Reference Energy          =    -629.4512263725288221 [Eh]
	 Singles Energy            =      -0.0000000000000000 [Eh]
	 Same-Spin Energy          =      -0.3111362731014587 [Eh]
	 Opposite-Spin Energy      =      -1.0193390623560714 [Eh]
	 Correlation Energy        =      -1.3304753354575301 [Eh]
	 Total Energy              =    -630.7817017079863717 [Eh]

	 ================> DF-SCS-MP2 Energies <==================
	-----------------------------------------------------------
	 SCS Same-Spin Scale       =       0.3333333333333333 [-]
	 SCS Opposite-Spin Scale   =       1.2000000000000000 [-]
	 SCS Same-Spin Energy      =      -0.1037120910338196 [Eh]
	 SCS Opposite-Spin Energy  =      -1.2232068748272857 [Eh]
	 SCS Correlation Energy    =      -1.3269189658611054 [Eh]
	 SCS Total Energy          =    -630.7781453383898906 [Eh]
	-----------------------------------------------------------

  Dipole Moment: [D]
     X:    -1.1228      Y:    -0.3320      Z:     0.5308     Total:     1.2855

*** Psi4 exiting successfully. Buy a developer a beer!
