                               Psi4 1.4a3.dev225

  ==> Input File <==

--------------------------------------------------------------------------
#psi4
#
memory 32 gb

molecule  {
0 1
  S        1.8205190     0.0641380    -0.3390420
  C       -1.2625450    -0.0636770     0.0596210
  C        0.8711260    -1.2781040     0.4345100
  C       -0.5666070    -1.2221760     0.0100460
  C       -0.5777350     1.1920400     0.3472900
  C       -2.7289820     0.0096020    -0.2663480
  C        0.7484780     1.3650420     0.1277540
  H        0.9719080    -1.1855360     1.5235300
  H        1.4323884    -2.3835175     0.0680606
  H       -1.0557030    -2.1491070    -0.2838310
  H       -1.1720770     2.0582400     0.6333130
  H       -2.9093790     0.6497060    -1.1365390
  H       -3.2903190     0.4352850     0.5730180
  H       -3.1351240    -0.9830860    -0.4783410
  H        1.2144190     2.3444380     0.1915340
units angstrom
no_reorient  #important for SAPT in psi4, default
symmetry c1  #important for SAPT in psi4, default
}

set PROPERTIES_ORIGIN ["COM"]
properties('MP2/aug-cc-pvtz', properties = ['dipole'])
--------------------------------------------------------------------------

    Molecular point group: c1
  Charge       = 0
  Multiplicity = 1
  Basis Set: AUG-CC-PVTZ
    Blend: AUG-CC-PVTZ
  Basis Set: (AUG-CC-PVTZ AUX)
    Blend: AUG-CC-PVTZ-JKFIT

    Orbital Energies [Eh]
    ---------------------

    Doubly Occupied:

       1A    -91.961157     2A    -11.285523     3A    -11.269321
       4A    -11.245599     5A    -11.239014     6A    -11.234007
       7A    -11.227745     8A     -8.961549     9A     -6.642758
      10A     -6.641828    11A     -6.640953    12A     -1.145175
      13A     -1.047133    14A     -1.018047    15A     -0.937429
      16A     -0.838595    17A     -0.804651    18A     -0.677404
      19A     -0.660363    20A     -0.620035    21A     -0.589628
      22A     -0.578099    23A     -0.564827    24A     -0.534583
      25A     -0.511875    26A     -0.473298    27A     -0.457131
      28A     -0.440423    29A     -0.354826    30A     -0.296538

  @DF-RHF Final Energy:  -629.43636260666449

   => Energetics <=

    Nuclear Repulsion Energy =            345.8344831182715780
    One-Electron Energy =               -1548.7426655427184414
    Two-Electron Energy =                 573.4718198177822615
    Total Energy =                       -629.4363626066644883
  Basis Set: (AUG-CC-PVTZ AUX)
    Blend: AUG-CC-PVTZ-RI
    Molecular point group: c1

    Geometry (in Angstrom), charge = 0, multiplicity = 1:

       Center              X                  Y                   Z               Mass
    ------------   -----------------  -----------------  -----------------  -----------------
         S            1.749072052628     0.056459350998    -0.328454927014    31.972071174400
         C           -1.333991947372    -0.071355649002     0.070208072986    12.000000000000
         C            0.799679052628    -1.285782649002     0.445097072986    12.000000000000
         C           -0.638053947372    -1.229854649002     0.020633072986    12.000000000000
         C           -0.649181947372     1.184361350998     0.357877072986    12.000000000000
         C           -2.800428947372     0.001923350998    -0.255760927014    12.000000000000
         C            0.677031052628     1.357363350998     0.138341072986    12.000000000000
         H            0.900461052628    -1.193214649002     1.534117072986     1.007825032230
         H            1.360941452628    -2.391196149002     0.078647672986     1.007825032230
         H           -1.127149947372    -2.156785649002    -0.273243927014     1.007825032230
         H           -1.243523947372     2.050561350998     0.643900072986     1.007825032230
         H           -2.980825947372     0.642027350998    -1.125951927014     1.007825032230
         H           -3.361765947372     0.427606350998     0.583605072986     1.007825032230
         H           -3.206570947372    -0.990764649002    -0.467753927014     1.007825032230
         H            1.142972052628     2.336759350998     0.202121072986     1.007825032230

  Basis Set: AUG-CC-PVTZ
    Blend: AUG-CC-PVTZ
  Basis Set: (AUG-CC-PVTZ AUX)
    Blend: AUG-CC-PVTZ-JKFIT
	 Reference Energy          =    -629.4363626066644883 [Eh]
	 Singles Energy            =      -0.0000000000000000 [Eh]
	 Same-Spin Energy          =      -0.3118626545231974 [Eh]
	 Opposite-Spin Energy      =      -1.0204070762607496 [Eh]
	 Correlation Energy        =      -1.3322697307839471 [Eh]
	 Total Energy              =    -630.7686323374484800 [Eh]

	 ================> DF-SCS-MP2 Energies <==================
	-----------------------------------------------------------
	 SCS Same-Spin Scale       =       0.3333333333333333 [-]
	 SCS Opposite-Spin Scale   =       1.2000000000000000 [-]
	 SCS Same-Spin Energy      =      -0.1039542181743991 [Eh]
	 SCS Opposite-Spin Energy  =      -1.2244884915128995 [Eh]
	 SCS Correlation Energy    =      -1.3284427096872986 [Eh]
	 SCS Total Energy          =    -630.7648053163518398 [Eh]
	-----------------------------------------------------------

  Dipole Moment: [D]
     X:    -1.1556      Y:    -0.1939      Z:     0.5341     Total:     1.2877

*** Psi4 exiting successfully. Buy a developer a beer!
