                               Psi4 1.4a3.dev225

  ==> Input File <==

--------------------------------------------------------------------------
#psi4
#
memory 32 gb

molecule  {
0 1
  S        1.8205190     0.0641380    -0.3390420
  C       -1.2625450    -0.0636770     0.0596210
  C        0.8711260    -1.2781040     0.4345100
  C       -0.6180676    -1.1365117     0.0137118
  C       -0.5777350     1.1920400     0.3472900
  C       -2.7289820     0.0096020    -0.2663480
  C        0.7484780     1.3650420     0.1277540
  H        0.9719080    -1.1855360     1.5235300
  H        1.3455570    -2.2125020     0.1247530
  H       -1.0557030    -2.1491070    -0.2838310
  H       -1.1720770     2.0582400     0.6333130
  H       -2.9093790     0.6497060    -1.1365390
  H       -3.2903190     0.4352850     0.5730180
  H       -3.1351240    -0.9830860    -0.4783410
  H        1.2144190     2.3444380     0.1915340
units angstrom
no_reorient  #important for SAPT in psi4, default
symmetry c1  #important for SAPT in psi4, default
}

set PROPERTIES_ORIGIN ["COM"]
properties('MP2/aug-cc-pvtz', properties = ['dipole'])
--------------------------------------------------------------------------

    Molecular point group: c1
  Charge       = 0
  Multiplicity = 1
  Basis Set: AUG-CC-PVTZ
    Blend: AUG-CC-PVTZ
  Basis Set: (AUG-CC-PVTZ AUX)
    Blend: AUG-CC-PVTZ-JKFIT

    Orbital Energies [Eh]
    ---------------------

    Doubly Occupied:

       1A    -91.957452     2A    -11.266792     3A    -11.266705
       4A    -11.237238     5A    -11.229406     6A    -11.226602
       7A    -11.225854     8A     -8.958095     9A     -6.639356
      10A     -6.638423    11A     -6.637550    12A     -1.153375
      13A     -1.054773    14A     -1.015642    15A     -0.938781
      16A     -0.858306    17A     -0.797432    18A     -0.670016
      19A     -0.663743    20A     -0.622017    21A     -0.604635
      22A     -0.574809    23A     -0.570126    24A     -0.533364
      25A     -0.515565    26A     -0.474592    27A     -0.457806
      28A     -0.440021    29A     -0.363192    30A     -0.301617

  @DF-RHF Final Energy:  -629.44568780169641

   => Energetics <=

    Nuclear Repulsion Energy =            347.9906666877664065
    One-Electron Energy =               -1553.0861400410528859
    Two-Electron Energy =                 575.6497855515900710
    Total Energy =                       -629.4456878016964083
  Basis Set: (AUG-CC-PVTZ AUX)
    Blend: AUG-CC-PVTZ-RI
    Molecular point group: c1

    Geometry (in Angstrom), charge = 0, multiplicity = 1:

       Center              X                  Y                   Z               Mass
    ------------   -----------------  -----------------  -----------------  -----------------
         S            1.755365087181     0.045745477459    -0.329357554911    31.972071174400
         C           -1.327698912819    -0.082069522541     0.069305445089    12.000000000000
         C            0.805972087181    -1.296496522541     0.444194445089    12.000000000000
         C           -0.683221512819    -1.154904222541     0.023396245089    12.000000000000
         C           -0.642888912819     1.173647477459     0.356974445089    12.000000000000
         C           -2.794135912819    -0.008790522541    -0.256663554911    12.000000000000
         C            0.683324087181     1.346649477459     0.137438445089    12.000000000000
         H            0.906754087181    -1.203928522541     1.533214445089     1.007825032230
         H            1.280403087181    -2.230894522541     0.134437445089     1.007825032230
         H           -1.120856912819    -2.167499522541    -0.274146554911     1.007825032230
         H           -1.237230912819     2.039847477459     0.642997445089     1.007825032230
         H           -2.974532912819     0.631313477459    -1.126854554911     1.007825032230
         H           -3.355472912819     0.416892477459     0.582702445089     1.007825032230
         H           -3.200277912819    -1.001478522541    -0.468656554911     1.007825032230
         H            1.149265087181     2.326045477459     0.201218445089     1.007825032230

  Basis Set: AUG-CC-PVTZ
    Blend: AUG-CC-PVTZ
  Basis Set: (AUG-CC-PVTZ AUX)
    Blend: AUG-CC-PVTZ-JKFIT
	 Reference Energy          =    -629.4456878016964083 [Eh]
	 Singles Energy            =      -0.0000000000000000 [Eh]
	 Same-Spin Energy          =      -0.3103101753499367 [Eh]
	 Opposite-Spin Energy      =      -1.0163997171449795 [Eh]
	 Correlation Energy        =      -1.3267098924949161 [Eh]
	 Total Energy              =    -630.7723976941913406 [Eh]

	 ================> DF-SCS-MP2 Energies <==================
	-----------------------------------------------------------
	 SCS Same-Spin Scale       =       0.3333333333333333 [-]
	 SCS Opposite-Spin Scale   =       1.2000000000000000 [-]
	 SCS Same-Spin Energy      =      -0.1034367251166455 [Eh]
	 SCS Opposite-Spin Energy  =      -1.2196796605739753 [Eh]
	 SCS Correlation Energy    =      -1.3231163856906207 [Eh]
	 SCS Total Energy          =    -630.7688041873869906 [Eh]
	-----------------------------------------------------------

  Dipole Moment: [D]
     X:    -1.1178      Y:    -0.3327      Z:     0.5578     Total:     1.2927

*** Psi4 exiting successfully. Buy a developer a beer!
