                               Psi4 1.4a3.dev225

  ==> Input File <==

--------------------------------------------------------------------------
#psi4
#
memory 32 gb

molecule  {
0 1
  S        1.8205190     0.0641380    -0.3390420
  C       -1.2625450    -0.0636770     0.0596210
  C        0.8711260    -1.2781040     0.4345100
  C       -0.5666070    -1.2221760     0.0100460
  C       -0.5777350     1.1920400     0.3472900
  C       -2.7289820     0.0096020    -0.2663480
  C        0.7484780     1.3650420     0.1277540
  H        0.9719080    -1.1855360     1.5235300
  H        1.3542401    -2.2296035     0.1190838
  H       -1.0557030    -2.1491070    -0.2838310
  H       -1.1720770     2.0582400     0.6333130
  H       -2.9093790     0.6497060    -1.1365390
  H       -3.2903190     0.4352850     0.5730180
  H       -3.1351240    -0.9830860    -0.4783410
  H        1.2144190     2.3444380     0.1915340
units angstrom
no_reorient  #important for SAPT in psi4, default
symmetry c1  #important for SAPT in psi4, default
}

set PROPERTIES_ORIGIN ["COM"]
properties('MP2/aug-cc-pvtz', properties = ['dipole'])
--------------------------------------------------------------------------

    Molecular point group: c1
  Charge       = 0
  Multiplicity = 1
  Basis Set: AUG-CC-PVTZ
    Blend: AUG-CC-PVTZ
  Basis Set: (AUG-CC-PVTZ AUX)
    Blend: AUG-CC-PVTZ-JKFIT

    Orbital Energies [Eh]
    ---------------------

    Doubly Occupied:

       1A    -91.959411     2A    -11.268341     3A    -11.266315
       4A    -11.244266     5A    -11.237984     6A    -11.232271
       7A    -11.226878     8A     -8.959947     9A     -6.641183
      10A     -6.640243    11A     -6.639383    12A     -1.144791
      13A     -1.046858    14A     -1.021991    15A     -0.936359
      16A     -0.847705    17A     -0.803977    18A     -0.676330
      19A     -0.662608    20A     -0.619592    21A     -0.602705
      22A     -0.576780    23A     -0.569374    24A     -0.534335
      25A     -0.517196    26A     -0.477086    27A     -0.460525
      28A     -0.440040    29A     -0.353704    30A     -0.295508

  @DF-RHF Final Energy:  -629.45648122081309

   => Energetics <=

    Nuclear Repulsion Energy =            346.6777337843804503
    One-Electron Energy =               -1550.4610527085574176
    Two-Electron Energy =                 574.3268377033638217
    Total Energy =                       -629.4564812208130888
  Basis Set: (AUG-CC-PVTZ AUX)
    Blend: AUG-CC-PVTZ-RI
    Molecular point group: c1

    Geometry (in Angstrom), charge = 0, multiplicity = 1:

       Center              X                  Y                   Z               Mass
    ------------   -----------------  -----------------  -----------------  -----------------
         S            1.749775047620     0.055074794057    -0.328913914018    31.972071174400
         C           -1.333288952380    -0.072740205943     0.069749085982    12.000000000000
         C            0.800382047620    -1.287167205943     0.444638085982    12.000000000000
         C           -0.637350952380    -1.231239205943     0.020174085982    12.000000000000
         C           -0.648478952380     1.182976794057     0.357418085982    12.000000000000
         C           -2.799725952380     0.000538794057    -0.256219914018    12.000000000000
         C            0.677734047620     1.355978794057     0.137882085982    12.000000000000
         H            0.901164047620    -1.194599205943     1.533658085982     1.007825032230
         H            1.283496147620    -2.238666705943     0.129211885982     1.007825032230
         H           -1.126446952380    -2.158170205943    -0.273702914018     1.007825032230
         H           -1.242820952380     2.049176794057     0.643441085982     1.007825032230
         H           -2.980122952380     0.640642794057    -1.126410914018     1.007825032230
         H           -3.361062952380     0.426221794057     0.583146085982     1.007825032230
         H           -3.205867952380    -0.992149205943    -0.468212914018     1.007825032230
         H            1.143675047620     2.335374794057     0.201662085982     1.007825032230

  Basis Set: AUG-CC-PVTZ
    Blend: AUG-CC-PVTZ
  Basis Set: (AUG-CC-PVTZ AUX)
    Blend: AUG-CC-PVTZ-JKFIT
	 Reference Energy          =    -629.4564812208130888 [Eh]
	 Singles Energy            =      -0.0000000000000000 [Eh]
	 Same-Spin Energy          =      -0.3116764002687064 [Eh]
	 Opposite-Spin Energy      =      -1.0187238277181685 [Eh]
	 Correlation Energy        =      -1.3304002279868747 [Eh]
	 Total Energy              =    -630.7868814487999316 [Eh]

	 ================> DF-SCS-MP2 Energies <==================
	-----------------------------------------------------------
	 SCS Same-Spin Scale       =       0.3333333333333333 [-]
	 SCS Opposite-Spin Scale   =       1.2000000000000000 [-]
	 SCS Same-Spin Energy      =      -0.1038921334229021 [Eh]
	 SCS Opposite-Spin Energy  =      -1.2224685932618022 [Eh]
	 SCS Correlation Energy    =      -1.3263607266847044 [Eh]
	 SCS Total Energy          =    -630.7828419474977864 [Eh]
	-----------------------------------------------------------

  Dipole Moment: [D]
     X:    -1.1053      Y:    -0.2794      Z:     0.5443     Total:     1.2633

*** Psi4 exiting successfully. Buy a developer a beer!
