                               Psi4 1.4a3.dev225

  ==> Input File <==

--------------------------------------------------------------------------
#psi4
#
memory 32 gb

molecule  {
0 1
  S        1.8205190     0.0641380    -0.3390420
  C       -1.2625450    -0.0636770     0.0596210
  C        0.8711260    -1.2781040     0.4345100
  C       -0.5666070    -1.2221760     0.0100460
  C       -0.5777350     1.1920400     0.3472900
  C       -2.7289820     0.0096020    -0.2663480
  C        0.6871887     1.4394155     0.1544410
  H        0.9719080    -1.1855360     1.5235300
  H        1.3455570    -2.2125020     0.1247530
  H       -1.0557030    -2.1491070    -0.2838310
  H       -1.1720770     2.0582400     0.6333130
  H       -2.9093790     0.6497060    -1.1365390
  H       -3.2903190     0.4352850     0.5730180
  H       -3.1351240    -0.9830860    -0.4783410
  H        1.2144190     2.3444380     0.1915340
units angstrom
no_reorient  #important for SAPT in psi4, default
symmetry c1  #important for SAPT in psi4, default
}

set PROPERTIES_ORIGIN ["COM"]
properties('MP2/aug-cc-pvtz', properties = ['dipole'])
--------------------------------------------------------------------------

    Molecular point group: c1
  Charge       = 0
  Multiplicity = 1
  Basis Set: AUG-CC-PVTZ
    Blend: AUG-CC-PVTZ
  Basis Set: (AUG-CC-PVTZ AUX)
    Blend: AUG-CC-PVTZ-JKFIT

    Orbital Energies [Eh]
    ---------------------

    Doubly Occupied:

       1A    -91.953773     2A    -11.264039     3A    -11.262273
       4A    -11.246182     5A    -11.235590     6A    -11.235418
       7A    -11.228416     8A     -8.953082     9A     -6.634178
      10A     -6.633348    11A     -6.632481    12A     -1.144656
      13A     -1.040172    14A     -1.032547    15A     -0.932752
      16A     -0.843630    17A     -0.811608    18A     -0.681305
      19A     -0.672014    20A     -0.624320    21A     -0.604187
      22A     -0.577549    23A     -0.570038    24A     -0.535462
      25A     -0.517834    26A     -0.473312    27A     -0.447579
      28A     -0.438428    29A     -0.349090    30A     -0.306199

  @DF-RHF Final Energy:  -629.45205491504487

   => Energetics <=

    Nuclear Repulsion Energy =            345.6742339223693534
    One-Electron Energy =               -1548.4896533385121984
    Two-Electron Energy =                 573.3633645010980899
    Total Energy =                       -629.4520549150448687
  Basis Set: (AUG-CC-PVTZ AUX)
    Blend: AUG-CC-PVTZ-RI
    Molecular point group: c1

    Geometry (in Angstrom), charge = 0, multiplicity = 1:

       Center              X                  Y                   Z               Mass
    ------------   -----------------  -----------------  -----------------  -----------------
         S            1.756417836286     0.046954831655    -0.331823348727    31.972071174400
         C           -1.326646163714    -0.080860168345     0.066839651273    12.000000000000
         C            0.807024836286    -1.295287168345     0.441728651273    12.000000000000
         C           -0.630708163714    -1.239359168345     0.017264651273    12.000000000000
         C           -0.641836163714     1.174856831655     0.354508651273    12.000000000000
         C           -2.793083163714    -0.007581168345    -0.259129348727    12.000000000000
         C            0.623087536286     1.422232331655     0.161659651273    12.000000000000
         H            0.907806836286    -1.202719168345     1.530748651273     1.007825032230
         H            1.281455836286    -2.229685168345     0.131971651273     1.007825032230
         H           -1.119804163714    -2.166290168345    -0.276612348727     1.007825032230
         H           -1.236178163714     2.041056831655     0.640531651273     1.007825032230
         H           -2.973480163714     0.632522831655    -1.129320348727     1.007825032230
         H           -3.354420163714     0.418101831655     0.580236651273     1.007825032230
         H           -3.199225163714    -1.000269168345    -0.471122348727     1.007825032230
         H            1.150317836286     2.327254831655     0.198752651273     1.007825032230

  Basis Set: AUG-CC-PVTZ
    Blend: AUG-CC-PVTZ
  Basis Set: (AUG-CC-PVTZ AUX)
    Blend: AUG-CC-PVTZ-JKFIT
	 Reference Energy          =    -629.4520549150448687 [Eh]
	 Singles Energy            =      -0.0000000000000000 [Eh]
	 Same-Spin Energy          =      -0.3100695917205839 [Eh]
	 Opposite-Spin Energy      =      -1.0171829457512815 [Eh]
	 Correlation Energy        =      -1.3272525374718653 [Eh]
	 Total Energy              =    -630.7793074525167185 [Eh]

	 ================> DF-SCS-MP2 Energies <==================
	-----------------------------------------------------------
	 SCS Same-Spin Scale       =       0.3333333333333333 [-]
	 SCS Opposite-Spin Scale   =       1.2000000000000000 [-]
	 SCS Same-Spin Energy      =      -0.1033565305735280 [Eh]
	 SCS Opposite-Spin Energy  =      -1.2206195349015379 [Eh]
	 SCS Correlation Energy    =      -1.3239760654750659 [Eh]
	 SCS Total Energy          =    -630.7760309805199768 [Eh]
	-----------------------------------------------------------

  Dipole Moment: [D]
     X:    -1.3815      Y:    -0.1760      Z:     0.6060     Total:     1.5188

*** Psi4 exiting successfully. Buy a developer a beer!
