                               Psi4 1.4a3.dev225

  ==> Input File <==

--------------------------------------------------------------------------
#psi4
#
memory 32 gb

molecule  {
0 1
  S        1.8205190     0.0641380    -0.3390420
  C       -1.2625450    -0.0636770     0.0596210
  C        0.8711260    -1.2781040     0.4345100
  C       -0.5563149    -1.2393089     0.0093128
  C       -0.5777350     1.1920400     0.3472900
  C       -2.7289820     0.0096020    -0.2663480
  C        0.7484780     1.3650420     0.1277540
  H        0.9719080    -1.1855360     1.5235300
  H        1.3455570    -2.2125020     0.1247530
  H       -1.0557030    -2.1491070    -0.2838310
  H       -1.1720770     2.0582400     0.6333130
  H       -2.9093790     0.6497060    -1.1365390
  H       -3.2903190     0.4352850     0.5730180
  H       -3.1351240    -0.9830860    -0.4783410
  H        1.2144190     2.3444380     0.1915340
units angstrom
no_reorient  #important for SAPT in psi4, default
symmetry c1  #important for SAPT in psi4, default
}

set PROPERTIES_ORIGIN ["COM"]
properties('MP2/aug-cc-pvtz', properties = ['dipole'])
--------------------------------------------------------------------------

    Molecular point group: c1
  Charge       = 0
  Multiplicity = 1
  Basis Set: AUG-CC-PVTZ
    Blend: AUG-CC-PVTZ
  Basis Set: (AUG-CC-PVTZ AUX)
    Blend: AUG-CC-PVTZ-JKFIT

    Orbital Energies [Eh]
    ---------------------

    Doubly Occupied:

       1A    -91.959653     2A    -11.268655     3A    -11.263508
       4A    -11.247043     5A    -11.238122     6A    -11.232971
       7A    -11.227049     8A     -8.960183     9A     -6.641416
      10A     -6.640474    11A     -6.639619    12A     -1.143715
      13A     -1.045706    14A     -1.024078    15A     -0.936011
      16A     -0.847220    17A     -0.805177    18A     -0.677384
      19A     -0.663080    20A     -0.619503    21A     -0.604601
      22A     -0.577549    23A     -0.569755    24A     -0.534608
      25A     -0.517818    26A     -0.477551    27A     -0.461040
      28A     -0.440031    29A     -0.351967    30A     -0.293826

  @DF-RHF Final Energy:  -629.45541454067279

   => Energetics <=

    Nuclear Repulsion Energy =            346.5587920074376598
    One-Electron Energy =               -1550.2097891693181282
    Two-Electron Energy =                 574.1955826212076772
    Total Energy =                       -629.4554145406727912
  Basis Set: (AUG-CC-PVTZ AUX)
    Blend: AUG-CC-PVTZ-RI
    Molecular point group: c1

    Geometry (in Angstrom), charge = 0, multiplicity = 1:

       Center              X                  Y                   Z               Mass
    ------------   -----------------  -----------------  -----------------  -----------------
         S            1.748750774036     0.056756054669    -0.328886379342    31.972071174400
         C           -1.334313225964    -0.071058945331     0.069776620658    12.000000000000
         C            0.799357774036    -1.285485945331     0.444665620658    12.000000000000
         C           -0.628083125964    -1.246690845331     0.019468420658    12.000000000000
         C           -0.649503225964     1.184658054669     0.357445620658    12.000000000000
         C           -2.800750225964     0.002220054669    -0.256192379342    12.000000000000
         C            0.676709774036     1.357660054669     0.137909620658    12.000000000000
         H            0.900139774036    -1.192917945331     1.533685620658     1.007825032230
         H            1.273788774036    -2.219883945331     0.134908620658     1.007825032230
         H           -1.127471225964    -2.156488945331    -0.273675379342     1.007825032230
         H           -1.243845225964     2.050858054669     0.643468620658     1.007825032230
         H           -2.981147225964     0.642324054669    -1.126383379342     1.007825032230
         H           -3.362087225964     0.427903054669     0.583173620658     1.007825032230
         H           -3.206892225964    -0.990467945331    -0.468185379342     1.007825032230
         H            1.142650774036     2.337056054669     0.201689620658     1.007825032230

  Basis Set: AUG-CC-PVTZ
    Blend: AUG-CC-PVTZ
  Basis Set: (AUG-CC-PVTZ AUX)
    Blend: AUG-CC-PVTZ-JKFIT
	 Reference Energy          =    -629.4554145406727912 [Eh]
	 Singles Energy            =      -0.0000000000000000 [Eh]
	 Same-Spin Energy          =      -0.3120427524931534 [Eh]
	 Opposite-Spin Energy      =      -1.0192123012625869 [Eh]
	 Correlation Energy        =      -1.3312550537557404 [Eh]
	 Total Energy              =    -630.7866695944285311 [Eh]

	 ================> DF-SCS-MP2 Energies <==================
	-----------------------------------------------------------
	 SCS Same-Spin Scale       =       0.3333333333333333 [-]
	 SCS Opposite-Spin Scale   =       1.2000000000000000 [-]
	 SCS Same-Spin Energy      =      -0.1040142508310511 [Eh]
	 SCS Opposite-Spin Energy  =      -1.2230547615151042 [Eh]
	 SCS Correlation Energy    =      -1.3270690123461553 [Eh]
	 SCS Total Energy          =    -630.7824835530188921 [Eh]
	-----------------------------------------------------------

  Dipole Moment: [D]
     X:    -1.0985      Y:    -0.2739      Z:     0.5434     Total:     1.2558

*** Psi4 exiting successfully. Buy a developer a beer!
