                               Psi4 1.4a3.dev225

  ==> Input File <==

--------------------------------------------------------------------------
#psi4
#
memory 32 gb

molecule  {
0 1
  S        1.8205190     0.0641380    -0.3390420
  C       -1.2625450    -0.0636770     0.0596210
  C        0.8711260    -1.2781040     0.4345100
  C       -0.5666070    -1.2221760     0.0100460
  C       -0.5777350     1.1920400     0.3472900
  C       -2.7289820     0.0096020    -0.2663480
  C        0.7484780     1.3650420     0.1277540
  H        0.9719080    -1.1855360     1.5235300
  H        1.3672648    -2.2552559     0.1105799
  H       -1.0557030    -2.1491070    -0.2838310
  H       -1.1720770     2.0582400     0.6333130
  H       -2.9093790     0.6497060    -1.1365390
  H       -3.2903190     0.4352850     0.5730180
  H       -3.1351240    -0.9830860    -0.4783410
  H        1.2144190     2.3444380     0.1915340
units angstrom
no_reorient  #important for SAPT in psi4, default
symmetry c1  #important for SAPT in psi4, default
}

set PROPERTIES_ORIGIN ["COM"]
properties('MP2/aug-cc-pvtz', properties = ['dipole'])
--------------------------------------------------------------------------

    Molecular point group: c1
  Charge       = 0
  Multiplicity = 1
  Basis Set: AUG-CC-PVTZ
    Blend: AUG-CC-PVTZ
  Basis Set: (AUG-CC-PVTZ AUX)
    Blend: AUG-CC-PVTZ-JKFIT

    Orbital Energies [Eh]
    ---------------------

    Doubly Occupied:

       1A    -91.959648     2A    -11.269705     3A    -11.268460
       4A    -11.244443     5A    -11.238120     6A    -11.232513
       7A    -11.226995     8A     -8.960162     9A     -6.641393
      10A     -6.640454    11A     -6.639593    12A     -1.144752
      13A     -1.046790    14A     -1.021064    15A     -0.936501
      16A     -0.845729    17A     -0.804049    18A     -0.676469
      19A     -0.661971    20A     -0.619496    21A     -0.600010
      22A     -0.576953    23A     -0.568809    24A     -0.534333
      25A     -0.516421    26A     -0.476429    27A     -0.460256
      28A     -0.440136    29A     -0.353850    30A     -0.295640

  @DF-RHF Final Energy:  -629.45480920086061

   => Energetics <=

    Nuclear Repulsion Energy =            346.5264477310624329
    One-Electron Energy =               -1550.1602254004869792
    Two-Electron Energy =                 574.1789684685638804
    Total Energy =                       -629.4548092008606091
  Basis Set: (AUG-CC-PVTZ AUX)
    Blend: AUG-CC-PVTZ-RI
    Molecular point group: c1

    Geometry (in Angstrom), charge = 0, multiplicity = 1:

       Center              X                  Y                   Z               Mass
    ------------   -----------------  -----------------  -----------------  -----------------
         S            1.749657881938     0.055305554147    -0.328837415884    31.972071174400
         C           -1.333406118062    -0.072509445853     0.069825584116    12.000000000000
         C            0.800264881938    -1.286936445853     0.444714584116    12.000000000000
         C           -0.637468118062    -1.231008445853     0.020250584116    12.000000000000
         C           -0.648596118062     1.183207554147     0.357494584116    12.000000000000
         C           -2.799843118062     0.000769554147    -0.256143415884    12.000000000000
         C            0.677616881938     1.356209554147     0.137958584116    12.000000000000
         H            0.901046881938    -1.194368445853     1.533734584116     1.007825032230
         H            1.296403681938    -2.264088345853     0.120784484116     1.007825032230
         H           -1.126564118062    -2.157939445853    -0.273626415884     1.007825032230
         H           -1.242938118062     2.049407554147     0.643517584116     1.007825032230
         H           -2.980240118062     0.640873554147    -1.126334415884     1.007825032230
         H           -3.361180118062     0.426452554147     0.583222584116     1.007825032230
         H           -3.205985118062    -0.991918445853    -0.468136415884     1.007825032230
         H            1.143557881938     2.335605554147     0.201738584116     1.007825032230

  Basis Set: AUG-CC-PVTZ
    Blend: AUG-CC-PVTZ
  Basis Set: (AUG-CC-PVTZ AUX)
    Blend: AUG-CC-PVTZ-JKFIT
	 Reference Energy          =    -629.4548092008606091 [Eh]
	 Singles Energy            =      -0.0000000000000000 [Eh]
	 Same-Spin Energy          =      -0.3117056383483922 [Eh]
	 Opposite-Spin Energy      =      -1.0189587899519210 [Eh]
	 Correlation Energy        =      -1.3306644283003131 [Eh]
	 Total Energy              =    -630.7854736291609470 [Eh]

	 ================> DF-SCS-MP2 Energies <==================
	-----------------------------------------------------------
	 SCS Same-Spin Scale       =       0.3333333333333333 [-]
	 SCS Opposite-Spin Scale   =       1.2000000000000000 [-]
	 SCS Same-Spin Energy      =      -0.1039018794494641 [Eh]
	 SCS Opposite-Spin Energy  =      -1.2227505479423051 [Eh]
	 SCS Correlation Energy    =      -1.3266524273917690 [Eh]
	 SCS Total Energy          =    -630.7814616282523730 [Eh]
	-----------------------------------------------------------

  Dipole Moment: [D]
     X:    -1.1119      Y:    -0.2686      Z:     0.5424     Total:     1.2660

*** Psi4 exiting successfully. Buy a developer a beer!
