                               Psi4 1.4a3.dev225

  ==> Input File <==

--------------------------------------------------------------------------
#psi4
#
memory 32 gb

molecule  {
0 1
  S        1.8205190     0.0641380    -0.3390420
  C       -1.2625450    -0.0636770     0.0596210
  C        0.8711260    -1.2781040     0.4345100
  C       -0.5666070    -1.2221760     0.0100460
  C       -0.5777350     1.1920400     0.3472900
  C       -2.7289820     0.0096020    -0.2663480
  C        0.7484780     1.3650420     0.1277540
  H        0.9719080    -1.1855360     1.5235300
  H        1.3455570    -2.2125020     0.1247530
  H       -1.0781700    -2.1916863    -0.2973305
  H       -1.1720770     2.0582400     0.6333130
  H       -2.9093790     0.6497060    -1.1365390
  H       -3.2903190     0.4352850     0.5730180
  H       -3.1351240    -0.9830860    -0.4783410
  H        1.2144190     2.3444380     0.1915340
units angstrom
no_reorient  #important for SAPT in psi4, default
symmetry c1  #important for SAPT in psi4, default
}

set PROPERTIES_ORIGIN ["COM"]
properties('MP2/aug-cc-pvtz', properties = ['dipole'])
--------------------------------------------------------------------------

    Molecular point group: c1
  Charge       = 0
  Multiplicity = 1
  Basis Set: AUG-CC-PVTZ
    Blend: AUG-CC-PVTZ
  Basis Set: (AUG-CC-PVTZ AUX)
    Blend: AUG-CC-PVTZ-JKFIT

    Orbital Energies [Eh]
    ---------------------

    Doubly Occupied:

       1A    -91.959610     2A    -11.268512     3A    -11.264579
       4A    -11.244603     5A    -11.238350     6A    -11.237846
       7A    -11.226742     8A     -8.960157     9A     -6.641393
      10A     -6.640452    11A     -6.639593    12A     -1.144833
      13A     -1.046938    14A     -1.022078    15A     -0.935939
      16A     -0.848655    17A     -0.801775    18A     -0.670876
      19A     -0.663303    20A     -0.620002    21A     -0.604784
      22A     -0.573005    23A     -0.569019    24A     -0.534029
      25A     -0.517766    26A     -0.476136    27A     -0.460933
      28A     -0.440019    29A     -0.353876    30A     -0.295710

  @DF-RHF Final Energy:  -629.45462350746152

   => Energetics <=

    Nuclear Repulsion Energy =            346.5317180308555862
    One-Electron Energy =               -1550.1696531125360252
    Two-Electron Energy =                 574.1833115742190330
    Total Energy =                       -629.4546235074615197
  Basis Set: (AUG-CC-PVTZ AUX)
    Blend: AUG-CC-PVTZ-RI
    Molecular point group: c1

    Geometry (in Angstrom), charge = 0, multiplicity = 1:

       Center              X                  Y                   Z               Mass
    ------------   -----------------  -----------------  -----------------  -----------------
         S            1.750055263112     0.055303983506    -0.328843475356    31.972071174400
         C           -1.333008736888    -0.072511016494     0.069819524644    12.000000000000
         C            0.800662263112    -1.286938016494     0.444708524644    12.000000000000
         C           -0.637070736888    -1.231010016494     0.020244524644    12.000000000000
         C           -0.648198736888     1.183205983506     0.357488524644    12.000000000000
         C           -2.799445736888     0.000767983506    -0.256149475356    12.000000000000
         C            0.678014263112     1.356207983506     0.137952524644    12.000000000000
         H            0.901444263112    -1.194370016494     1.533728524644     1.007825032230
         H            1.275093263112    -2.221336016494     0.134951524644     1.007825032230
         H           -1.148633736888    -2.200520316494    -0.287131975356     1.007825032230
         H           -1.242540736888     2.049405983506     0.643511524644     1.007825032230
         H           -2.979842736888     0.640871983506    -1.126340475356     1.007825032230
         H           -3.360782736888     0.426450983506     0.583216524644     1.007825032230
         H           -3.205587736888    -0.991920016494    -0.468142475356     1.007825032230
         H            1.143955263112     2.335603983506     0.201732524644     1.007825032230

  Basis Set: AUG-CC-PVTZ
    Blend: AUG-CC-PVTZ
  Basis Set: (AUG-CC-PVTZ AUX)
    Blend: AUG-CC-PVTZ-JKFIT
	 Reference Energy          =    -629.4546235074615197 [Eh]
	 Singles Energy            =      -0.0000000000000000 [Eh]
	 Same-Spin Energy          =      -0.3117797410289145 [Eh]
	 Opposite-Spin Energy      =      -1.0189787424465919 [Eh]
	 Correlation Energy        =      -1.3307584834755064 [Eh]
	 Total Energy              =    -630.7853819909370259 [Eh]

	 ================> DF-SCS-MP2 Energies <==================
	-----------------------------------------------------------
	 SCS Same-Spin Scale       =       0.3333333333333333 [-]
	 SCS Opposite-Spin Scale   =       1.2000000000000000 [-]
	 SCS Same-Spin Energy      =      -0.1039265803429715 [Eh]
	 SCS Opposite-Spin Energy  =      -1.2227744909359102 [Eh]
	 SCS Correlation Energy    =      -1.3267010712788816 [Eh]
	 SCS Total Energy          =    -630.7813245787403957 [Eh]
	-----------------------------------------------------------

  Dipole Moment: [D]
     X:    -1.0825      Y:    -0.2663      Z:     0.5498     Total:     1.2430

*** Psi4 exiting successfully. Buy a developer a beer!
