                               Psi4 1.4a3.dev225

  ==> Input File <==

--------------------------------------------------------------------------
#psi4
#
memory 32 gb

molecule  {
0 1
  S        1.8205190     0.0641380    -0.3390420
  C       -1.2625450    -0.0636770     0.0596210
  C        0.8711260    -1.2781040     0.4345100
  C       -0.5666070    -1.2221760     0.0100460
  C       -0.5777350     1.1920400     0.3472900
  C       -2.7289820     0.0096020    -0.2663480
  C        0.7484780     1.3650420     0.1277540
  H        0.9719080    -1.1855360     1.5235300
  H        1.3455570    -2.2125020     0.1247530
  H       -1.0557030    -2.1491070    -0.2838310
  H       -1.1720770     2.0582400     0.6333130
  H       -2.8764364     0.5328156    -0.9776320
  H       -3.2903190     0.4352850     0.5730180
  H       -3.1351240    -0.9830860    -0.4783410
  H        1.2144190     2.3444380     0.1915340
units angstrom
no_reorient  #important for SAPT in psi4, default
symmetry c1  #important for SAPT in psi4, default
}

set PROPERTIES_ORIGIN ["COM"]
properties('MP2/aug-cc-pvtz', properties = ['dipole'])
--------------------------------------------------------------------------

    Molecular point group: c1
  Charge       = 0
  Multiplicity = 1
  Basis Set: AUG-CC-PVTZ
    Blend: AUG-CC-PVTZ
  Basis Set: (AUG-CC-PVTZ AUX)
    Blend: AUG-CC-PVTZ-JKFIT

    Orbital Energies [Eh]
    ---------------------

    Doubly Occupied:

       1A    -91.959022     2A    -11.268148     3A    -11.263423
       4A    -11.242789     5A    -11.237719     6A    -11.231017
       7A    -11.202174     8A     -8.959566     9A     -6.640804
      10A     -6.639864    11A     -6.639009    12A     -1.145226
      13A     -1.053537    14A     -1.022324    15A     -0.953797
      16A     -0.850951    17A     -0.805715    18A     -0.675786
      19A     -0.669213    20A     -0.625514    21A     -0.608224
      22A     -0.592292    23A     -0.574914    24A     -0.535300
      25A     -0.518920    26A     -0.477063    27A     -0.460610
      28A     -0.440706    29A     -0.354217    30A     -0.294958

  @DF-RHF Final Energy:  -629.42328312318591

   => Energetics <=

    Nuclear Repulsion Energy =            347.7512850627962280
    One-Electron Energy =               -1552.4635270321625740
    Two-Electron Energy =                 575.2889588461805488
    Total Energy =                       -629.4232831231859109
  Basis Set: (AUG-CC-PVTZ AUX)
    Blend: AUG-CC-PVTZ-RI
    Molecular point group: c1

    Geometry (in Angstrom), charge = 0, multiplicity = 1:

       Center              X                  Y                   Z               Mass
    ------------   -----------------  -----------------  -----------------  -----------------
         S            1.749556817575     0.055972460378    -0.330394384411    31.972071174400
         C           -1.333507182425    -0.071842539622     0.068268615589    12.000000000000
         C            0.800163817575    -1.286269539622     0.443157615589    12.000000000000
         C           -0.637569182425    -1.230341539622     0.018693615589    12.000000000000
         C           -0.648697182425     1.183874460378     0.355937615589    12.000000000000
         C           -2.799944182425     0.001436460378    -0.257700384411    12.000000000000
         C            0.677515817575     1.356876460378     0.136401615589    12.000000000000
         H            0.900945817575    -1.193701539622     1.532177615589     1.007825032230
         H            1.274594817575    -2.220667539622     0.133400615589     1.007825032230
         H           -1.126665182425    -2.157272539622    -0.275183384411     1.007825032230
         H           -1.243039182425     2.050074460378     0.641960615589     1.007825032230
         H           -2.947398582425     0.524650060378    -0.968984384411     1.007825032230
         H           -3.361281182425     0.427119460378     0.581665615589     1.007825032230
         H           -3.206086182425    -0.991251539622    -0.469693384411     1.007825032230
         H            1.143456817575     2.336272460378     0.200181615589     1.007825032230

  Basis Set: AUG-CC-PVTZ
    Blend: AUG-CC-PVTZ
  Basis Set: (AUG-CC-PVTZ AUX)
    Blend: AUG-CC-PVTZ-JKFIT
	 Reference Energy          =    -629.4232831231859109 [Eh]
	 Singles Energy            =      -0.0000000000000000 [Eh]
	 Same-Spin Energy          =      -0.3118166847909886 [Eh]
	 Opposite-Spin Energy      =      -1.0180225428736704 [Eh]
	 Correlation Energy        =      -1.3298392276646589 [Eh]
	 Total Energy              =    -630.7531223508506173 [Eh]

	 ================> DF-SCS-MP2 Energies <==================
	-----------------------------------------------------------
	 SCS Same-Spin Scale       =       0.3333333333333333 [-]
	 SCS Opposite-Spin Scale   =       1.2000000000000000 [-]
	 SCS Same-Spin Energy      =      -0.1039388949303295 [Eh]
	 SCS Opposite-Spin Energy  =      -1.2216270514484044 [Eh]
	 SCS Correlation Energy    =      -1.3255659463787339 [Eh]
	 SCS Total Energy          =    -630.7488490695646988 [Eh]
	-----------------------------------------------------------

  Dipole Moment: [D]
     X:    -1.1503      Y:    -0.2512      Z:     0.5013     Total:     1.2797

*** Psi4 exiting successfully. Buy a developer a beer!
