                               Psi4 1.4a3.dev225

  ==> Input File <==

--------------------------------------------------------------------------
#psi4
#
memory 32 gb

molecule  {
0 1
  S        1.8205190     0.0641380    -0.3390420
  C       -1.2625450    -0.0636770     0.0596210
  C        0.8711260    -1.2781040     0.4345100
  C       -0.5666070    -1.2221760     0.0100460
  C       -0.5777350     1.1920400     0.3472900
  C       -2.7289820     0.0096020    -0.2663480
  C        0.7484780     1.3650420     0.1277540
  H        0.9719080    -1.1855360     1.5235300
  H        1.3455570    -2.2125020     0.1247530
  H       -1.0557030    -2.1491070    -0.2838310
  H       -1.1720770     2.0582400     0.6333130
  H       -2.9756775     0.7135995    -1.0682441
  H       -3.2903190     0.4352850     0.5730180
  H       -3.1351240    -0.9830860    -0.4783410
  H        1.2144190     2.3444380     0.1915340
units angstrom
no_reorient  #important for SAPT in psi4, default
symmetry c1  #important for SAPT in psi4, default
}

set PROPERTIES_ORIGIN ["COM"]
properties('MP2/aug-cc-pvtz', properties = ['dipole'])
--------------------------------------------------------------------------

    Molecular point group: c1
  Charge       = 0
  Multiplicity = 1
  Basis Set: AUG-CC-PVTZ
    Blend: AUG-CC-PVTZ
  Basis Set: (AUG-CC-PVTZ AUX)
    Blend: AUG-CC-PVTZ-JKFIT

    Orbital Energies [Eh]
    ---------------------

    Doubly Occupied:

       1A    -91.959359     2A    -11.268335     3A    -11.264278
       4A    -11.245042     5A    -11.238094     6A    -11.232587
       7A    -11.226911     8A     -8.959909     9A     -6.641147
      10A     -6.640206    11A     -6.639347    12A     -1.144975
      13A     -1.046835    14A     -1.022877    15A     -0.936786
      16A     -0.849758    17A     -0.804247    18A     -0.676498
      19A     -0.664282    20A     -0.622203    21A     -0.603808
      22A     -0.576832    23A     -0.560449    24A     -0.538582
      25A     -0.520148    26A     -0.477785    27A     -0.460929
      28A     -0.439069    29A     -0.353498    30A     -0.295597

  @DF-RHF Final Energy:  -629.45582343808894

   => Energetics <=

    Nuclear Repulsion Energy =            346.7008826287153056
    One-Electron Energy =               -1550.4926730884592416
    Two-Electron Energy =                 574.3359670216549375
    Total Energy =                       -629.4558234380889417
  Basis Set: (AUG-CC-PVTZ AUX)
    Blend: AUG-CC-PVTZ-RI
    Molecular point group: c1

    Geometry (in Angstrom), charge = 0, multiplicity = 1:

       Center              X                  Y                   Z               Mass
    ------------   -----------------  -----------------  -----------------  -----------------
         S            1.750449556078     0.054346191139    -0.329579269398    31.972071174400
         C           -1.332614443922    -0.073468808861     0.069083730602    12.000000000000
         C            0.801056556078    -1.287895808861     0.443972730602    12.000000000000
         C           -0.636676443922    -1.231967808861     0.019508730602    12.000000000000
         C           -0.647804443922     1.182248191139     0.356752730602    12.000000000000
         C           -2.799051443922    -0.000189808861    -0.256885269398    12.000000000000
         C            0.678408556078     1.355250191139     0.137216730602    12.000000000000
         H            0.901838556078    -1.195327808861     1.532992730602     1.007825032230
         H            1.275487556078    -2.222293808861     0.134215730602     1.007825032230
         H           -1.125772443922    -2.158898808861    -0.274368269398     1.007825032230
         H           -1.242146443922     2.048448191139     0.642775730602     1.007825032230
         H           -3.045746943922     0.703807691139    -1.058781369398     1.007825032230
         H           -3.360388443922     0.425493191139     0.582480730602     1.007825032230
         H           -3.205193443922    -0.992877808861    -0.468878269398     1.007825032230
         H            1.144349556078     2.334646191139     0.200996730602     1.007825032230

  Basis Set: AUG-CC-PVTZ
    Blend: AUG-CC-PVTZ
  Basis Set: (AUG-CC-PVTZ AUX)
    Blend: AUG-CC-PVTZ-JKFIT
	 Reference Energy          =    -629.4558234380889417 [Eh]
	 Singles Energy            =      -0.0000000000000000 [Eh]
	 Same-Spin Energy          =      -0.3117067867779096 [Eh]
	 Opposite-Spin Energy      =      -1.0185931840192843 [Eh]
	 Correlation Energy        =      -1.3302999707971939 [Eh]
	 Total Energy              =    -630.7861234088861693 [Eh]

	 ================> DF-SCS-MP2 Energies <==================
	-----------------------------------------------------------
	 SCS Same-Spin Scale       =       0.3333333333333333 [-]
	 SCS Opposite-Spin Scale   =       1.2000000000000000 [-]
	 SCS Same-Spin Energy      =      -0.1039022622593032 [Eh]
	 SCS Opposite-Spin Energy  =      -1.2223118208231412 [Eh]
	 SCS Correlation Energy    =      -1.3262140830824443 [Eh]
	 SCS Total Energy          =    -630.7820375211713326 [Eh]
	-----------------------------------------------------------

  Dipole Moment: [D]
     X:    -1.1120      Y:    -0.2562      Z:     0.5647     Total:     1.2732

*** Psi4 exiting successfully. Buy a developer a beer!
