                               Psi4 1.4a3.dev225

  ==> Input File <==

--------------------------------------------------------------------------
#psi4
#
memory 32 gb

molecule  {
0 1
  S        1.9535443     0.1896553    -0.3474333
  C       -1.2625450    -0.0636770     0.0596210
  C        0.8711260    -1.2781040     0.4345100
  C       -0.5666070    -1.2221760     0.0100460
  C       -0.5777350     1.1920400     0.3472900
  C       -2.7289820     0.0096020    -0.2663480
  C        0.7484780     1.3650420     0.1277540
  H        0.9719080    -1.1855360     1.5235300
  H        1.3455570    -2.2125020     0.1247530
  H       -1.0557030    -2.1491070    -0.2838310
  H       -1.1720770     2.0582400     0.6333130
  H       -2.9093790     0.6497060    -1.1365390
  H       -3.2903190     0.4352850     0.5730180
  H       -3.1351240    -0.9830860    -0.4783410
  H        1.2144190     2.3444380     0.1915340
units angstrom
no_reorient  #important for SAPT in psi4, default
symmetry c1  #important for SAPT in psi4, default
}

set PROPERTIES_ORIGIN ["COM"]
properties('MP2/aug-cc-pvtz', properties = ['dipole'])
--------------------------------------------------------------------------

    Molecular point group: c1
  Charge       = 0
  Multiplicity = 1
  Basis Set: AUG-CC-PVTZ
    Blend: AUG-CC-PVTZ
  Basis Set: (AUG-CC-PVTZ AUX)
    Blend: AUG-CC-PVTZ-JKFIT

    Orbital Energies [Eh]
    ---------------------

    Doubly Occupied:

       1A    -91.965040     2A    -11.277038     3A    -11.270266
       4A    -11.246630     5A    -11.237062     6A    -11.232185
       7A    -11.227651     8A     -8.963476     9A     -6.644557
      10A     -6.643437    11A     -6.642731    12A     -1.136379
      13A     -1.041720    14A     -1.013315    15A     -0.936900
      16A     -0.853355    17A     -0.799155    18A     -0.676662
      19A     -0.660634    20A     -0.617228    21A     -0.603219
      22A     -0.571674    23A     -0.565256    24A     -0.533058
      25A     -0.512788    26A     -0.472330    27A     -0.456099
      28A     -0.439289    29A     -0.358722    30A     -0.293112

  @DF-RHF Final Energy:  -629.44483386209117

   => Energetics <=

    Nuclear Repulsion Energy =            341.2522079159077180
    One-Electron Energy =               -1539.6121476019013699
    Two-Electron Energy =                 568.9151058239024223
    Total Energy =                       -629.4448338620911727
  Basis Set: (AUG-CC-PVTZ AUX)
    Blend: AUG-CC-PVTZ-RI
    Molecular point group: c1

    Geometry (in Angstrom), charge = 0, multiplicity = 1:

       Center              X                  Y                   Z               Mass
    ------------   -----------------  -----------------  -----------------  -----------------
         S            1.844916152845     0.144618557316    -0.334961531693    31.972071174400
         C           -1.371173147155    -0.108713742684     0.072092768307    12.000000000000
         C            0.762497852845    -1.323140742684     0.446981768307    12.000000000000
         C           -0.675235147155    -1.267212742684     0.022517768307    12.000000000000
         C           -0.686363147155     1.147003257316     0.359761768307    12.000000000000
         C           -2.837610147155    -0.035434742684    -0.253876231693    12.000000000000
         C            0.639849852845     1.320005257316     0.140225768307    12.000000000000
         H            0.863279852845    -1.230572742684     1.536001768307     1.007825032230
         H            1.236928852845    -2.257538742684     0.137224768307     1.007825032230
         H           -1.164331147155    -2.194143742684    -0.271359231693     1.007825032230
         H           -1.280705147155     2.013203257316     0.645784768307     1.007825032230
         H           -3.018007147155     0.604669257316    -1.124067231693     1.007825032230
         H           -3.398947147155     0.390248257316     0.585489768307     1.007825032230
         H           -3.243752147155    -1.028122742684    -0.465869231693     1.007825032230
         H            1.105790852845     2.299401257316     0.204005768307     1.007825032230

  Basis Set: AUG-CC-PVTZ
    Blend: AUG-CC-PVTZ
  Basis Set: (AUG-CC-PVTZ AUX)
    Blend: AUG-CC-PVTZ-JKFIT
	 Reference Energy          =    -629.4448338620911727 [Eh]
	 Singles Energy            =      -0.0000000000000000 [Eh]
	 Same-Spin Energy          =      -0.3110836305923271 [Eh]
	 Opposite-Spin Energy      =      -1.0200209890285672 [Eh]
	 Correlation Energy        =      -1.3311046196208944 [Eh]
	 Total Energy              =    -630.7759384817120463 [Eh]

	 ================> DF-SCS-MP2 Energies <==================
	-----------------------------------------------------------
	 SCS Same-Spin Scale       =       0.3333333333333333 [-]
	 SCS Opposite-Spin Scale   =       1.2000000000000000 [-]
	 SCS Same-Spin Energy      =      -0.1036945435307757 [Eh]
	 SCS Opposite-Spin Energy  =      -1.2240251868342806 [Eh]
	 SCS Correlation Energy    =      -1.3277197303650563 [Eh]
	 SCS Total Energy          =    -630.7725535924562337 [Eh]
	-----------------------------------------------------------

  Dipole Moment: [D]
     X:    -1.1479      Y:    -0.3642      Z:     0.5297     Total:     1.3156

*** Psi4 exiting successfully. Buy a developer a beer!
