                               Psi4 1.3.2 release

  ==> Input File <==

--------------------------------------------------------------------------
#psi4
#
memory 32 gb

molecule  {
0 1
  S       -0.5183764    -0.1888236     0.1542305
  O       -1.5405550     0.9822230    -0.3857470
  O       -0.6402970    -0.4772220     1.4269040
  O       -0.4220170    -1.1957040    -1.0033910
  C        1.0482880     0.8316110    -0.1712040
  C        2.2874680    -0.0228060     0.0685240
  H        1.0172350     1.2390840    -1.1847640
  H        0.9628170     1.6516560     0.5452270
  H        3.1798800     0.5979390    -0.0357570
  H        2.2751200    -0.4461820     1.0750660
  H        2.3399770    -0.8369630    -0.6562920
  H       -2.2229620     0.9537130     0.3175410
units angstrom
no_reorient  #important for SAPT in psi4, default
symmetry c1  #important for SAPT in psi4, default
}

set PROPERTIES_ORIGIN ["COM"]
properties('MP2/aug-cc-pvtz', properties = ['dipole'])
--------------------------------------------------------------------------

    Molecular point group: c1
  Charge       = 0
  Multiplicity = 1
  Basis Set: AUG-CC-PVTZ
    Blend: AUG-CC-PVTZ
  Basis Set: (AUG-CC-PVTZ AUX)
    Blend: AUG-CC-PVTZ-JKFIT

    Orbital Energies [Eh]
    ---------------------

    Doubly Occupied:

       1A    -92.217906     2A    -20.643040     3A    -20.604652
       4A    -20.545100     5A    -11.279639     6A    -11.238738
       7A     -9.186534     8A     -6.872624     9A     -6.870759
      10A     -6.869062    11A     -1.563930    12A     -1.425563
      13A     -1.321784    14A     -1.066104    15A     -0.921488
      16A     -0.834240    17A     -0.754298    18A     -0.733736
      19A     -0.709789    20A     -0.661674    21A     -0.640411
      22A     -0.596164    23A     -0.582256    24A     -0.558323
      25A     -0.543652    26A     -0.526177    27A     -0.497943
      28A     -0.474068    29A     -0.438334

  @DF-RHF Final Energy:  -701.39427275601713

   => Energetics <=

    Nuclear Repulsion Energy =            357.2912160822277201
    One-Electron Energy =               -1675.0150013574163950
    Two-Electron Energy =                 616.3295125191715442
    Total Energy =                       -701.3942727560171306
  Basis Set: (AUG-CC-PVTZ AUX)
    Blend: AUG-CC-PVTZ-RI
    Molecular point group: c1

    Geometry (in Angstrom), charge = 0, multiplicity = 1:

       Center              X                  Y                   Z               Mass
    ------------   -----------------  -----------------  -----------------  -----------------
         S           -0.422325138596    -0.150686824656     0.114554849343    31.972071174400
         O           -1.444503738596     1.020359775344    -0.425422650657    15.994914619570
         O           -0.544245738596    -0.439085224656     1.387228349343    15.994914619570
         O           -0.325965738596    -1.157567224656    -1.043066650657    15.994914619570
         C            1.144339261404     0.869747775344    -0.210879650657    12.000000000000
         C            2.383519261404     0.015330775344     0.028848349343    12.000000000000
         H            1.113286261404     1.277220775344    -1.224439650657     1.007825032230
         H            1.058868261404     1.689792775344     0.505551349343     1.007825032230
         H            3.275931261404     0.636075775344    -0.075432650657     1.007825032230
         H            2.371171261404    -0.408045224656     1.035390349343     1.007825032230
         H            2.436028261404    -0.798826224656    -0.695967650657     1.007825032230
         H           -2.126910738596     0.991849775344     0.277865349343     1.007825032230

  Basis Set: AUG-CC-PVTZ
    Blend: AUG-CC-PVTZ
  Basis Set: (AUG-CC-PVTZ AUX)
    Blend: AUG-CC-PVTZ-JKFIT
	 Reference Energy          =    -701.3942727560171306 [Eh]
	 Singles Energy            =      -0.0000000000000000 [Eh]
	 Same-Spin Energy          =      -0.3534962816615984 [Eh]
	 Opposite-Spin Energy      =      -1.0609738744134307 [Eh]
	 Correlation Energy        =      -1.4144701560750290 [Eh]
	 Total Energy              =    -702.8087429120921570 [Eh]

	 ================> DF-SCS-MP2 Energies <==================
	-----------------------------------------------------------
	 SCS Same-Spin Scale       =       0.3333333333333333 [-]
	 SCS Opposite-Spin Scale   =       1.2000000000000000 [-]
	 SCS Same-Spin Energy      =      -0.1178320938871995 [Eh]
	 SCS Opposite-Spin Energy  =      -1.2731686492961167 [Eh]
	 SCS Correlation Energy    =      -1.3910007431833162 [Eh]
	 SCS Total Energy          =    -702.7852734992004571 [Eh]
	-----------------------------------------------------------

  Dipole Moment: [D]
     X:     0.6102      Y:     2.8255      Z:     1.5309     Total:     3.2710

*** Psi4 exiting successfully. Buy a developer a beer!
