                               Psi4 1.3.2 release

  ==> Input File <==

--------------------------------------------------------------------------
#psi4
#
memory 32 gb

molecule  {
0 1
  S       -0.4003944    -0.1932795    -0.0287155
  O       -1.5405550     0.9822230    -0.3857470
  O       -0.6402970    -0.4772220     1.4269040
  O       -0.4220170    -1.1957040    -1.0033910
  C        1.0482880     0.8316110    -0.1712040
  C        2.2874680    -0.0228060     0.0685240
  H        1.0172350     1.2390840    -1.1847640
  H        0.9628170     1.6516560     0.5452270
  H        3.1798800     0.5979390    -0.0357570
  H        2.2751200    -0.4461820     1.0750660
  H        2.3399770    -0.8369630    -0.6562920
  H       -2.2229620     0.9537130     0.3175410
units angstrom
no_reorient  #important for SAPT in psi4, default
symmetry c1  #important for SAPT in psi4, default
}

set PROPERTIES_ORIGIN ["COM"]
properties('MP2/aug-cc-pvtz', properties = ['dipole'])
--------------------------------------------------------------------------

    Molecular point group: c1
  Charge       = 0
  Multiplicity = 1
  Basis Set: AUG-CC-PVTZ
    Blend: AUG-CC-PVTZ
  Basis Set: (AUG-CC-PVTZ AUX)
    Blend: AUG-CC-PVTZ-JKFIT

    Orbital Energies [Eh]
    ---------------------

    Doubly Occupied:

       1A    -92.226481     2A    -20.624720     3A    -20.580302
       4A    -20.559045     5A    -11.293598     6A    -11.251976
       7A     -9.191467     8A     -6.876924     9A     -6.875633
      10A     -6.875087    11A     -1.502436    12A     -1.391469
      13A     -1.340368    14A     -1.098756    15A     -0.943334
      16A     -0.834694    17A     -0.746147    18A     -0.710569
      19A     -0.689854    20A     -0.657891    21A     -0.631788
      22A     -0.599102    23A     -0.569747    24A     -0.554226
      25A     -0.541227    26A     -0.525359    27A     -0.509148
      28A     -0.483173    29A     -0.472278

  @DF-RHF Final Energy:  -701.43767768847033

   => Energetics <=

    Nuclear Repulsion Energy =            357.2013548892686572
    One-Electron Energy =               -1674.9644662692364818
    Two-Electron Energy =                 616.3254336914974374
    Total Energy =                       -701.4376776884703304
  Basis Set: (AUG-CC-PVTZ AUX)
    Blend: AUG-CC-PVTZ-RI
    Molecular point group: c1

    Geometry (in Angstrom), charge = 0, multiplicity = 1:

       Center              X                  Y                   Z               Mass
    ------------   -----------------  -----------------  -----------------  -----------------
         S           -0.338634045762    -0.153847638513    -0.015218765866    31.972071174400
         O           -1.478794645762     1.021654861487    -0.372250265866    15.994914619570
         O           -0.578536645762    -0.437790138513     1.440400734134    15.994914619570
         O           -0.360256645762    -1.156272138513    -0.989894265866    15.994914619570
         C            1.110048354238     0.871042861487    -0.157707265866    12.000000000000
         C            2.349228354238     0.016625861487     0.082020734134    12.000000000000
         H            1.078995354238     1.278515861487    -1.171267265866     1.007825032230
         H            1.024577354238     1.691087861487     0.558723734134     1.007825032230
         H            3.241640354238     0.637370861487    -0.022260265866     1.007825032230
         H            2.336880354238    -0.406750138513     1.088562734134     1.007825032230
         H            2.401737354238    -0.797531138513    -0.642795265866     1.007825032230
         H           -2.161201645762     0.993144861487     0.331037734134     1.007825032230

  Basis Set: AUG-CC-PVTZ
    Blend: AUG-CC-PVTZ
  Basis Set: (AUG-CC-PVTZ AUX)
    Blend: AUG-CC-PVTZ-JKFIT
	 Reference Energy          =    -701.4376776884703304 [Eh]
	 Singles Energy            =      -0.0000000000000000 [Eh]
	 Same-Spin Energy          =      -0.3547572510826457 [Eh]
	 Opposite-Spin Energy      =      -1.0621096640128089 [Eh]
	 Correlation Energy        =      -1.4168669150954547 [Eh]
	 Total Energy              =    -702.8545446035658415 [Eh]

	 ================> DF-SCS-MP2 Energies <==================
	-----------------------------------------------------------
	 SCS Same-Spin Scale       =       0.3333333333333333 [-]
	 SCS Opposite-Spin Scale   =       1.2000000000000000 [-]
	 SCS Same-Spin Energy      =      -0.1182524170275486 [Eh]
	 SCS Opposite-Spin Energy  =      -1.2745315968153708 [Eh]
	 SCS Correlation Energy    =      -1.3927840138429193 [Eh]
	 SCS Total Energy          =    -702.8304617023133005 [Eh]
	-----------------------------------------------------------

  Dipole Moment: [D]
     X:     1.7878      Y:     2.6346      Z:    -0.1994     Total:     3.1902

*** Psi4 exiting successfully. Buy a developer a beer!
