                               Psi4 1.3.2 release

  ==> Input File <==

--------------------------------------------------------------------------
#psi4
#
memory 32 gb

molecule  {
0 1
  S       -0.4582496    -0.0760931     0.1041174
  O       -1.5405550     0.9822230    -0.3857470
  O       -0.6402970    -0.4772220     1.4269040
  O       -0.4220170    -1.1957040    -1.0033910
  C        1.0482880     0.8316110    -0.1712040
  C        2.2874680    -0.0228060     0.0685240
  H        1.0172350     1.2390840    -1.1847640
  H        0.9628170     1.6516560     0.5452270
  H        3.1798800     0.5979390    -0.0357570
  H        2.2751200    -0.4461820     1.0750660
  H        2.3399770    -0.8369630    -0.6562920
  H       -2.2229620     0.9537130     0.3175410
units angstrom
no_reorient  #important for SAPT in psi4, default
symmetry c1  #important for SAPT in psi4, default
}

set PROPERTIES_ORIGIN ["COM"]
properties('MP2/aug-cc-pvtz', properties = ['dipole'])
--------------------------------------------------------------------------

    Molecular point group: c1
  Charge       = 0
  Multiplicity = 1
  Basis Set: AUG-CC-PVTZ
    Blend: AUG-CC-PVTZ
  Basis Set: (AUG-CC-PVTZ AUX)
    Blend: AUG-CC-PVTZ-JKFIT

    Orbital Energies [Eh]
    ---------------------

    Doubly Occupied:

       1A    -92.224820     2A    -20.656710     3A    -20.585416
       4A    -20.533147     5A    -11.292541     6A    -11.249120
       7A     -9.190808     8A     -6.876402     9A     -6.875044
      10A     -6.873888    11A     -1.524201    12A     -1.423068
      13A     -1.293777    14A     -1.095188    15A     -0.949737
      16A     -0.846533    17A     -0.759454    18A     -0.726294
      19A     -0.695355    20A     -0.661213    21A     -0.641734
      22A     -0.594330    23A     -0.576966    24A     -0.558545
      25A     -0.540348    26A     -0.535246    27A     -0.488771
      28A     -0.456079    29A     -0.449854

  @DF-RHF Final Energy:  -701.42132108827445

   => Energetics <=

    Nuclear Repulsion Energy =            357.2279115251624830
    One-Electron Energy =               -1674.9492820087596101
    Two-Electron Energy =                 616.3000493953227306
    Total Energy =                       -701.4213210882744534
  Basis Set: (AUG-CC-PVTZ AUX)
    Blend: AUG-CC-PVTZ-RI
    Molecular point group: c1

    Geometry (in Angstrom), charge = 0, multiplicity = 1:

       Center              X                  Y                   Z               Mass
    ------------   -----------------  -----------------  -----------------  -----------------
         S           -0.379673907047    -0.070720908323     0.079006883515    31.972071174400
         O           -1.461979307047     0.987595191677    -0.410857516485    15.994914619570
         O           -0.561721307047    -0.471849808323     1.401793483515    15.994914619570
         O           -0.343441307047    -1.190331808323    -1.028501516485    15.994914619570
         C            1.126863692953     0.836983191677    -0.196314516485    12.000000000000
         C            2.366043692953    -0.017433808323     0.043413483515    12.000000000000
         H            1.095810692953     1.244456191677    -1.209874516485     1.007825032230
         H            1.041392692953     1.657028191677     0.520116483515     1.007825032230
         H            3.258455692953     0.603311191677    -0.060867516485     1.007825032230
         H            2.353695692953    -0.440809808323     1.049955483515     1.007825032230
         H            2.418552692953    -0.831590808323    -0.681402516485     1.007825032230
         H           -2.144386307047     0.959085191677     0.292430483515     1.007825032230

  Basis Set: AUG-CC-PVTZ
    Blend: AUG-CC-PVTZ
  Basis Set: (AUG-CC-PVTZ AUX)
    Blend: AUG-CC-PVTZ-JKFIT
	 Reference Energy          =    -701.4213210882744534 [Eh]
	 Singles Energy            =      -0.0000000000000000 [Eh]
	 Same-Spin Energy          =      -0.3549451300415850 [Eh]
	 Opposite-Spin Energy      =      -1.0619527639919959 [Eh]
	 Correlation Energy        =      -1.4168978940335808 [Eh]
	 Total Energy              =    -702.8382189823080353 [Eh]

	 ================> DF-SCS-MP2 Energies <==================
	-----------------------------------------------------------
	 SCS Same-Spin Scale       =       0.3333333333333333 [-]
	 SCS Opposite-Spin Scale   =       1.2000000000000000 [-]
	 SCS Same-Spin Energy      =      -0.1183150433471950 [Eh]
	 SCS Opposite-Spin Energy  =      -1.2743433167903950 [Eh]
	 SCS Correlation Energy    =      -1.3926583601375899 [Eh]
	 SCS Total Energy          =    -702.8139794484120557 [Eh]
	-----------------------------------------------------------

  Dipole Moment: [D]
     X:     1.1141      Y:     3.8191      Z:     1.1287     Total:     4.1353

*** Psi4 exiting successfully. Buy a developer a beer!
