                               Psi4 1.3.2 release

  ==> Input File <==

--------------------------------------------------------------------------
#psi4
#
memory 32 gb

molecule  {
0 1
  S       -0.4214780    -0.1554040     0.0158080
  O       -1.5405550     0.9822230    -0.3857470
  O       -0.6402970    -0.4772220     1.4269040
  O       -0.4220170    -1.1957040    -1.0033910
  C        1.0482880     0.8316110    -0.1712040
  C        2.2874680    -0.0228060     0.0685240
  H        1.0172350     1.2390840    -1.1847640
  H        0.9628170     1.6516560     0.5452270
  H        3.1798800     0.5979390    -0.0357570
  H        2.2751200    -0.4461820     1.0750660
  H        2.3399770    -0.8369630    -0.6562920
  H       -2.2925698     0.9508049     0.3892787
units angstrom
no_reorient  #important for SAPT in psi4, default
symmetry c1  #important for SAPT in psi4, default
}

set PROPERTIES_ORIGIN ["COM"]
properties('MP2/aug-cc-pvtz', properties = ['dipole'])
--------------------------------------------------------------------------

    Molecular point group: c1
  Charge       = 0
  Multiplicity = 1
  Basis Set: AUG-CC-PVTZ
    Blend: AUG-CC-PVTZ
  Basis Set: (AUG-CC-PVTZ AUX)
    Blend: AUG-CC-PVTZ-JKFIT

    Orbital Energies [Eh]
    ---------------------

    Doubly Occupied:

       1A    -92.225912     2A    -20.640977     3A    -20.566344
       4A    -20.563284     5A    -11.291780     6A    -11.249991
       7A     -9.190044     8A     -6.875616     9A     -6.874050
      10A     -6.873848    11A     -1.489552    12A     -1.370362
      13A     -1.350815    14A     -1.095574    15A     -0.940073
      16A     -0.830679    17A     -0.733452    18A     -0.707405
      19A     -0.686093    20A     -0.654894    21A     -0.627059
      22A     -0.594623    23A     -0.567808    24A     -0.554326
      25A     -0.539058    26A     -0.519145    27A     -0.502242
      28A     -0.482148    29A     -0.473462

  @DF-RHF Final Energy:  -701.43152643033829

   => Energetics <=

    Nuclear Repulsion Energy =            356.5290315295599726
    One-Electron Energy =               -1673.7798852145720048
    Two-Electron Energy =                 615.8193272546737944
    Total Energy =                       -701.4315264303382946
  Basis Set: (AUG-CC-PVTZ AUX)
    Blend: AUG-CC-PVTZ-RI
    Molecular point group: c1

    Geometry (in Angstrom), charge = 0, multiplicity = 1:

       Center              X                  Y                   Z               Mass
    ------------   -----------------  -----------------  -----------------  -----------------
         S           -0.352952069679    -0.126953829215     0.015706949025    31.972071174400
         O           -1.472029069679     1.010673170785    -0.385848050975    15.994914619570
         O           -0.571771069679    -0.448771829215     1.426802949025    15.994914619570
         O           -0.353491069679    -1.167253829215    -1.003492050975    15.994914619570
         C            1.116813930321     0.860061170785    -0.171305050975    12.000000000000
         C            2.355993930321     0.005644170785     0.068422949025    12.000000000000
         H            1.085760930321     1.267534170785    -1.184865050975     1.007825032230
         H            1.031342930321     1.680106170785     0.545125949025     1.007825032230
         H            3.248405930321     0.626389170785    -0.035858050975     1.007825032230
         H            2.343645930321    -0.417731829215     1.074964949025     1.007825032230
         H            2.408502930321    -0.808512829215    -0.656393050975     1.007825032230
         H           -2.224043869679     0.979255070785     0.389177649025     1.007825032230

  Basis Set: AUG-CC-PVTZ
    Blend: AUG-CC-PVTZ
  Basis Set: (AUG-CC-PVTZ AUX)
    Blend: AUG-CC-PVTZ-JKFIT
	 Reference Energy          =    -701.4315264303382946 [Eh]
	 Singles Energy            =      -0.0000000000000000 [Eh]
	 Same-Spin Energy          =      -0.3562405818122099 [Eh]
	 Opposite-Spin Energy      =      -1.0650940814494305 [Eh]
	 Correlation Energy        =      -1.4213346632616404 [Eh]
	 Total Energy              =    -702.8528610935999268 [Eh]

	 ================> DF-SCS-MP2 Energies <==================
	-----------------------------------------------------------
	 SCS Same-Spin Scale       =       0.3333333333333333 [-]
	 SCS Opposite-Spin Scale   =       1.2000000000000000 [-]
	 SCS Same-Spin Energy      =      -0.1187468606040699 [Eh]
	 SCS Opposite-Spin Energy  =      -1.2781128977393166 [Eh]
	 SCS Correlation Energy    =      -1.3968597583433866 [Eh]
	 SCS Total Energy          =    -702.8283861886816339 [Eh]
	-----------------------------------------------------------

  Dipole Moment: [D]
     X:     1.3986      Y:     3.0396      Z:     0.3215     Total:     3.3614

*** Psi4 exiting successfully. Buy a developer a beer!
