                               Psi4 1.4a3.dev225

  ==> Input File <==

--------------------------------------------------------------------------
#psi4
#
memory 32 gb

molecule  {
0 1
  S       -0.4214550    -0.1555270     0.0157730
  O       -1.5065405     0.9478785    -0.3735961
  O       -0.6405530    -0.4776100     1.4268170
  O       -0.4218140    -1.1955390    -1.0036730
  C        1.0482220     0.8316920    -0.1707940
  C        2.2874800    -0.0227220     0.0684980
  H        1.0171730     1.2397620    -1.1841120
  H        0.9625940     1.6512470     0.5461620
  H        3.1798380     0.5981340    -0.0356250
  H        2.2752130    -0.4464600     1.0748860
  H        2.3400010    -0.8366100    -0.6566250
  H       -2.2225040     0.9541210     0.3179500
units angstrom
no_reorient  #important for SAPT in psi4, default
symmetry c1  #important for SAPT in psi4, default
}

set PROPERTIES_ORIGIN ["COM"]
properties('MP2/aug-cc-pvtz', properties = ['dipole'])
--------------------------------------------------------------------------

    Molecular point group: c1
  Charge       = 0
  Multiplicity = 1
  Basis Set: AUG-CC-PVTZ
    Blend: AUG-CC-PVTZ
  Basis Set: (AUG-CC-PVTZ AUX)
    Blend: AUG-CC-PVTZ-JKFIT

    Orbital Energies [Eh]
    ---------------------

    Doubly Occupied:

       1A    -92.224894     2A    -20.640164     3A    -20.563402
       4A    -20.560376     5A    -11.290049     6A    -11.248715
       7A     -9.189260     8A     -6.875056     9A     -6.873306
      10A     -6.873077    11A     -1.506244    12A     -1.389215
      13A     -1.349356    14A     -1.095194    15A     -0.945220
      16A     -0.843120    17A     -0.751635    18A     -0.714937
      19A     -0.689939    20A     -0.658185    21A     -0.629345
      22A     -0.598748    23A     -0.568789    24A     -0.556149
      25A     -0.538102    26A     -0.521812    27A     -0.501084
      28A     -0.480641    29A     -0.472608

  @DF-RHF Final Energy:  -701.44655154319275

   => Energetics <=

    Nuclear Repulsion Energy =            359.0694495653487479
    One-Electron Energy =               -1678.7347573153153917
    Two-Electron Energy =                 618.2187562067738327
    Total Energy =                       -701.4465515431927543
  Basis Set: (AUG-CC-PVTZ AUX)
    Blend: AUG-CC-PVTZ-RI
    Molecular point group: c1

    Geometry (in Angstrom), charge = 0, multiplicity = 1:

       Center              X                  Y                   Z               Mass
    ------------   -----------------  -----------------  -----------------  -----------------
         S           -0.358507979393    -0.122068168753     0.014569549944    31.972071174400
         O           -1.443593479393     0.981337331247    -0.374799550056    15.994914619570
         O           -0.577605979393    -0.444151168753     1.425613549944    15.994914619570
         O           -0.358866979393    -1.162080168753    -1.004876450056    15.994914619570
         C            1.111169020607     0.865150831247    -0.171997450056    12.000000000000
         C            2.350427020607     0.010736831247     0.067294549944    12.000000000000
         H            1.080120020607     1.273220831247    -1.185315450056     1.007825032230
         H            1.025541020607     1.684705831247     0.544958549944     1.007825032230
         H            3.242785020607     0.631592831247    -0.036828450056     1.007825032230
         H            2.338160020607    -0.413001168753     1.073682549944     1.007825032230
         H            2.402948020607    -0.803151168753    -0.657828450056     1.007825032230
         H           -2.159556979393     0.987579831247     0.316746549944     1.007825032230

  Basis Set: AUG-CC-PVTZ
    Blend: AUG-CC-PVTZ
  Basis Set: (AUG-CC-PVTZ AUX)
    Blend: AUG-CC-PVTZ-JKFIT
	 Reference Energy          =    -701.4465515431927543 [Eh]
	 Singles Energy            =      -0.0000000000000000 [Eh]
	 Same-Spin Energy          =      -0.3545317577972538 [Eh]
	 Opposite-Spin Energy      =      -1.0602331565788941 [Eh]
	 Correlation Energy        =      -1.4147649143761478 [Eh]
	 Total Energy              =    -702.8613164575689325 [Eh]

	 ================> DF-SCS-MP2 Energies <==================
	-----------------------------------------------------------
	 SCS Same-Spin Scale       =       0.3333333333333333 [-]
	 SCS Opposite-Spin Scale   =       1.2000000000000000 [-]
	 SCS Same-Spin Energy      =      -0.1181772525990846 [Eh]
	 SCS Opposite-Spin Energy  =      -1.2722797878946728 [Eh]
	 SCS Correlation Energy    =      -1.3904570404937573 [Eh]
	 SCS Total Energy          =    -702.8370085836864973 [Eh]
	-----------------------------------------------------------

  Dipole Moment: [D]
     X:     1.2610      Y:     3.2204      Z:     0.1848     Total:     3.4634

*** Psi4 exiting successfully. Buy a developer a beer!
