                               Psi4 1.3.2 release

  ==> Input File <==

--------------------------------------------------------------------------
#psi4
#
memory 32 gb

molecule  {
0 1
  S       -0.4214780    -0.1554040     0.0158080
  O       -1.5405550     0.9822230    -0.3857470
  O       -0.6402970    -0.4772220     1.4269040
  O       -0.4220170    -1.1957040    -1.0033910
  C        1.0482880     0.8316110    -0.1712040
  C        2.2874680    -0.0228060     0.0685240
  H        1.0172350     1.2390840    -1.1847640
  H        0.9628170     1.6516560     0.5452270
  H        3.1798800     0.5979390    -0.0357570
  H        2.2751200    -0.4461820     1.0750660
  H        2.3399770    -0.8369630    -0.6562920
  H       -2.2229620     0.9537130     0.3175410
units angstrom
no_reorient  #important for SAPT in psi4, default
symmetry c1  #important for SAPT in psi4, default
}

set PROPERTIES_ORIGIN ["COM"]
properties('MP2/aug-cc-pvtz', properties = ['dipole'])
--------------------------------------------------------------------------

    Molecular point group: c1
  Charge       = 0
  Multiplicity = 1
  Basis Set: AUG-CC-PVTZ
    Blend: AUG-CC-PVTZ
  Basis Set: (AUG-CC-PVTZ AUX)
    Blend: AUG-CC-PVTZ-JKFIT

    Orbital Energies [Eh]
    ---------------------

    Doubly Occupied:

       1A    -92.227957     2A    -20.636041     3A    -20.568078
       4A    -20.564778     5A    -11.292842     6A    -11.250813
       7A     -9.192081     8A     -6.877680     9A     -6.876070
      10A     -6.875865    11A     -1.496217    12A     -1.385981
      13A     -1.352410    14A     -1.097308    15A     -0.945094
      16A     -0.838118    17A     -0.747916    18A     -0.712081
      19A     -0.687926    20A     -0.659280    21A     -0.631350
      22A     -0.597285    23A     -0.569706    24A     -0.556541
      25A     -0.540003    26A     -0.521771    27A     -0.504154
      28A     -0.484073    29A     -0.475104

  @DF-RHF Final Energy:  -701.44457239935150

   => Energetics <=

    Nuclear Repulsion Energy =            357.1355730477508246
    One-Electron Energy =               -1674.8312436400642582
    Two-Electron Energy =                 616.2510981929619902
    Total Energy =                       -701.4445723993515003
  Basis Set: (AUG-CC-PVTZ AUX)
    Blend: AUG-CC-PVTZ-RI
    Molecular point group: c1

    Geometry (in Angstrom), charge = 0, multiplicity = 1:

       Center              X                  Y                   Z               Mass
    ------------   -----------------  -----------------  -----------------  -----------------
         S           -0.353589797698    -0.126980472449     0.016364190617    31.972071174400
         O           -1.472666797698     1.010646527551    -0.385190809383    15.994914619570
         O           -0.572408797698    -0.448798472449     1.427460190617    15.994914619570
         O           -0.354128797698    -1.167280472449    -1.002834809383    15.994914619570
         C            1.116176202302     0.860034527551    -0.170647809383    12.000000000000
         C            2.355356202302     0.005617527551     0.069080190617    12.000000000000
         H            1.085123202302     1.267507527551    -1.184207809383     1.007825032230
         H            1.030705202302     1.680079527551     0.545783190617     1.007825032230
         H            3.247768202302     0.626362527551    -0.035200809383     1.007825032230
         H            2.343008202302    -0.417758472449     1.075622190617     1.007825032230
         H            2.407865202302    -0.808539472449    -0.655735809383     1.007825032230
         H           -2.155073797698     0.982136527551     0.318097190617     1.007825032230

  Basis Set: AUG-CC-PVTZ
    Blend: AUG-CC-PVTZ
  Basis Set: (AUG-CC-PVTZ AUX)
    Blend: AUG-CC-PVTZ-JKFIT
	 Reference Energy          =    -701.4445723993515003 [Eh]
	 Singles Energy            =      -0.0000000000000000 [Eh]
	 Same-Spin Energy          =      -0.3550074138470544 [Eh]
	 Opposite-Spin Energy      =      -1.0621346406779697 [Eh]
	 Correlation Energy        =      -1.4171420545250242 [Eh]
	 Total Energy              =    -702.8617144538765160 [Eh]

	 ================> DF-SCS-MP2 Energies <==================
	-----------------------------------------------------------
	 SCS Same-Spin Scale       =       0.3333333333333333 [-]
	 SCS Opposite-Spin Scale   =       1.2000000000000000 [-]
	 SCS Same-Spin Energy      =      -0.1183358046156848 [Eh]
	 SCS Opposite-Spin Energy  =      -1.2745615688135636 [Eh]
	 SCS Correlation Energy    =      -1.3928973734292485 [Eh]
	 SCS Total Energy          =    -702.8374697727807643 [Eh]
	-----------------------------------------------------------

  Dipole Moment: [D]
     X:     1.5370      Y:     3.0069      Z:     0.2376     Total:     3.3853

*** Psi4 exiting successfully. Buy a developer a beer!
