                               Psi4 1.3.2 release

  ==> Input File <==

--------------------------------------------------------------------------
#psi4
#
memory 32 gb

molecule  {
0 1
  S       -0.4214780    -0.1554040     0.0158080
  O       -1.5405550     0.9822230    -0.3857470
  O       -0.6191905    -0.4641490     1.4329272
  O       -0.4220170    -1.1957040    -1.0033910
  C        1.0482880     0.8316110    -0.1712040
  C        2.2874680    -0.0228060     0.0685240
  H        1.0172350     1.2390840    -1.1847640
  H        0.9628170     1.6516560     0.5452270
  H        3.1798800     0.5979390    -0.0357570
  H        2.2751200    -0.4461820     1.0750660
  H        2.3399770    -0.8369630    -0.6562920
  H       -2.2229620     0.9537130     0.3175410
units angstrom
no_reorient  #important for SAPT in psi4, default
symmetry c1  #important for SAPT in psi4, default
}

set PROPERTIES_ORIGIN ["COM"]
properties('MP2/aug-cc-pvtz', properties = ['dipole'])
--------------------------------------------------------------------------

    Molecular point group: c1
  Charge       = 0
  Multiplicity = 1
  Basis Set: AUG-CC-PVTZ
    Blend: AUG-CC-PVTZ
  Basis Set: (AUG-CC-PVTZ AUX)
    Blend: AUG-CC-PVTZ-JKFIT

    Orbital Energies [Eh]
    ---------------------

    Doubly Occupied:

       1A    -92.228140     2A    -20.636814     3A    -20.568367
       4A    -20.565801     5A    -11.291557     6A    -11.250097
       7A     -9.192238     8A     -6.877836     9A     -6.876246
      10A     -6.876010    11A     -1.496492    12A     -1.386600
      13A     -1.353389    14A     -1.096214    15A     -0.944501
      16A     -0.838080    17A     -0.748166    18A     -0.712191
      19A     -0.688014    20A     -0.658811    21A     -0.631526
      22A     -0.597245    23A     -0.569736    24A     -0.556088
      25A     -0.539371    26A     -0.522199    27A     -0.504854
      28A     -0.484510    29A     -0.474606

  @DF-RHF Final Energy:  -701.44426881840673

   => Energetics <=

    Nuclear Repulsion Energy =            357.1994834790475011
    One-Electron Energy =               -1674.9561036126146973
    Two-Electron Energy =                 616.3123513151604129
    Total Energy =                       -701.4442688184067265
  Basis Set: (AUG-CC-PVTZ AUX)
    Blend: AUG-CC-PVTZ-RI
    Molecular point group: c1

    Geometry (in Angstrom), charge = 0, multiplicity = 1:

       Center              X                  Y                   Z               Mass
    ------------   -----------------  -----------------  -----------------  -----------------
         S           -0.356658753244    -0.128881330282     0.015488397234    31.972071174400
         O           -1.475735753244     1.008745669718    -0.386066602766    15.994914619570
         O           -0.554371253244    -0.437626330282     1.432607597234    15.994914619570
         O           -0.357197753244    -1.169181330282    -1.003710602766    15.994914619570
         C            1.113107246756     0.858133669718    -0.171523602766    12.000000000000
         C            2.352287246756     0.003716669718     0.068204397234    12.000000000000
         H            1.082054246756     1.265606669718    -1.185083602766     1.007825032230
         H            1.027636246756     1.678178669718     0.544907397234     1.007825032230
         H            3.244699246756     0.624461669718    -0.036076602766     1.007825032230
         H            2.339939246756    -0.419659330282     1.074746397234     1.007825032230
         H            2.404796246756    -0.810440330282    -0.656611602766     1.007825032230
         H           -2.158142753244     0.980235669718     0.317221397234     1.007825032230

  Basis Set: AUG-CC-PVTZ
    Blend: AUG-CC-PVTZ
  Basis Set: (AUG-CC-PVTZ AUX)
    Blend: AUG-CC-PVTZ-JKFIT
	 Reference Energy          =    -701.4442688184067265 [Eh]
	 Singles Energy            =      -0.0000000000000000 [Eh]
	 Same-Spin Energy          =      -0.3550688801581564 [Eh]
	 Opposite-Spin Energy      =      -1.0622798441805388 [Eh]
	 Correlation Energy        =      -1.4173487243386951 [Eh]
	 Total Energy              =    -702.8616175427454209 [Eh]

	 ================> DF-SCS-MP2 Energies <==================
	-----------------------------------------------------------
	 SCS Same-Spin Scale       =       0.3333333333333333 [-]
	 SCS Opposite-Spin Scale   =       1.2000000000000000 [-]
	 SCS Same-Spin Energy      =      -0.1183562933860521 [Eh]
	 SCS Opposite-Spin Energy  =      -1.2747358130166464 [Eh]
	 SCS Correlation Energy    =      -1.3930921064026984 [Eh]
	 SCS Total Energy          =    -702.8373609248094454 [Eh]
	-----------------------------------------------------------

  Dipole Moment: [D]
     X:     1.4715      Y:     2.9721      Z:     0.2270     Total:     3.3242

*** Psi4 exiting successfully. Buy a developer a beer!
