                               Psi4 1.3.2 release

  ==> Input File <==

--------------------------------------------------------------------------
#psi4
#
memory 32 gb

molecule  {
0 1
  S       -0.4214780    -0.1554040     0.0158080
  O       -1.5405550     0.9822230    -0.3857470
  O       -0.6402970    -0.4772220     1.4269040
  O       -0.4220170    -1.1957040    -1.0033910
  C        1.0482880     0.8316110    -0.1712040
  C        2.2874680    -0.0228060     0.0685240
  H        1.0172350     1.2390840    -1.1847640
  H        0.9628170     1.6516560     0.5452270
  H        3.1798800     0.5979390    -0.0357570
  H        2.2751200    -0.4461820     1.0750660
  H        2.3399770    -0.8369630    -0.6562920
  H       -2.0837464     0.9595292     0.1740656
units angstrom
no_reorient  #important for SAPT in psi4, default
symmetry c1  #important for SAPT in psi4, default
}

set PROPERTIES_ORIGIN ["COM"]
properties('MP2/aug-cc-pvtz', properties = ['dipole'])
--------------------------------------------------------------------------

    Molecular point group: c1
  Charge       = 0
  Multiplicity = 1
  Basis Set: AUG-CC-PVTZ
    Blend: AUG-CC-PVTZ
  Basis Set: (AUG-CC-PVTZ AUX)
    Blend: AUG-CC-PVTZ-JKFIT

    Orbital Energies [Eh]
    ---------------------

    Doubly Occupied:

       1A    -92.232089     2A    -20.619038     3A    -20.571708
       4A    -20.567786     5A    -11.295010     6A    -11.252478
       7A     -9.196190     8A     -6.881848     9A     -6.880141
      10A     -6.879933    11A     -1.525457    12A     -1.424656
      13A     -1.355447    14A     -1.101424    15A     -0.961320
      16A     -0.859982    17A     -0.775215    18A     -0.718375
      19A     -0.691780    20A     -0.666100    21A     -0.637257
      22A     -0.602956    23A     -0.574018    24A     -0.560359
      25A     -0.541886    26A     -0.526999    27A     -0.507861
      28A     -0.487710    29A     -0.478432

  @DF-RHF Final Energy:  -701.40058363741912

   => Energetics <=

    Nuclear Repulsion Energy =            358.6610368534638837
    One-Electron Energy =               -1677.3763344761791814
    Two-Electron Energy =                 617.3147139852961800
    Total Energy =                       -701.4005836374191176
  Basis Set: (AUG-CC-PVTZ AUX)
    Blend: AUG-CC-PVTZ-RI
    Molecular point group: c1

    Geometry (in Angstrom), charge = 0, multiplicity = 1:

       Center              X                  Y                   Z               Mass
    ------------   -----------------  -----------------  -----------------  -----------------
         S           -0.354865253736    -0.127033758915     0.017678673802    31.972071174400
         O           -1.473942253736     1.010593241085    -0.383876326198    15.994914619570
         O           -0.573684253736    -0.448851758915     1.428774673802    15.994914619570
         O           -0.355404253736    -1.167333758915    -1.001520326198    15.994914619570
         C            1.114900746264     0.859981241085    -0.169333326198    12.000000000000
         C            2.354080746264     0.005564241085     0.070394673802    12.000000000000
         H            1.083847746264     1.267454241085    -1.182893326198     1.007825032230
         H            1.029429746264     1.680026241085     0.547097673802     1.007825032230
         H            3.246492746264     0.626309241085    -0.033886326198     1.007825032230
         H            2.341732746264    -0.417811758915     1.076936673802     1.007825032230
         H            2.406589746264    -0.808592758915    -0.654421326198     1.007825032230
         H           -2.017133653736     0.987899441085     0.175936273802     1.007825032230

  Basis Set: AUG-CC-PVTZ
    Blend: AUG-CC-PVTZ
  Basis Set: (AUG-CC-PVTZ AUX)
    Blend: AUG-CC-PVTZ-JKFIT
	 Reference Energy          =    -701.4005836374191176 [Eh]
	 Singles Energy            =      -0.0000000000000000 [Eh]
	 Same-Spin Energy          =      -0.3525933064640872 [Eh]
	 Opposite-Spin Energy      =      -1.0570551320911949 [Eh]
	 Correlation Energy        =      -1.4096484385552821 [Eh]
	 Total Energy              =    -702.8102320759744543 [Eh]

	 ================> DF-SCS-MP2 Energies <==================
	-----------------------------------------------------------
	 SCS Same-Spin Scale       =       0.3333333333333333 [-]
	 SCS Opposite-Spin Scale   =       1.2000000000000000 [-]
	 SCS Same-Spin Energy      =      -0.1175311021546957 [Eh]
	 SCS Opposite-Spin Energy  =      -1.2684661585094339 [Eh]
	 SCS Correlation Energy    =      -1.3859972606641295 [Eh]
	 SCS Total Energy          =    -702.7865808980832298 [Eh]
	-----------------------------------------------------------

  Dipole Moment: [D]
     X:     1.8187      Y:     2.9233      Z:     0.0962     Total:     3.4442

*** Psi4 exiting successfully. Buy a developer a beer!
