                               Psi4 1.3.2 release

  ==> Input File <==

--------------------------------------------------------------------------
#psi4
#
memory 32 gb

molecule  {
0 1
  S       -0.4313498    -0.1360124     0.0379877
  O       -1.5405550     0.9822230    -0.3857470
  O       -0.6402970    -0.4772220     1.4269040
  O       -0.4220170    -1.1957040    -1.0033910
  C        1.0482880     0.8316110    -0.1712040
  C        2.2874680    -0.0228060     0.0685240
  H        1.0172350     1.2390840    -1.1847640
  H        0.9628170     1.6516560     0.5452270
  H        3.1798800     0.5979390    -0.0357570
  H        2.2751200    -0.4461820     1.0750660
  H        2.3399770    -0.8369630    -0.6562920
  H       -2.2229620     0.9537130     0.3175410
units angstrom
no_reorient  #important for SAPT in psi4, default
symmetry c1  #important for SAPT in psi4, default
}

set PROPERTIES_ORIGIN ["COM"]
properties('MP2/aug-cc-pvtz', properties = ['dipole'])
--------------------------------------------------------------------------

    Molecular point group: c1
  Charge       = 0
  Multiplicity = 1
  Basis Set: AUG-CC-PVTZ
    Blend: AUG-CC-PVTZ
  Basis Set: (AUG-CC-PVTZ AUX)
    Blend: AUG-CC-PVTZ-JKFIT

    Orbital Energies [Eh]
    ---------------------

    Doubly Occupied:

       1A    -92.227892     2A    -20.641471     3A    -20.572545
       4A    -20.556861     5A    -11.292619     6A    -11.250314
       7A     -9.192080     8A     -6.877701     9A     -6.876185
      10A     -6.875685    11A     -1.500230    12A     -1.391315
      13A     -1.344005    14A     -1.096693    15A     -0.946136
      16A     -0.840103    17A     -0.749988    18A     -0.714774
      19A     -0.688293    20A     -0.659819    21A     -0.633038
      22A     -0.595816    23A     -0.570943    24A     -0.557267
      25A     -0.539253    26A     -0.524634    27A     -0.500016
      28A     -0.480439    29A     -0.471804

  @DF-RHF Final Energy:  -701.44300570261260

   => Energetics <=

    Nuclear Repulsion Energy =            357.1361359727300737
    One-Electron Energy =               -1674.8224456008617835
    Two-Electron Energy =                 616.2433039255191716
    Total Energy =                       -701.4430057026125951
  Basis Set: (AUG-CC-PVTZ AUX)
    Blend: AUG-CC-PVTZ-RI
    Molecular point group: c1

    Geometry (in Angstrom), charge = 0, multiplicity = 1:

       Center              X                  Y                   Z               Mass
    ------------   -----------------  -----------------  -----------------  -----------------
         S           -0.360592405979    -0.113224948760     0.032097466301    31.972071174400
         O           -1.469797605979     1.005010451240    -0.391637233699    15.994914619570
         O           -0.569539605979    -0.454434548760     1.421013766301    15.994914619570
         O           -0.351259605979    -1.172916548760    -1.009281233699    15.994914619570
         C            1.119045394021     0.854398451240    -0.177094233699    12.000000000000
         C            2.358225394021    -0.000018548760     0.062633766301    12.000000000000
         H            1.087992394021     1.261871451240    -1.190654233699     1.007825032230
         H            1.033574394021     1.674443451240     0.539336766301     1.007825032230
         H            3.250637394021     0.620726451240    -0.041647233699     1.007825032230
         H            2.345877394021    -0.423394548760     1.069175766301     1.007825032230
         H            2.410734394021    -0.814175548760    -0.662182233699     1.007825032230
         H           -2.152204605979     0.976500451240     0.311650766301     1.007825032230

  Basis Set: AUG-CC-PVTZ
    Blend: AUG-CC-PVTZ
  Basis Set: (AUG-CC-PVTZ AUX)
    Blend: AUG-CC-PVTZ-JKFIT
	 Reference Energy          =    -701.4430057026125951 [Eh]
	 Singles Energy            =      -0.0000000000000000 [Eh]
	 Same-Spin Energy          =      -0.3550614823428159 [Eh]
	 Opposite-Spin Energy      =      -1.0621095886017509 [Eh]
	 Correlation Energy        =      -1.4171710709445668 [Eh]
	 Total Energy              =    -702.8601767735572139 [Eh]

	 ================> DF-SCS-MP2 Energies <==================
	-----------------------------------------------------------
	 SCS Same-Spin Scale       =       0.3333333333333333 [-]
	 SCS Opposite-Spin Scale   =       1.2000000000000000 [-]
	 SCS Same-Spin Energy      =      -0.1183538274476053 [Eh]
	 SCS Opposite-Spin Energy  =      -1.2745315063221010 [Eh]
	 SCS Correlation Energy    =      -1.3928853337697062 [Eh]
	 SCS Total Energy          =    -702.8358910363823497 [Eh]
	-----------------------------------------------------------

  Dipole Moment: [D]
     X:     1.4213      Y:     3.2016      Z:     0.4582     Total:     3.5328

*** Psi4 exiting successfully. Buy a developer a beer!
