                               Psi4 1.4a3.dev225

  ==> Input File <==

--------------------------------------------------------------------------
#psi4
#
memory 32 gb

molecule  {
0 1
  S       -0.4214550    -0.1555270     0.0157730
  O       -1.5405390     0.9824510    -0.3857960
  O       -0.6405530    -0.4776100     1.4268170
  O       -0.4218140    -1.1955390    -1.0036730
  C        1.0482220     0.8316920    -0.1707940
  C        2.2874800    -0.0227220     0.0684980
  H        1.0171730     1.2397620    -1.1841120
  H        0.9625940     1.6512470     0.5461620
  H        3.1798380     0.5981340    -0.0356250
  H        2.2752130    -0.4464600     1.0748860
  H        2.3400010    -0.8366100    -0.6566250
  H       -2.2085917     0.9546989     0.3035933
units angstrom
no_reorient  #important for SAPT in psi4, default
symmetry c1  #important for SAPT in psi4, default
}

set PROPERTIES_ORIGIN ["COM"]
properties('MP2/aug-cc-pvtz', properties = ['dipole'])
--------------------------------------------------------------------------

    Molecular point group: c1
  Charge       = 0
  Multiplicity = 1
  Basis Set: AUG-CC-PVTZ
    Blend: AUG-CC-PVTZ
  Basis Set: (AUG-CC-PVTZ AUX)
    Blend: AUG-CC-PVTZ-JKFIT

    Orbital Energies [Eh]
    ---------------------

    Doubly Occupied:

       1A    -92.228384     2A    -20.634760     3A    -20.568467
       4A    -20.565116     5A    -11.293060     6A    -11.250984
       7A     -9.192505     8A     -6.878109     9A     -6.876489
      10A     -6.876286    11A     -1.497883    12A     -1.389479
      13A     -1.352743    14A     -1.097688    15A     -0.946290
      16A     -0.839862    17A     -0.750941    18A     -0.712823
      19A     -0.688298    20A     -0.660091    21A     -0.632069
      22A     -0.597827    23A     -0.570106    24A     -0.556939
      25A     -0.540203    26A     -0.522293    27A     -0.504562
      28A     -0.484482    29A     -0.475443

  @DF-RHF Final Energy:  -701.44542853100722

   => Energetics <=

    Nuclear Repulsion Energy =            357.2577716839230675
    One-Electron Energy =               -1675.0380358810004964
    Two-Electron Energy =                 616.3348356660702621
    Total Energy =                       -701.4454285310072237
  Basis Set: (AUG-CC-PVTZ AUX)
    Blend: AUG-CC-PVTZ-RI
    Molecular point group: c1

    Geometry (in Angstrom), charge = 0, multiplicity = 1:

       Center              X                  Y                   Z               Mass
    ------------   -----------------  -----------------  -----------------  -----------------
         S           -0.353691944783    -0.127100420210     0.016474988363    31.972071174400
         O           -1.472775944783     1.010877579790    -0.385094011637    15.994914619570
         O           -0.572789944783    -0.449183420210     1.427518988363    15.994914619570
         O           -0.354050944783    -1.167112420210    -1.002971011637    15.994914619570
         C            1.115985055217     0.860118579790    -0.170092011637    12.000000000000
         C            2.355243055217     0.005704579790     0.069199988363    12.000000000000
         H            1.084936055217     1.268188579790    -1.183410011637     1.007825032230
         H            1.030357055217     1.679673579790     0.546863988363     1.007825032230
         H            3.247601055217     0.626560579790    -0.034923011637     1.007825032230
         H            2.342976055217    -0.418033420210     1.075587988363     1.007825032230
         H            2.407764055217    -0.808183420210    -0.655923011637     1.007825032230
         H           -2.140828644783     0.983125479790     0.304295288363     1.007825032230

  Basis Set: AUG-CC-PVTZ
    Blend: AUG-CC-PVTZ
  Basis Set: (AUG-CC-PVTZ AUX)
    Blend: AUG-CC-PVTZ-JKFIT
	 Reference Energy          =    -701.4454285310072237 [Eh]
	 Singles Energy            =      -0.0000000000000000 [Eh]
	 Same-Spin Energy          =      -0.3547624362697315 [Eh]
	 Opposite-Spin Energy      =      -1.0615869427598712 [Eh]
	 Correlation Energy        =      -1.4163493790296027 [Eh]
	 Total Energy              =    -702.8617779100368352 [Eh]

	 ================> DF-SCS-MP2 Energies <==================
	-----------------------------------------------------------
	 SCS Same-Spin Scale       =       0.3333333333333333 [-]
	 SCS Opposite-Spin Scale   =       1.2000000000000000 [-]
	 SCS Same-Spin Energy      =      -0.1182541454232438 [Eh]
	 SCS Opposite-Spin Energy  =      -1.2739043313118454 [Eh]
	 SCS Correlation Energy    =      -1.3921584767350892 [Eh]
	 SCS Total Energy          =    -702.8375870077422860 [Eh]
	-----------------------------------------------------------

  Dipole Moment: [D]
     X:     1.5667      Y:     2.9990      Z:     0.2232     Total:     3.3909

*** Psi4 exiting successfully. Buy a developer a beer!
