                               Psi4 1.4a3.dev225

  ==> Input File <==

--------------------------------------------------------------------------
#psi4
#
memory 32 gb

molecule  {
0 1
  S       -0.4214550    -0.1555270     0.0157730
  O       -1.5405390     0.9824510    -0.3857960
  O       -0.6405530    -0.4776100     1.4268170
  O       -0.4218140    -1.1955390    -1.0036730
  C        1.0069452     0.8039653    -0.1655541
  C        2.2874800    -0.0227220     0.0684980
  H        1.0171730     1.2397620    -1.1841120
  H        0.9625940     1.6512470     0.5461620
  H        3.1798380     0.5981340    -0.0356250
  H        2.2752130    -0.4464600     1.0748860
  H        2.3400010    -0.8366100    -0.6566250
  H       -2.2225040     0.9541210     0.3179500
units angstrom
no_reorient  #important for SAPT in psi4, default
symmetry c1  #important for SAPT in psi4, default
}

set PROPERTIES_ORIGIN ["COM"]
properties('MP2/aug-cc-pvtz', properties = ['dipole'])
--------------------------------------------------------------------------

    Molecular point group: c1
  Charge       = 0
  Multiplicity = 1
  Basis Set: AUG-CC-PVTZ
    Blend: AUG-CC-PVTZ
  Basis Set: (AUG-CC-PVTZ AUX)
    Blend: AUG-CC-PVTZ-JKFIT

    Orbital Energies [Eh]
    ---------------------

    Doubly Occupied:

       1A    -92.229376     2A    -20.636160     3A    -20.568205
       4A    -20.564889     5A    -11.291803     6A    -11.252526
       7A     -9.193806     8A     -6.879433     9A     -6.877922
      10A     -6.877628    11A     -1.497851    12A     -1.386534
      13A     -1.353058    14A     -1.099384    15A     -0.949690
      16A     -0.835513    17A     -0.750647    18A     -0.713767
      19A     -0.688257    20A     -0.657261    21A     -0.630014
      22A     -0.597661    23A     -0.570232    24A     -0.548621
      25A     -0.537976    26A     -0.522524    27A     -0.503338
      28A     -0.486847    29A     -0.480619

  @DF-RHF Final Energy:  -701.44218028761804

   => Energetics <=

    Nuclear Repulsion Energy =            358.1665792257227281
    One-Electron Energy =               -1676.8544370744905336
    Two-Electron Energy =                 617.2456775611498188
    Total Energy =                       -701.4421802876180436
  Basis Set: (AUG-CC-PVTZ AUX)
    Blend: AUG-CC-PVTZ-RI
    Molecular point group: c1

    Geometry (in Angstrom), charge = 0, multiplicity = 1:

       Center              X                  Y                   Z               Mass
    ------------   -----------------  -----------------  -----------------  -----------------
         S           -0.349061714508    -0.124070498266     0.015771850234    31.972071174400
         O           -1.468145714508     1.013907501734    -0.385797149766    15.994914619570
         O           -0.568159714508    -0.446153498266     1.426815850234    15.994914619570
         O           -0.349420714508    -1.164082498266    -1.003674149766    15.994914619570
         C            1.079338485492     0.835421801734    -0.165555249766    12.000000000000
         C            2.359873285492     0.008734501734     0.068496850234    12.000000000000
         H            1.089566285492     1.271218501734    -1.184113149766     1.007825032230
         H            1.034987285492     1.682703501734     0.546160850234     1.007825032230
         H            3.252231285492     0.629590501734    -0.035626149766     1.007825032230
         H            2.347606285492    -0.415003498266     1.074884850234     1.007825032230
         H            2.412394285492    -0.805153498266    -0.656626149766     1.007825032230
         H           -2.150110714508     0.985577501734     0.317948850234     1.007825032230

  Basis Set: AUG-CC-PVTZ
    Blend: AUG-CC-PVTZ
  Basis Set: (AUG-CC-PVTZ AUX)
    Blend: AUG-CC-PVTZ-JKFIT
	 Reference Energy          =    -701.4421802876180436 [Eh]
	 Singles Energy            =      -0.0000000000000000 [Eh]
	 Same-Spin Energy          =      -0.3551909815191279 [Eh]
	 Opposite-Spin Energy      =      -1.0622432803218982 [Eh]
	 Correlation Energy        =      -1.4174342618410261 [Eh]
	 Total Energy              =    -702.8596145494590246 [Eh]

	 ================> DF-SCS-MP2 Energies <==================
	-----------------------------------------------------------
	 SCS Same-Spin Scale       =       0.3333333333333333 [-]
	 SCS Opposite-Spin Scale   =       1.2000000000000000 [-]
	 SCS Same-Spin Energy      =      -0.1183969938397093 [Eh]
	 SCS Opposite-Spin Energy  =      -1.2746919363862779 [Eh]
	 SCS Correlation Energy    =      -1.3930889302259872 [Eh]
	 SCS Total Energy          =    -702.8352692178440293 [Eh]
	-----------------------------------------------------------

  Dipole Moment: [D]
     X:     1.5677      Y:     3.0324      Z:     0.2338     Total:     3.4217

*** Psi4 exiting successfully. Buy a developer a beer!
