                               Psi4 1.3.2 release

  ==> Input File <==

--------------------------------------------------------------------------
#psi4
#
memory 32 gb

molecule  {
0 1
  S       -0.4214780    -0.1554040     0.0158080
  O       -1.5405550     0.9822230    -0.3857470
  O       -0.6490405    -0.5752568     1.3994913
  O       -0.4220170    -1.1957040    -1.0033910
  C        1.0482880     0.8316110    -0.1712040
  C        2.2874680    -0.0228060     0.0685240
  H        1.0172350     1.2390840    -1.1847640
  H        0.9628170     1.6516560     0.5452270
  H        3.1798800     0.5979390    -0.0357570
  H        2.2751200    -0.4461820     1.0750660
  H        2.3399770    -0.8369630    -0.6562920
  H       -2.2229620     0.9537130     0.3175410
units angstrom
no_reorient  #important for SAPT in psi4, default
symmetry c1  #important for SAPT in psi4, default
}

set PROPERTIES_ORIGIN ["COM"]
properties('MP2/aug-cc-pvtz', properties = ['dipole'])
--------------------------------------------------------------------------

    Molecular point group: c1
  Charge       = 0
  Multiplicity = 1
  Basis Set: AUG-CC-PVTZ
    Blend: AUG-CC-PVTZ
  Basis Set: (AUG-CC-PVTZ AUX)
    Blend: AUG-CC-PVTZ-JKFIT

    Orbital Energies [Eh]
    ---------------------

    Doubly Occupied:

       1A    -92.226839     2A    -20.639542     3A    -20.567363
       4A    -20.557694     5A    -11.295613     6A    -11.251682
       7A     -9.191125     8A     -6.876692     9A     -6.875084
      10A     -6.874906    11A     -1.495500    12A     -1.388371
      13A     -1.346224    14A     -1.099423    15A     -0.946781
      16A     -0.838881    17A     -0.748778    18A     -0.712441
      19A     -0.686858    20A     -0.660138    21A     -0.630647
      22A     -0.597607    23A     -0.570221    24A     -0.557756
      25A     -0.540656    26A     -0.522046    27A     -0.499586
      28A     -0.481252    29A     -0.474315

  @DF-RHF Final Energy:  -701.44403818253170

   => Energetics <=

    Nuclear Repulsion Energy =            356.9701321357457573
    One-Electron Energy =               -1674.5203019918640166
    Two-Electron Energy =                 616.1061316735866740
    Total Energy =                       -701.4440381825316990
  Basis Set: (AUG-CC-PVTZ AUX)
    Blend: AUG-CC-PVTZ-RI
    Molecular point group: c1

    Geometry (in Angstrom), charge = 0, multiplicity = 1:

       Center              X                  Y                   Z               Mass
    ------------   -----------------  -----------------  -----------------  -----------------
         S           -0.352318463615    -0.112725885321     0.020350088691    31.972071174400
         O           -1.471395463615     1.024901114679    -0.381204911309    15.994914619570
         O           -0.579880963615    -0.532578685321     1.404033388691    15.994914619570
         O           -0.352857463615    -1.153025885321    -0.998848911309    15.994914619570
         C            1.117447536385     0.874289114679    -0.166661911309    12.000000000000
         C            2.356627536385     0.019872114679     0.073066088691    12.000000000000
         H            1.086394536385     1.281762114679    -1.180221911309     1.007825032230
         H            1.031976536385     1.694334114679     0.549769088691     1.007825032230
         H            3.249039536385     0.640617114679    -0.031214911309     1.007825032230
         H            2.344279536385    -0.403503885321     1.079608088691     1.007825032230
         H            2.409136536385    -0.794284885321    -0.651749911309     1.007825032230
         H           -2.153802463615     0.996391114679     0.322083088691     1.007825032230

  Basis Set: AUG-CC-PVTZ
    Blend: AUG-CC-PVTZ
  Basis Set: (AUG-CC-PVTZ AUX)
    Blend: AUG-CC-PVTZ-JKFIT
	 Reference Energy          =    -701.4440381825316990 [Eh]
	 Singles Energy            =      -0.0000000000000000 [Eh]
	 Same-Spin Energy          =      -0.3549061474787203 [Eh]
	 Opposite-Spin Energy      =      -1.0618879210762375 [Eh]
	 Correlation Energy        =      -1.4167940685549578 [Eh]
	 Total Energy              =    -702.8608322510866628 [Eh]

	 ================> DF-SCS-MP2 Energies <==================
	-----------------------------------------------------------
	 SCS Same-Spin Scale       =       0.3333333333333333 [-]
	 SCS Opposite-Spin Scale   =       1.2000000000000000 [-]
	 SCS Same-Spin Energy      =      -0.1183020491595734 [Eh]
	 SCS Opposite-Spin Energy  =      -1.2742655052914851 [Eh]
	 SCS Correlation Energy    =      -1.3925675544510585 [Eh]
	 SCS Total Energy          =    -702.8366057369827331 [Eh]
	-----------------------------------------------------------

  Dipole Moment: [D]
     X:     1.5676      Y:     3.2595      Z:     0.3200     Total:     3.6310

*** Psi4 exiting successfully. Buy a developer a beer!
