                               Psi4 1.3.2 release

  ==> Input File <==

--------------------------------------------------------------------------
#psi4
#
memory 32 gb

molecule  {
0 1
  S       -0.4214780    -0.1554040     0.0158080
  O       -1.5405550     0.9822230    -0.3857470
  O       -0.6402970    -0.4772220     1.4269040
  O       -0.4220170    -1.1957040    -1.0033910
  C        1.1308463     0.8870527    -0.1817087
  C        2.2874680    -0.0228060     0.0685240
  H        1.0172350     1.2390840    -1.1847640
  H        0.9628170     1.6516560     0.5452270
  H        3.1798800     0.5979390    -0.0357570
  H        2.2751200    -0.4461820     1.0750660
  H        2.3399770    -0.8369630    -0.6562920
  H       -2.2229620     0.9537130     0.3175410
units angstrom
no_reorient  #important for SAPT in psi4, default
symmetry c1  #important for SAPT in psi4, default
}

set PROPERTIES_ORIGIN ["COM"]
properties('MP2/aug-cc-pvtz', properties = ['dipole'])
--------------------------------------------------------------------------

    Molecular point group: c1
  Charge       = 0
  Multiplicity = 1
  Basis Set: AUG-CC-PVTZ
    Blend: AUG-CC-PVTZ
  Basis Set: (AUG-CC-PVTZ AUX)
    Blend: AUG-CC-PVTZ-JKFIT

    Orbital Energies [Eh]
    ---------------------

    Doubly Occupied:

       1A    -92.222330     2A    -20.634395     3A    -20.566606
       4A    -20.563349     5A    -11.297051     6A    -11.249419
       7A     -9.186434     8A     -6.871899     9A     -6.870265
      10A     -6.869978    11A     -1.492181    12A     -1.383715
      13A     -1.350066    14A     -1.096747    15A     -0.936651
      16A     -0.842596    17A     -0.742297    18A     -0.707565
      19A     -0.688394    20A     -0.663672    21A     -0.631372
      22A     -0.596746    23A     -0.577283    24A     -0.563677
      25A     -0.544689    26A     -0.519747    27A     -0.503805
      28A     -0.482579    29A     -0.454975

  @DF-RHF Final Energy:  -701.43798493642601

   => Energetics <=

    Nuclear Repulsion Energy =            355.1610537035127777
    One-Electron Energy =               -1670.9771149947202957
    Two-Electron Energy =                 614.3780763547814558
    Total Energy =                       -701.4379849364260053
  Basis Set: (AUG-CC-PVTZ AUX)
    Blend: AUG-CC-PVTZ-RI
    Molecular point group: c1

    Geometry (in Angstrom), charge = 0, multiplicity = 1:

       Center              X                  Y                   Z               Mass
    ------------   -----------------  -----------------  -----------------  -----------------
         S           -0.362595849427    -0.133028450885     0.017510118665    31.972071174400
         O           -1.481672849427     1.004598549115    -0.384044881335    15.994914619570
         O           -0.581414849427    -0.454846450885     1.428606118665    15.994914619570
         O           -0.363134849427    -1.173328450885    -1.001688881335    15.994914619570
         C            1.189728450573     0.909428249115    -0.180006581335    12.000000000000
         C            2.346350150573    -0.000430450885     0.070226118665    12.000000000000
         H            1.076117150573     1.261459549115    -1.183061881335     1.007825032230
         H            1.021699150573     1.674031549115     0.546929118665     1.007825032230
         H            3.238762150573     0.620314549115    -0.034054881335     1.007825032230
         H            2.334002150573    -0.423806450885     1.076768118665     1.007825032230
         H            2.398859150573    -0.814587450885    -0.654589881335     1.007825032230
         H           -2.164079849427     0.976088549115     0.319243118665     1.007825032230

  Basis Set: AUG-CC-PVTZ
    Blend: AUG-CC-PVTZ
  Basis Set: (AUG-CC-PVTZ AUX)
    Blend: AUG-CC-PVTZ-JKFIT
	 Reference Energy          =    -701.4379849364260053 [Eh]
	 Singles Energy            =      -0.0000000000000000 [Eh]
	 Same-Spin Energy          =      -0.3551405844419269 [Eh]
	 Opposite-Spin Energy      =      -1.0627760730718672 [Eh]
	 Correlation Energy        =      -1.4179166575137940 [Eh]
	 Total Energy              =    -702.8559015939398478 [Eh]

	 ================> DF-SCS-MP2 Energies <==================
	-----------------------------------------------------------
	 SCS Same-Spin Scale       =       0.3333333333333333 [-]
	 SCS Opposite-Spin Scale   =       1.2000000000000000 [-]
	 SCS Same-Spin Energy      =      -0.1183801948139756 [Eh]
	 SCS Opposite-Spin Energy  =      -1.2753312876862406 [Eh]
	 SCS Correlation Energy    =      -1.3937114825002161 [Eh]
	 SCS Total Energy          =    -702.8316964189261853 [Eh]
	-----------------------------------------------------------

  Dipole Moment: [D]
     X:     1.5468      Y:     2.9739      Z:     0.2445     Total:     3.3610

*** Psi4 exiting successfully. Buy a developer a beer!
