                               Psi4 1.3.2 release

  ==> Input File <==

--------------------------------------------------------------------------
#psi4
#
memory 32 gb

molecule  {
0 1
  S       -0.4214780    -0.1554040     0.0158080
  O       -1.4727373     0.9800154    -0.5440595
  O       -0.6402970    -0.4772220     1.4269040
  O       -0.4220170    -1.1957040    -1.0033910
  C        1.0482880     0.8316110    -0.1712040
  C        2.2874680    -0.0228060     0.0685240
  H        1.0172350     1.2390840    -1.1847640
  H        0.9628170     1.6516560     0.5452270
  H        3.1798800     0.5979390    -0.0357570
  H        2.2751200    -0.4461820     1.0750660
  H        2.3399770    -0.8369630    -0.6562920
  H       -2.2229620     0.9537130     0.3175410
units angstrom
no_reorient  #important for SAPT in psi4, default
symmetry c1  #important for SAPT in psi4, default
}

set PROPERTIES_ORIGIN ["COM"]
properties('MP2/aug-cc-pvtz', properties = ['dipole'])
--------------------------------------------------------------------------

    Molecular point group: c1
  Charge       = 0
  Multiplicity = 1
  Basis Set: AUG-CC-PVTZ
    Blend: AUG-CC-PVTZ
  Basis Set: (AUG-CC-PVTZ AUX)
    Blend: AUG-CC-PVTZ-JKFIT

    Orbital Energies [Eh]
    ---------------------

    Doubly Occupied:

       1A    -92.225430     2A    -20.650417     3A    -20.577511
       4A    -20.557329     5A    -11.288462     6A    -11.247682
       7A     -9.189915     8A     -6.875512     9A     -6.873916
      10A     -6.873642    11A     -1.490908    12A     -1.370514
      13A     -1.351643    14A     -1.093029    15A     -0.936236
      16A     -0.825742    17A     -0.724748    18A     -0.711525
      19A     -0.684052    20A     -0.653887    21A     -0.629336
      22A     -0.594249    23A     -0.569607    24A     -0.550843
      25A     -0.537430    26A     -0.524533    27A     -0.502265
      28A     -0.482003    29A     -0.471887

  @DF-RHF Final Energy:  -701.41348289575933

   => Energetics <=

    Nuclear Repulsion Energy =            356.7440590292044362
    One-Electron Energy =               -1674.1865766693676960
    Two-Electron Energy =                 616.0290347444039298
    Total Energy =                       -701.4134828957593299
  Basis Set: (AUG-CC-PVTZ AUX)
    Blend: AUG-CC-PVTZ-RI
    Molecular point group: c1

    Geometry (in Angstrom), charge = 0, multiplicity = 1:

       Center              X                  Y                   Z               Mass
    ------------   -----------------  -----------------  -----------------  -----------------
         S           -0.363450717631    -0.126659480040     0.039383356511    31.972071174400
         O           -1.414710017631     1.008759919960    -0.520484143489    15.994914619570
         O           -0.582269717631    -0.448477480040     1.450479356511    15.994914619570
         O           -0.363989717631    -1.166959480040    -0.979815643489    15.994914619570
         C            1.106315282369     0.860355519960    -0.147628643489    12.000000000000
         C            2.345495282369     0.005938519960     0.092099356511    12.000000000000
         H            1.075262282369     1.267828519960    -1.161188643489     1.007825032230
         H            1.020844282369     1.680400519960     0.568802356511     1.007825032230
         H            3.237907282369     0.626683519960    -0.012181643489     1.007825032230
         H            2.333147282369    -0.417437480040     1.098641356511     1.007825032230
         H            2.398004282369    -0.808218480040    -0.632716643489     1.007825032230
         H           -2.164934717631     0.982457519960     0.341116356511     1.007825032230

  Basis Set: AUG-CC-PVTZ
    Blend: AUG-CC-PVTZ
  Basis Set: (AUG-CC-PVTZ AUX)
    Blend: AUG-CC-PVTZ-JKFIT
	 Reference Energy          =    -701.4134828957593299 [Eh]
	 Singles Energy            =      -0.0000000000000000 [Eh]
	 Same-Spin Energy          =      -0.3579039218317169 [Eh]
	 Opposite-Spin Energy      =      -1.0689448487306086 [Eh]
	 Correlation Energy        =      -1.4268487705623256 [Eh]
	 Total Energy              =    -702.8403316663216174 [Eh]

	 ================> DF-SCS-MP2 Energies <==================
	-----------------------------------------------------------
	 SCS Same-Spin Scale       =       0.3333333333333333 [-]
	 SCS Opposite-Spin Scale   =       1.2000000000000000 [-]
	 SCS Same-Spin Energy      =      -0.1193013072772390 [Eh]
	 SCS Opposite-Spin Energy  =      -1.2827338184767303 [Eh]
	 SCS Correlation Energy    =      -1.4020351257539692 [Eh]
	 SCS Total Energy          =    -702.8155180215132987 [Eh]
	-----------------------------------------------------------

  Dipole Moment: [D]
     X:     1.2915      Y:     3.0895      Z:     0.5320     Total:     3.3906

*** Psi4 exiting successfully. Buy a developer a beer!
