                               Psi4 1.3.2 release

  ==> Input File <==

--------------------------------------------------------------------------
#psi4
#
memory 32 gb

molecule  {
0 1
  S       -0.4214780    -0.1554040     0.0158080
  O       -1.5405550     0.9822230    -0.3857470
  O       -0.6425846    -0.5018965     1.4206907
  O       -0.4220170    -1.1957040    -1.0033910
  C        1.0482880     0.8316110    -0.1712040
  C        2.2874680    -0.0228060     0.0685240
  H        1.0172350     1.2390840    -1.1847640
  H        0.9628170     1.6516560     0.5452270
  H        3.1798800     0.5979390    -0.0357570
  H        2.2751200    -0.4461820     1.0750660
  H        2.3399770    -0.8369630    -0.6562920
  H       -2.2229620     0.9537130     0.3175410
units angstrom
no_reorient  #important for SAPT in psi4, default
symmetry c1  #important for SAPT in psi4, default
}

set PROPERTIES_ORIGIN ["COM"]
properties('MP2/aug-cc-pvtz', properties = ['dipole'])
--------------------------------------------------------------------------

    Molecular point group: c1
  Charge       = 0
  Multiplicity = 1
  Basis Set: AUG-CC-PVTZ
    Blend: AUG-CC-PVTZ
  Basis Set: (AUG-CC-PVTZ AUX)
    Blend: AUG-CC-PVTZ-JKFIT

    Orbital Energies [Eh]
    ---------------------

    Doubly Occupied:

       1A    -92.227695     2A    -20.636933     3A    -20.567935
       4A    -20.563042     5A    -11.293543     6A    -11.251034
       7A     -9.191854     8A     -6.877446     9A     -6.875832
      10A     -6.875642    11A     -1.496027    12A     -1.386563
      13A     -1.350959    14A     -1.097847    15A     -0.945523
      16A     -0.838302    17A     -0.748136    18A     -0.712182
      19A     -0.687655    20A     -0.659499    21A     -0.631201
      22A     -0.597386    23A     -0.569838    24A     -0.556844
      25A     -0.540153    26A     -0.521857    27A     -0.503058
      28A     -0.483274    29A     -0.475185

  @DF-RHF Final Energy:  -701.44469153893954

   => Energetics <=

    Nuclear Repulsion Energy =            357.0882394704273111
    One-Electron Energy =               -1674.7409772972462179
    Two-Electron Energy =                 616.2080462878792559
    Total Energy =                       -701.4446915389395372
  Basis Set: (AUG-CC-PVTZ AUX)
    Blend: AUG-CC-PVTZ-RI
    Molecular point group: c1

    Geometry (in Angstrom), charge = 0, multiplicity = 1:

       Center              X                  Y                   Z               Mass
    ------------   -----------------  -----------------  -----------------  -----------------
         S           -0.353257173023    -0.123392717793     0.017267625175    31.972071174400
         O           -1.472334173023     1.014234282207    -0.384287374825    15.994914619570
         O           -0.574363773023    -0.469885217793     1.422150325175    15.994914619570
         O           -0.353796173023    -1.163692717793    -1.001931374825    15.994914619570
         C            1.116508826977     0.863622282207    -0.169744374825    12.000000000000
         C            2.355688826977     0.009205282207     0.069983625175    12.000000000000
         H            1.085455826977     1.271095282207    -1.183304374825     1.007825032230
         H            1.031037826977     1.683667282207     0.546686625175     1.007825032230
         H            3.248100826977     0.629950282207    -0.034297374825     1.007825032230
         H            2.343340826977    -0.414170717793     1.076525625175     1.007825032230
         H            2.408197826977    -0.804951717793    -0.654832374825     1.007825032230
         H           -2.154741173023     0.985724282207     0.319000625175     1.007825032230

  Basis Set: AUG-CC-PVTZ
    Blend: AUG-CC-PVTZ
  Basis Set: (AUG-CC-PVTZ AUX)
    Blend: AUG-CC-PVTZ-JKFIT
	 Reference Energy          =    -701.4446915389395372 [Eh]
	 Singles Energy            =      -0.0000000000000000 [Eh]
	 Same-Spin Energy          =      -0.3549715760618447 [Eh]
	 Opposite-Spin Energy      =      -1.0620508055041626 [Eh]
	 Correlation Energy        =      -1.4170223815660075 [Eh]
	 Total Energy              =    -702.8617139205055082 [Eh]

	 ================> DF-SCS-MP2 Energies <==================
	-----------------------------------------------------------
	 SCS Same-Spin Scale       =       0.3333333333333333 [-]
	 SCS Opposite-Spin Scale   =       1.2000000000000000 [-]
	 SCS Same-Spin Energy      =      -0.1183238586872816 [Eh]
	 SCS Opposite-Spin Energy  =      -1.2744609666049951 [Eh]
	 SCS Correlation Energy    =      -1.3927848252922765 [Eh]
	 SCS Total Energy          =    -702.8374763642318612 [Eh]
	-----------------------------------------------------------

  Dipole Moment: [D]
     X:     1.5450      Y:     3.0705      Z:     0.2567     Total:     3.4469

*** Psi4 exiting successfully. Buy a developer a beer!
