                               Psi4 1.4a3.dev225

  ==> Input File <==

--------------------------------------------------------------------------
#psi4
#
memory 32 gb

molecule  {
0 1
  S       -0.4214550    -0.1555270     0.0157730
  O       -1.5405390     0.9824510    -0.3857960
  O       -0.6480367    -0.4886114     1.4750141
  O       -0.4218140    -1.1955390    -1.0036730
  C        1.0482220     0.8316920    -0.1707940
  C        2.2874800    -0.0227220     0.0684980
  H        1.0171730     1.2397620    -1.1841120
  H        0.9625940     1.6512470     0.5461620
  H        3.1798380     0.5981340    -0.0356250
  H        2.2752130    -0.4464600     1.0748860
  H        2.3400010    -0.8366100    -0.6566250
  H       -2.2225040     0.9541210     0.3179500
units angstrom
no_reorient  #important for SAPT in psi4, default
symmetry c1  #important for SAPT in psi4, default
}

set PROPERTIES_ORIGIN ["COM"]
properties('MP2/aug-cc-pvtz', properties = ['dipole'])
--------------------------------------------------------------------------

    Molecular point group: c1
  Charge       = 0
  Multiplicity = 1
  Basis Set: AUG-CC-PVTZ
    Blend: AUG-CC-PVTZ
  Basis Set: (AUG-CC-PVTZ AUX)
    Blend: AUG-CC-PVTZ-JKFIT

    Orbital Energies [Eh]
    ---------------------

    Doubly Occupied:

       1A    -92.231897     2A    -20.639926     3A    -20.568992
       4A    -20.567266     5A    -11.295858     6A    -11.251915
       7A     -9.195520     8A     -6.881064     9A     -6.879382
      10A     -6.879095    11A     -1.488821    12A     -1.385558
      13A     -1.336086    14A     -1.099448    15A     -0.947819
      16A     -0.840768    17A     -0.749454    18A     -0.710242
      19A     -0.686703    20A     -0.658667    21A     -0.626535
      22A     -0.598689    23A     -0.567287    24A     -0.557581
      25A     -0.540740    26A     -0.517999    27A     -0.501018
      28A     -0.480575    29A     -0.474163

  @DF-RHF Final Energy:  -701.43663338381077

   => Energetics <=

    Nuclear Repulsion Energy =            354.8883747664906423
    One-Electron Energy =               -1670.3318790370296938
    Two-Electron Energy =                 614.0068708867282794
    Total Energy =                       -701.4366333838107721
  Basis Set: (AUG-CC-PVTZ AUX)
    Blend: AUG-CC-PVTZ-RI
    Molecular point group: c1

    Geometry (in Angstrom), charge = 0, multiplicity = 1:

       Center              X                  Y                   Z               Mass
    ------------   -----------------  -----------------  -----------------  -----------------
         S           -0.352476329059    -0.125495485366     0.009335436917    31.972071174400
         O           -1.471560329059     1.012482514634    -0.392233563083    15.994914619570
         O           -0.579058029059    -0.458579885366     1.468576536917    15.994914619570
         O           -0.352835329059    -1.165507485366    -1.010110563083    15.994914619570
         C            1.117200670941     0.861723514634    -0.177231563083    12.000000000000
         C            2.356458670941     0.007309514634     0.062060436917    12.000000000000
         H            1.086151670941     1.269793514634    -1.190549563083     1.007825032230
         H            1.031572670941     1.681278514634     0.539724436917     1.007825032230
         H            3.248816670941     0.628165514634    -0.042062563083     1.007825032230
         H            2.344191670941    -0.416428485366     1.068448436917     1.007825032230
         H            2.408979670941    -0.806578485366    -0.663062563083     1.007825032230
         H           -2.153525329059     0.984152514634     0.311512436917     1.007825032230

  Basis Set: AUG-CC-PVTZ
    Blend: AUG-CC-PVTZ
  Basis Set: (AUG-CC-PVTZ AUX)
    Blend: AUG-CC-PVTZ-JKFIT
	 Reference Energy          =    -701.4366333838107721 [Eh]
	 Singles Energy            =      -0.0000000000000000 [Eh]
	 Same-Spin Energy          =      -0.3560352950638693 [Eh]
	 Opposite-Spin Energy      =      -1.0648428593291612 [Eh]
	 Correlation Energy        =      -1.4208781543930304 [Eh]
	 Total Energy              =    -702.8575115382037666 [Eh]

	 ================> DF-SCS-MP2 Energies <==================
	-----------------------------------------------------------
	 SCS Same-Spin Scale       =       0.3333333333333333 [-]
	 SCS Opposite-Spin Scale   =       1.2000000000000000 [-]
	 SCS Same-Spin Energy      =      -0.1186784316879564 [Eh]
	 SCS Opposite-Spin Energy  =      -1.2778114311949935 [Eh]
	 SCS Correlation Energy    =      -1.3964898628829499 [Eh]
	 SCS Total Energy          =    -702.8331232466937308 [Eh]
	-----------------------------------------------------------

  Dipole Moment: [D]
     X:     1.5936      Y:     3.0793      Z:    -0.0174     Total:     3.4673

*** Psi4 exiting successfully. Buy a developer a beer!
