                               Psi4 1.4a3.dev225

  ==> Input File <==

--------------------------------------------------------------------------
#psi4
#
memory 32 gb

molecule  {
0 1
  S       -0.4214550    -0.1555270     0.0157730
  O       -1.5405390     0.9824510    -0.3857960
  O       -0.6405530    -0.4776100     1.4268170
  O       -0.4218140    -1.1955390    -1.0036730
  C        1.0482220     0.8316920    -0.1707940
  C        2.2874800    -0.0227220     0.0684980
  H        1.0171730     1.2397620    -1.1841120
  H        0.9625940     1.6512470     0.5461620
  H        3.1798380     0.5981340    -0.0356250
  H        2.2752130    -0.4464600     1.0748860
  H        2.3400010    -0.8366100    -0.6566250
  H       -2.2572848     0.9526761     0.3538416
units angstrom
no_reorient  #important for SAPT in psi4, default
symmetry c1  #important for SAPT in psi4, default
}

set PROPERTIES_ORIGIN ["COM"]
properties('MP2/aug-cc-pvtz', properties = ['dipole'])
--------------------------------------------------------------------------

    Molecular point group: c1
  Charge       = 0
  Multiplicity = 1
  Basis Set: AUG-CC-PVTZ
    Blend: AUG-CC-PVTZ
  Basis Set: (AUG-CC-PVTZ AUX)
    Blend: AUG-CC-PVTZ-JKFIT

    Orbital Energies [Eh]
    ---------------------

    Doubly Occupied:

       1A    -92.226950     2A    -20.638772     3A    -20.567241
       4A    -20.564069     5A    -11.292313     6A    -11.250407
       7A     -9.191077     8A     -6.876661     9A     -6.875073
      10A     -6.874871    11A     -1.492509    12A     -1.377714
      13A     -1.351646    14A     -1.096429    15A     -0.942390
      16A     -0.834080    17A     -0.740371    18A     -0.709933
      19A     -0.687001    20A     -0.657180    21A     -0.629386
      22A     -0.595957    23A     -0.568733    24A     -0.555437
      25A     -0.539542    26A     -0.520461    27A     -0.503233
      28A     -0.483156    29A     -0.474290

  @DF-RHF Final Energy:  -701.43953636728168

   => Energetics <=

    Nuclear Repulsion Energy =            356.8130141231549146
    One-Electron Energy =               -1674.2713391049192069
    Two-Electron Energy =                 616.0187886144825598
    Total Energy =                       -701.4395363672816757
  Basis Set: (AUG-CC-PVTZ AUX)
    Blend: AUG-CC-PVTZ-RI
    Molecular point group: c1

    Geometry (in Angstrom), charge = 0, multiplicity = 1:

       Center              X                  Y                   Z               Mass
    ------------   -----------------  -----------------  -----------------  -----------------
         S           -0.353245831644    -0.127081887858     0.016014626898    31.972071174400
         O           -1.472329831644     1.010896112142    -0.385554373102    15.994914619570
         O           -0.572343831644    -0.449164887858     1.427058626898    15.994914619570
         O           -0.353604831644    -1.167093887858    -1.003431373102    15.994914619570
         C            1.116431168356     0.860137112142    -0.170552373102    12.000000000000
         C            2.355689168356     0.005723112142     0.068739626898    12.000000000000
         H            1.085382168356     1.268207112142    -1.183870373102     1.007825032230
         H            1.030803168356     1.679692112142     0.546403626898     1.007825032230
         H            3.248047168356     0.626579112142    -0.035383373102     1.007825032230
         H            2.343422168356    -0.418014887858     1.075127626898     1.007825032230
         H            2.408210168356    -0.808164887858    -0.656383373102     1.007825032230
         H           -2.189075631644     0.981121212142     0.354083226898     1.007825032230

  Basis Set: AUG-CC-PVTZ
    Blend: AUG-CC-PVTZ
  Basis Set: (AUG-CC-PVTZ AUX)
    Blend: AUG-CC-PVTZ-JKFIT
	 Reference Energy          =    -701.4395363672816757 [Eh]
	 Singles Energy            =      -0.0000000000000000 [Eh]
	 Same-Spin Energy          =      -0.3556345311135268 [Eh]
	 Opposite-Spin Energy      =      -1.0636031606209628 [Eh]
	 Correlation Energy        =      -1.4192376917344895 [Eh]
	 Total Energy              =    -702.8587740590161275 [Eh]

	 ================> DF-SCS-MP2 Energies <==================
	-----------------------------------------------------------
	 SCS Same-Spin Scale       =       0.3333333333333333 [-]
	 SCS Opposite-Spin Scale   =       1.2000000000000000 [-]
	 SCS Same-Spin Energy      =      -0.1185448437045089 [Eh]
	 SCS Opposite-Spin Energy  =      -1.2763237927451554 [Eh]
	 SCS Correlation Energy    =      -1.3948686364496643 [Eh]
	 SCS Total Energy          =    -702.8344050037313764 [Eh]
	-----------------------------------------------------------

  Dipole Moment: [D]
     X:     1.4690      Y:     3.0234      Z:     0.2803     Total:     3.3731

*** Psi4 exiting successfully. Buy a developer a beer!
