                               Psi4 1.3.2 release

  ==> Input File <==

--------------------------------------------------------------------------
#psi4
#
memory 32 gb

molecule  {
0 1
  S       -0.3368405    -0.1095203    -0.1270140
  O       -1.5405550     0.9822230    -0.3857470
  O       -0.6402970    -0.4772220     1.4269040
  O       -0.4220170    -1.1957040    -1.0033910
  C        1.0482880     0.8316110    -0.1712040
  C        2.2874680    -0.0228060     0.0685240
  H        1.0172350     1.2390840    -1.1847640
  H        0.9628170     1.6516560     0.5452270
  H        3.1798800     0.5979390    -0.0357570
  H        2.2751200    -0.4461820     1.0750660
  H        2.3399770    -0.8369630    -0.6562920
  H       -2.2229620     0.9537130     0.3175410
units angstrom
no_reorient  #important for SAPT in psi4, default
symmetry c1  #important for SAPT in psi4, default
}

set PROPERTIES_ORIGIN ["COM"]
properties('MP2/aug-cc-pvtz', properties = ['dipole'])
--------------------------------------------------------------------------

    Molecular point group: c1
  Charge       = 0
  Multiplicity = 1
  Basis Set: AUG-CC-PVTZ
    Blend: AUG-CC-PVTZ
  Basis Set: (AUG-CC-PVTZ AUX)
    Blend: AUG-CC-PVTZ-JKFIT

    Orbital Energies [Eh]
    ---------------------

    Doubly Occupied:

       1A    -92.226577     2A    -20.630993     3A    -20.583095
       4A    -20.529801     5A    -11.303241     6A    -11.262668
       7A     -9.193693     8A     -6.878802     9A     -6.877758
      10A     -6.876831    11A     -1.499258    12A     -1.399471
      13A     -1.269054    14A     -1.131599    15A     -0.967968
      16A     -0.844569    17A     -0.760365    18A     -0.712862
      19A     -0.697519    20A     -0.659209    21A     -0.619109
      22A     -0.609151    23A     -0.573776    24A     -0.557170
      25A     -0.551201    26A     -0.527271    27A     -0.491361
      28A     -0.449194    29A     -0.445325

  @DF-RHF Final Energy:  -701.39997648137478

   => Energetics <=

    Nuclear Repulsion Energy =            357.1956152011038625
    One-Electron Energy =               -1674.9334012665926821
    Two-Electron Energy =                 616.3378095841139839
    Total Energy =                       -701.3999764813747788
  Basis Set: (AUG-CC-PVTZ AUX)
    Blend: AUG-CC-PVTZ-RI
    Molecular point group: c1

    Geometry (in Angstrom), charge = 0, multiplicity = 1:

       Center              X                  Y                   Z               Mass
    ------------   -----------------  -----------------  -----------------  -----------------
         S           -0.293551784529    -0.094432651626    -0.084947274358    31.972071174400
         O           -1.497266284529     0.997310648374    -0.343680274358    15.994914619570
         O           -0.597008284529    -0.462134351626     1.468970725642    15.994914619570
         O           -0.378728284529    -1.180616351626    -0.961324274358    15.994914619570
         C            1.091576715471     0.846698648374    -0.129137274358    12.000000000000
         C            2.330756715471    -0.007718351626     0.110590725642    12.000000000000
         H            1.060523715471     1.254171648374    -1.142697274358     1.007825032230
         H            1.006105715471     1.666743648374     0.587293725642     1.007825032230
         H            3.223168715471     0.613026648374     0.006309725642     1.007825032230
         H            2.318408715471    -0.431094351626     1.117132725642     1.007825032230
         H            2.383265715471    -0.821875351626    -0.614225274358     1.007825032230
         H           -2.179673284529     0.968800648374     0.359607725642     1.007825032230

  Basis Set: AUG-CC-PVTZ
    Blend: AUG-CC-PVTZ
  Basis Set: (AUG-CC-PVTZ AUX)
    Blend: AUG-CC-PVTZ-JKFIT
	 Reference Energy          =    -701.3999764813747788 [Eh]
	 Singles Energy            =      -0.0000000000000000 [Eh]
	 Same-Spin Energy          =      -0.3563656667091618 [Eh]
	 Opposite-Spin Energy      =      -1.0646362602672506 [Eh]
	 Correlation Energy        =      -1.4210019269764125 [Eh]
	 Total Energy              =    -702.8209784083511522 [Eh]

	 ================> DF-SCS-MP2 Energies <==================
	-----------------------------------------------------------
	 SCS Same-Spin Scale       =       0.3333333333333333 [-]
	 SCS Opposite-Spin Scale   =       1.2000000000000000 [-]
	 SCS Same-Spin Energy      =      -0.1187885555697206 [Eh]
	 SCS Opposite-Spin Energy  =      -1.2775635123207005 [Eh]
	 SCS Correlation Energy    =      -1.3963520678904211 [Eh]
	 SCS Total Energy          =    -702.7963285492652403 [Eh]
	-----------------------------------------------------------

  Dipole Moment: [D]
     X:     2.3957      Y:     3.3181      Z:    -1.1530     Total:     4.2519

*** Psi4 exiting successfully. Buy a developer a beer!
