                               Psi4 1.3.2 release

  ==> Input File <==

--------------------------------------------------------------------------
#psi4
#
memory 32 gb

molecule  {
0 1
  S       -0.4214780    -0.1554040     0.0158080
  O       -1.5405550     0.9822230    -0.3857470
  O       -0.6103991    -0.4332511     1.2341018
  O       -0.4220170    -1.1957040    -1.0033910
  C        1.0482880     0.8316110    -0.1712040
  C        2.2874680    -0.0228060     0.0685240
  H        1.0172350     1.2390840    -1.1847640
  H        0.9628170     1.6516560     0.5452270
  H        3.1798800     0.5979390    -0.0357570
  H        2.2751200    -0.4461820     1.0750660
  H        2.3399770    -0.8369630    -0.6562920
  H       -2.2229620     0.9537130     0.3175410
units angstrom
no_reorient  #important for SAPT in psi4, default
symmetry c1  #important for SAPT in psi4, default
}

set PROPERTIES_ORIGIN ["COM"]
properties('MP2/aug-cc-pvtz', properties = ['dipole'])
--------------------------------------------------------------------------

    Molecular point group: c1
  Charge       = 0
  Multiplicity = 1
  Basis Set: AUG-CC-PVTZ
    Blend: AUG-CC-PVTZ
  Basis Set: (AUG-CC-PVTZ AUX)
    Blend: AUG-CC-PVTZ-JKFIT

    Orbital Energies [Eh]
    ---------------------

    Doubly Occupied:

       1A    -92.197160     2A    -20.618542     3A    -20.571846
       4A    -20.545161     5A    -11.278548     6A    -11.246152
       7A     -9.171067     8A     -6.858377     9A     -6.854884
      10A     -6.853151    11A     -1.584544    12A     -1.405594
      13A     -1.359815    14A     -1.088510    15A     -0.934382
      16A     -0.828042    17A     -0.755909    18A     -0.732282
      19A     -0.712671    20A     -0.665587    21A     -0.645360
      22A     -0.589687    23A     -0.585154    24A     -0.549831
      25A     -0.548378    26A     -0.535868    27A     -0.508155
      28A     -0.485223    29A     -0.469213

  @DF-RHF Final Energy:  -701.40201910623739

   => Energetics <=

    Nuclear Repulsion Energy =            367.4313739922965851
    One-Electron Energy =               -1695.3085945722523320
    Two-Electron Energy =                 626.4752014737183572
    Total Energy =                       -701.4020191062373897
  Basis Set: (AUG-CC-PVTZ AUX)
    Blend: AUG-CC-PVTZ-RI
    Molecular point group: c1

    Geometry (in Angstrom), charge = 0, multiplicity = 1:

       Center              X                  Y                   Z               Mass
    ------------   -----------------  -----------------  -----------------  -----------------
         S           -0.357937052147    -0.133373988069     0.044398274006    31.972071174400
         O           -1.477014052147     1.004253011931    -0.357156725994    15.994914619570
         O           -0.546858152147    -0.411221088069     1.262692074006    15.994914619570
         O           -0.358476052147    -1.173673988069    -0.974800725994    15.994914619570
         C            1.111828947853     0.853641011931    -0.142613725994    12.000000000000
         C            2.351008947853    -0.000775988069     0.097114274006    12.000000000000
         H            1.080775947853     1.261114011931    -1.156173725994     1.007825032230
         H            1.026357947853     1.673686011931     0.573817274006     1.007825032230
         H            3.243420947853     0.619969011931    -0.007166725994     1.007825032230
         H            2.338660947853    -0.424151988069     1.103656274006     1.007825032230
         H            2.403517947853    -0.814932988069    -0.627701725994     1.007825032230
         H           -2.159421052147     0.975743011931     0.346131274006     1.007825032230

  Basis Set: AUG-CC-PVTZ
    Blend: AUG-CC-PVTZ
  Basis Set: (AUG-CC-PVTZ AUX)
    Blend: AUG-CC-PVTZ-JKFIT
	 Reference Energy          =    -701.4020191062373897 [Eh]
	 Singles Energy            =      -0.0000000000000000 [Eh]
	 Same-Spin Energy          =      -0.3499144679706703 [Eh]
	 Opposite-Spin Energy      =      -1.0502269888611244 [Eh]
	 Correlation Energy        =      -1.4001414568317947 [Eh]
	 Total Energy              =    -702.8021605630691511 [Eh]

	 ================> DF-SCS-MP2 Energies <==================
	-----------------------------------------------------------
	 SCS Same-Spin Scale       =       0.3333333333333333 [-]
	 SCS Opposite-Spin Scale   =       1.2000000000000000 [-]
	 SCS Same-Spin Energy      =      -0.1166381559902234 [Eh]
	 SCS Opposite-Spin Energy  =      -1.2602723866333492 [Eh]
	 SCS Correlation Energy    =      -1.3769105426235726 [Eh]
	 SCS Total Energy          =    -702.7789296488609807 [Eh]
	-----------------------------------------------------------

  Dipole Moment: [D]
     X:     1.3184      Y:     2.6955      Z:     1.2794     Total:     3.2620

*** Psi4 exiting successfully. Buy a developer a beer!
