                               Psi4 1.3.2 release

  ==> Input File <==

--------------------------------------------------------------------------
#psi4
#
memory 32 gb

molecule  {
0 1
  S       -0.4214780    -0.1554040     0.0158080
  O       -1.5405550     0.9822230    -0.3857470
  O       -0.6379428    -0.4524495     1.4326875
  O       -0.4220170    -1.1957040    -1.0033910
  C        1.0482880     0.8316110    -0.1712040
  C        2.2874680    -0.0228060     0.0685240
  H        1.0172350     1.2390840    -1.1847640
  H        0.9628170     1.6516560     0.5452270
  H        3.1798800     0.5979390    -0.0357570
  H        2.2751200    -0.4461820     1.0750660
  H        2.3399770    -0.8369630    -0.6562920
  H       -2.2229620     0.9537130     0.3175410
units angstrom
no_reorient  #important for SAPT in psi4, default
symmetry c1  #important for SAPT in psi4, default
}

set PROPERTIES_ORIGIN ["COM"]
properties('MP2/aug-cc-pvtz', properties = ['dipole'])
--------------------------------------------------------------------------

    Molecular point group: c1
  Charge       = 0
  Multiplicity = 1
  Basis Set: AUG-CC-PVTZ
    Blend: AUG-CC-PVTZ
  Basis Set: (AUG-CC-PVTZ AUX)
    Blend: AUG-CC-PVTZ-JKFIT

    Orbital Energies [Eh]
    ---------------------

    Doubly Occupied:

       1A    -92.228208     2A    -20.635140     3A    -20.568198
       4A    -20.566491     5A    -11.292136     6A    -11.250589
       7A     -9.192300     8A     -6.877906     9A     -6.876300
      10A     -6.876077    11A     -1.496415    12A     -1.385418
      13A     -1.353791    14A     -1.096762    15A     -0.944662
      16A     -0.837938    17A     -0.747694    18A     -0.711972
      19A     -0.688199    20A     -0.659058    21A     -0.631482
      22A     -0.597173    23A     -0.569572    24A     -0.556240
      25A     -0.539862    26A     -0.521675    27A     -0.505211
      28A     -0.484871    29A     -0.474904

  @DF-RHF Final Energy:  -701.44428588912228

   => Energetics <=

    Nuclear Repulsion Energy =            357.1868596588179798
    One-Electron Energy =               -1674.9298035224858268
    Two-Electron Energy =                 616.2986579745454492
    Total Energy =                       -701.4442858891222841
  Basis Set: (AUG-CC-PVTZ AUX)
    Blend: AUG-CC-PVTZ-RI
    Molecular point group: c1

    Geometry (in Angstrom), charge = 0, multiplicity = 1:

       Center              X                  Y                   Z               Mass
    ------------   -----------------  -----------------  -----------------  -----------------
         S           -0.353932106235    -0.130582476631     0.015523250414    31.972071174400
         O           -1.473009106235     1.007044523369    -0.386031749586    15.994914619570
         O           -0.570396906235    -0.427627976631     1.432402750414    15.994914619570
         O           -0.354471106235    -1.170882476631    -1.003675749586    15.994914619570
         C            1.115833893765     0.856432523369    -0.171488749586    12.000000000000
         C            2.355013893765     0.002015523369     0.068239250414    12.000000000000
         H            1.084780893765     1.263905523369    -1.185048749586     1.007825032230
         H            1.030362893765     1.676477523369     0.544942250414     1.007825032230
         H            3.247425893765     0.622760523369    -0.036041749586     1.007825032230
         H            2.342665893765    -0.421360476631     1.074781250414     1.007825032230
         H            2.407522893765    -0.812141476631    -0.656576749586     1.007825032230
         H           -2.155416106235     0.978534523369     0.317256250414     1.007825032230

  Basis Set: AUG-CC-PVTZ
    Blend: AUG-CC-PVTZ
  Basis Set: (AUG-CC-PVTZ AUX)
    Blend: AUG-CC-PVTZ-JKFIT
	 Reference Energy          =    -701.4442858891222841 [Eh]
	 Singles Energy            =      -0.0000000000000000 [Eh]
	 Same-Spin Energy          =      -0.3550501766146999 [Eh]
	 Opposite-Spin Energy      =      -1.0622332881074907 [Eh]
	 Correlation Energy        =      -1.4172834647221906 [Eh]
	 Total Energy              =    -702.8615693538445157 [Eh]

	 ================> DF-SCS-MP2 Energies <==================
	-----------------------------------------------------------
	 SCS Same-Spin Scale       =       0.3333333333333333 [-]
	 SCS Opposite-Spin Scale   =       1.2000000000000000 [-]
	 SCS Same-Spin Energy      =      -0.1183500588715666 [Eh]
	 SCS Opposite-Spin Energy  =      -1.2746799457289888 [Eh]
	 SCS Correlation Energy    =      -1.3930300046005555 [Eh]
	 SCS Total Energy          =    -702.8373158937228027 [Eh]
	-----------------------------------------------------------

  Dipole Moment: [D]
     X:     1.5289      Y:     2.9429      Z:     0.2195     Total:     3.3236

*** Psi4 exiting successfully. Buy a developer a beer!
