                               Psi4 1.3.2 release

  ==> Input File <==

--------------------------------------------------------------------------
#psi4
#
memory 32 gb

molecule  {
0 1
  S       -0.4214780    -0.1554040     0.0158080
  O       -1.5405550     0.9822230    -0.3857470
  O       -0.5555353    -0.4243816     1.4484001
  O       -0.4220170    -1.1957040    -1.0033910
  C        1.0482880     0.8316110    -0.1712040
  C        2.2874680    -0.0228060     0.0685240
  H        1.0172350     1.2390840    -1.1847640
  H        0.9628170     1.6516560     0.5452270
  H        3.1798800     0.5979390    -0.0357570
  H        2.2751200    -0.4461820     1.0750660
  H        2.3399770    -0.8369630    -0.6562920
  H       -2.2229620     0.9537130     0.3175410
units angstrom
no_reorient  #important for SAPT in psi4, default
symmetry c1  #important for SAPT in psi4, default
}

set PROPERTIES_ORIGIN ["COM"]
properties('MP2/aug-cc-pvtz', properties = ['dipole'])
--------------------------------------------------------------------------

    Molecular point group: c1
  Charge       = 0
  Multiplicity = 1
  Basis Set: AUG-CC-PVTZ
    Blend: AUG-CC-PVTZ
  Basis Set: (AUG-CC-PVTZ AUX)
    Blend: AUG-CC-PVTZ-JKFIT

    Orbital Energies [Eh]
    ---------------------

    Doubly Occupied:

       1A    -92.228637     2A    -20.639124     3A    -20.569126
       4A    -20.568832     5A    -11.287620     6A    -11.247889
       7A     -9.192680     8A     -6.878270     9A     -6.876743
      10A     -6.876410    11A     -1.497345    12A     -1.388444
      13A     -1.356221    14A     -1.092816    15A     -0.942706
      16A     -0.837963    17A     -0.748957    18A     -0.712468
      19A     -0.688322    20A     -0.657297    21A     -0.632019
      22A     -0.597260    23A     -0.569881    24A     -0.554415
      25A     -0.537527    26A     -0.523338    27A     -0.506789
      28A     -0.486013    29A     -0.472439

  @DF-RHF Final Energy:  -701.44244237235819

   => Energetics <=

    Nuclear Repulsion Energy =            357.4192829824543196
    One-Electron Energy =               -1675.3883484649657021
    Two-Electron Energy =                 616.5266231101530821
    Total Energy =                       -701.4424423723581867
  Basis Set: (AUG-CC-PVTZ AUX)
    Blend: AUG-CC-PVTZ-RI
    Molecular point group: c1

    Geometry (in Angstrom), charge = 0, multiplicity = 1:

       Center              X                  Y                   Z               Mass
    ------------   -----------------  -----------------  -----------------  -----------------
         S           -0.365914431784    -0.134663642972     0.013238585930    31.972071174400
         O           -1.484991431784     1.002963357028    -0.388316414070    15.994914619570
         O           -0.499971731784    -0.403641242972     1.445830685930    15.994914619570
         O           -0.366453431784    -1.174963642972    -1.005960414070    15.994914619570
         C            1.103851568216     0.852351357028    -0.173773414070    12.000000000000
         C            2.343031568216    -0.002065642972     0.065954585930    12.000000000000
         H            1.072798568216     1.259824357028    -1.187333414070     1.007825032230
         H            1.018380568216     1.672396357028     0.542657585930     1.007825032230
         H            3.235443568216     0.618679357028    -0.038326414070     1.007825032230
         H            2.330683568216    -0.425441642972     1.072496585930     1.007825032230
         H            2.395540568216    -0.816222642972    -0.658861414070     1.007825032230
         H           -2.167398431784     0.974453357028     0.314971585930     1.007825032230

  Basis Set: AUG-CC-PVTZ
    Blend: AUG-CC-PVTZ
  Basis Set: (AUG-CC-PVTZ AUX)
    Blend: AUG-CC-PVTZ-JKFIT
	 Reference Energy          =    -701.4424423723581867 [Eh]
	 Singles Energy            =      -0.0000000000000000 [Eh]
	 Same-Spin Energy          =      -0.3552959949888852 [Eh]
	 Opposite-Spin Energy      =      -1.0628048293829528 [Eh]
	 Correlation Energy        =      -1.4181008243718380 [Eh]
	 Total Energy              =    -702.8605431967300774 [Eh]

	 ================> DF-SCS-MP2 Energies <==================
	-----------------------------------------------------------
	 SCS Same-Spin Scale       =       0.3333333333333333 [-]
	 SCS Opposite-Spin Scale   =       1.2000000000000000 [-]
	 SCS Same-Spin Energy      =      -0.1184319983296284 [Eh]
	 SCS Opposite-Spin Energy  =      -1.2753657952595434 [Eh]
	 SCS Correlation Energy    =      -1.3937977935891719 [Eh]
	 SCS Total Energy          =    -702.8362401659474017 [Eh]
	-----------------------------------------------------------

  Dipole Moment: [D]
     X:     1.2723      Y:     2.8653      Z:     0.2014     Total:     3.1415

*** Psi4 exiting successfully. Buy a developer a beer!
