                               Psi4 1.3.2 release

  ==> Input File <==

--------------------------------------------------------------------------
#psi4
#
memory 32 gb

molecule  {
0 1
  S       -0.4214780    -0.1554040     0.0158080
  O       -1.6600569     0.8611470    -0.3587868
  O       -0.6402970    -0.4772220     1.4269040
  O       -0.4220170    -1.1957040    -1.0033910
  C        1.0482880     0.8316110    -0.1712040
  C        2.2874680    -0.0228060     0.0685240
  H        1.0172350     1.2390840    -1.1847640
  H        0.9628170     1.6516560     0.5452270
  H        3.1798800     0.5979390    -0.0357570
  H        2.2751200    -0.4461820     1.0750660
  H        2.3399770    -0.8369630    -0.6562920
  H       -2.2229620     0.9537130     0.3175410
units angstrom
no_reorient  #important for SAPT in psi4, default
symmetry c1  #important for SAPT in psi4, default
}

set PROPERTIES_ORIGIN ["COM"]
properties('MP2/aug-cc-pvtz', properties = ['dipole'])
--------------------------------------------------------------------------

    Molecular point group: c1
  Charge       = 0
  Multiplicity = 1
  Basis Set: AUG-CC-PVTZ
    Blend: AUG-CC-PVTZ
  Basis Set: (AUG-CC-PVTZ AUX)
    Blend: AUG-CC-PVTZ-JKFIT

    Orbital Energies [Eh]
    ---------------------

    Doubly Occupied:

       1A    -92.229846     2A    -20.622593     3A    -20.563160
       4A    -20.562732     5A    -11.300113     6A    -11.255531
       7A     -9.193578     8A     -6.879210     9A     -6.877570
      10A     -6.877371    11A     -1.501360    12A     -1.396299
      13A     -1.350122    14A     -1.102656    15A     -0.952957
      16A     -0.855061    17A     -0.762639    18A     -0.709387
      19A     -0.687455    20A     -0.663073    21A     -0.626833
      22A     -0.602291    23A     -0.568970    24A     -0.560992
      25A     -0.544119    26A     -0.517080    27A     -0.503452
      28A     -0.483151    29A     -0.476450

  @DF-RHF Final Energy:  -701.43978615025389

   => Energetics <=

    Nuclear Repulsion Energy =            357.3148985121439978
    One-Electron Energy =               -1675.0572655176349599
    Two-Electron Energy =                 616.3025808552370108
    Total Energy =                       -701.4397861502538944
  Basis Set: (AUG-CC-PVTZ AUX)
    Blend: AUG-CC-PVTZ-RI
    Molecular point group: c1

    Geometry (in Angstrom), charge = 0, multiplicity = 1:

       Center              X                  Y                   Z               Mass
    ------------   -----------------  -----------------  -----------------  -----------------
         S           -0.336213822581    -0.109375617938     0.012444087553    31.972071174400
         O           -1.574792722581     0.907175382062    -0.362150712447    15.994914619570
         O           -0.555032822581    -0.431193617938     1.423540087553    15.994914619570
         O           -0.336752822581    -1.149675617938    -1.006754912447    15.994914619570
         C            1.133552177419     0.877639382062    -0.174567912447    12.000000000000
         C            2.372732177419     0.023222382062     0.065160087553    12.000000000000
         H            1.102499177419     1.285112382062    -1.188127912447     1.007825032230
         H            1.048081177419     1.697684382062     0.541863087553     1.007825032230
         H            3.265144177419     0.643967382062    -0.039120912447     1.007825032230
         H            2.360384177419    -0.400153617938     1.071702087553     1.007825032230
         H            2.425241177419    -0.790934617938    -0.659655912447     1.007825032230
         H           -2.137697822581     0.999741382062     0.314177087553     1.007825032230

  Basis Set: AUG-CC-PVTZ
    Blend: AUG-CC-PVTZ
  Basis Set: (AUG-CC-PVTZ AUX)
    Blend: AUG-CC-PVTZ-JKFIT
	 Reference Energy          =    -701.4397861502538944 [Eh]
	 Singles Energy            =      -0.0000000000000000 [Eh]
	 Same-Spin Energy          =      -0.3534718453619633 [Eh]
	 Opposite-Spin Energy      =      -1.0587312227349277 [Eh]
	 Correlation Energy        =      -1.4122030680968911 [Eh]
	 Total Energy              =    -702.8519892183508091 [Eh]

	 ================> DF-SCS-MP2 Energies <==================
	-----------------------------------------------------------
	 SCS Same-Spin Scale       =       0.3333333333333333 [-]
	 SCS Opposite-Spin Scale   =       1.2000000000000000 [-]
	 SCS Same-Spin Energy      =      -0.1178239484539878 [Eh]
	 SCS Opposite-Spin Energy  =      -1.2704774672819132 [Eh]
	 SCS Correlation Energy    =      -1.3883014157359010 [Eh]
	 SCS Total Energy          =    -702.8280875659897902 [Eh]
	-----------------------------------------------------------

  Dipole Moment: [D]
     X:     1.9406      Y:     3.2210      Z:     0.2124     Total:     3.7664

*** Psi4 exiting successfully. Buy a developer a beer!
