                               Psi4 1.3.2 release

  ==> Input File <==

--------------------------------------------------------------------------
#psi4
#
memory 32 gb

molecule  {
0 1
  S       -0.4847775    -0.1790941     0.1086733
  O       -1.5405550     0.9822230    -0.3857470
  O       -0.6402970    -0.4772220     1.4269040
  O       -0.4220170    -1.1957040    -1.0033910
  C        1.0482880     0.8316110    -0.1712040
  C        2.2874680    -0.0228060     0.0685240
  H        1.0172350     1.2390840    -1.1847640
  H        0.9628170     1.6516560     0.5452270
  H        3.1798800     0.5979390    -0.0357570
  H        2.2751200    -0.4461820     1.0750660
  H        2.3399770    -0.8369630    -0.6562920
  H       -2.2229620     0.9537130     0.3175410
units angstrom
no_reorient  #important for SAPT in psi4, default
symmetry c1  #important for SAPT in psi4, default
}

set PROPERTIES_ORIGIN ["COM"]
properties('MP2/aug-cc-pvtz', properties = ['dipole'])
--------------------------------------------------------------------------

    Molecular point group: c1
  Charge       = 0
  Multiplicity = 1
  Basis Set: AUG-CC-PVTZ
    Blend: AUG-CC-PVTZ
  Basis Set: (AUG-CC-PVTZ AUX)
    Blend: AUG-CC-PVTZ-JKFIT

    Orbital Energies [Eh]
    ---------------------

    Doubly Occupied:

       1A    -92.222545     2A    -20.640427     3A    -20.593065
       4A    -20.551465     5A    -11.284423     6A    -11.242780
       7A     -9.188561     8A     -6.874221     9A     -6.873050
      10A     -6.871703    11A     -1.531679    12A     -1.414147
      13A     -1.339081    14A     -1.075927    15A     -0.929155
      16A     -0.835011    17A     -0.749458    18A     -0.722978
      19A     -0.696593    20A     -0.658793    21A     -0.642191
      22A     -0.592221    23A     -0.580045    24A     -0.548502
      25A     -0.547460    26A     -0.531064    27A     -0.503458
      28A     -0.481335    29A     -0.452700

  @DF-RHF Final Energy:  -701.42481924059609

   => Energetics <=

    Nuclear Repulsion Energy =            357.1876319481285122
    One-Electron Energy =               -1674.8768220012054826
    Two-Electron Energy =                 616.2643708124809336
    Total Energy =                       -701.4248192405960936
  Basis Set: (AUG-CC-PVTZ AUX)
    Blend: AUG-CC-PVTZ-RI
    Molecular point group: c1

    Geometry (in Angstrom), charge = 0, multiplicity = 1:

       Center              X                  Y                   Z               Mass
    ------------   -----------------  -----------------  -----------------  -----------------
         S           -0.398491599081    -0.143785157556     0.082238632849    31.972071174400
         O           -1.454269099081     1.017531942444    -0.412181667151    15.994914619570
         O           -0.554011099081    -0.441913057556     1.400469332849    15.994914619570
         O           -0.335731099081    -1.160395057556    -1.029825667151    15.994914619570
         C            1.134573900919     0.866919942444    -0.197638667151    12.000000000000
         C            2.373753900919     0.012502942444     0.042089332849    12.000000000000
         H            1.103520900919     1.274392942444    -1.211198667151     1.007825032230
         H            1.049102900919     1.686964942444     0.518792332849     1.007825032230
         H            3.266165900919     0.633247942444    -0.062191667151     1.007825032230
         H            2.361405900919    -0.410873057556     1.048631332849     1.007825032230
         H            2.426262900919    -0.801654057556    -0.682726667151     1.007825032230
         H           -2.136676099081     0.989021942444     0.291106332849     1.007825032230

  Basis Set: AUG-CC-PVTZ
    Blend: AUG-CC-PVTZ
  Basis Set: (AUG-CC-PVTZ AUX)
    Blend: AUG-CC-PVTZ-JKFIT
	 Reference Energy          =    -701.4248192405960936 [Eh]
	 Singles Energy            =      -0.0000000000000000 [Eh]
	 Same-Spin Energy          =      -0.3539707985783527 [Eh]
	 Opposite-Spin Energy      =      -1.0611617537520139 [Eh]
	 Correlation Energy        =      -1.4151325523303666 [Eh]
	 Total Energy              =    -702.8399517929265130 [Eh]

	 ================> DF-SCS-MP2 Energies <==================
	-----------------------------------------------------------
	 SCS Same-Spin Scale       =       0.3333333333333333 [-]
	 SCS Opposite-Spin Scale   =       1.2000000000000000 [-]
	 SCS Same-Spin Energy      =      -0.1179902661927842 [Eh]
	 SCS Opposite-Spin Energy  =      -1.2733941045024166 [Eh]
	 SCS Correlation Energy    =      -1.3913843706952009 [Eh]
	 SCS Total Energy          =    -702.8162036112912574 [Eh]
	-----------------------------------------------------------

  Dipole Moment: [D]
     X:     0.9281      Y:     2.8720      Z:     1.1105     Total:     3.2161

*** Psi4 exiting successfully. Buy a developer a beer!
