                               Psi4 1.4a3.dev225

  ==> Input File <==

--------------------------------------------------------------------------
#psi4
#
memory 32 gb

molecule  {
0 1
  S       -0.4214550    -0.1555270     0.0157730
  O       -1.5405390     0.9824510    -0.3857960
  O       -0.6405530    -0.4776100     1.4268170
  O       -0.4218140    -1.1955390    -1.0036730
  C        1.0482220     0.8316920    -0.1707940
  C        2.2874800    -0.0227220     0.0684980
  H        1.0171730     1.2397620    -1.1841120
  H        0.9625940     1.6512470     0.5461620
  H        3.1798380     0.5981340    -0.0356250
  H        2.2752130    -0.4464600     1.0748860
  H        2.3400010    -0.8366100    -0.6566250
  H       -2.1877232     0.9555659     0.2820584
units angstrom
no_reorient  #important for SAPT in psi4, default
symmetry c1  #important for SAPT in psi4, default
}

set PROPERTIES_ORIGIN ["COM"]
properties('MP2/aug-cc-pvtz', properties = ['dipole'])
--------------------------------------------------------------------------

    Molecular point group: c1
  Charge       = 0
  Multiplicity = 1
  Basis Set: AUG-CC-PVTZ
    Blend: AUG-CC-PVTZ
  Basis Set: (AUG-CC-PVTZ AUX)
    Blend: AUG-CC-PVTZ-JKFIT

    Orbital Energies [Eh]
    ---------------------

    Doubly Occupied:

       1A    -92.229001     2A    -20.632681     3A    -20.569001
       4A    -20.565566     5A    -11.293383     6A    -11.251232
       7A     -9.193120     8A     -6.878732     9A     -6.877098
      10A     -6.876894    11A     -1.500787    12A     -1.394999
      13A     -1.353206    14A     -1.098258    15A     -0.948243
      16A     -0.842724    17A     -0.755487    18A     -0.713890
      19A     -0.688863    20A     -0.661233    21A     -0.633069
      22A     -0.598643    23A     -0.570721    24A     -0.557551
      25A     -0.540486    26A     -0.523077    27A     -0.505125
      28A     -0.485039    29A     -0.475939

  @DF-RHF Final Energy:  -701.44524795552195

   => Energetics <=

    Nuclear Repulsion Energy =            357.4624655041938013
    One-Electron Energy =               -1675.3873290622968852
    Two-Electron Energy =                 616.4796156025810205
    Total Energy =                       -701.4452479555219497
  Basis Set: (AUG-CC-PVTZ AUX)
    Blend: AUG-CC-PVTZ-RI
    Molecular point group: c1

    Geometry (in Angstrom), charge = 0, multiplicity = 1:

       Center              X                  Y                   Z               Mass
    ------------   -----------------  -----------------  -----------------  -----------------
         S           -0.353883136391    -0.127108363431     0.016672285349    31.972071174400
         O           -1.472967136391     1.010869636569    -0.384896714651    15.994914619570
         O           -0.572981136391    -0.449191363431     1.427716285349    15.994914619570
         O           -0.354242136391    -1.167120363431    -1.002773714651    15.994914619570
         C            1.115793863609     0.860110636569    -0.169894714651    12.000000000000
         C            2.355051863609     0.005696636569     0.069397285349    12.000000000000
         H            1.084744863609     1.268180636569    -1.183212714651     1.007825032230
         H            1.030165863609     1.679665636569     0.547061285349     1.007825032230
         H            3.247409863609     0.626552636569    -0.034725714651     1.007825032230
         H            2.342784863609    -0.418041363431     1.075785285349     1.007825032230
         H            2.407572863609    -0.808191363431    -0.655725714651     1.007825032230
         H           -2.120151336391     0.983984536569     0.282957685349     1.007825032230

  Basis Set: AUG-CC-PVTZ
    Blend: AUG-CC-PVTZ
  Basis Set: (AUG-CC-PVTZ AUX)
    Blend: AUG-CC-PVTZ-JKFIT
	 Reference Energy          =    -701.4452479555219497 [Eh]
	 Singles Energy            =      -0.0000000000000000 [Eh]
	 Same-Spin Energy          =      -0.3543867147350337 [Eh]
	 Opposite-Spin Energy      =      -1.0607606577234809 [Eh]
	 Correlation Energy        =      -1.4151473724585146 [Eh]
	 Total Energy              =    -702.8603953279804273 [Eh]

	 ================> DF-SCS-MP2 Energies <==================
	-----------------------------------------------------------
	 SCS Same-Spin Scale       =       0.3333333333333333 [-]
	 SCS Opposite-Spin Scale   =       1.2000000000000000 [-]
	 SCS Same-Spin Energy      =      -0.1181289049116779 [Eh]
	 SCS Opposite-Spin Energy  =      -1.2729127892681771 [Eh]
	 SCS Correlation Energy    =      -1.3910416941798549 [Eh]
	 SCS Total Energy          =    -702.8362896497018255 [Eh]
	-----------------------------------------------------------

  Dipole Moment: [D]
     X:     1.6089      Y:     2.9876      Z:     0.2000     Total:     3.3992

*** Psi4 exiting successfully. Buy a developer a beer!
