                               Psi4 1.3.2 release

  ==> Input File <==

--------------------------------------------------------------------------
#psi4
#
memory 32 gb

molecule  {
0 1
  S       -0.4214780    -0.1554040     0.0158080
  O       -1.5194086     1.0012244    -0.3898199
  O       -0.6402970    -0.4772220     1.4269040
  O       -0.4220170    -1.1957040    -1.0033910
  C        1.0482880     0.8316110    -0.1712040
  C        2.2874680    -0.0228060     0.0685240
  H        1.0172350     1.2390840    -1.1847640
  H        0.9628170     1.6516560     0.5452270
  H        3.1798800     0.5979390    -0.0357570
  H        2.2751200    -0.4461820     1.0750660
  H        2.3399770    -0.8369630    -0.6562920
  H       -2.2229620     0.9537130     0.3175410
units angstrom
no_reorient  #important for SAPT in psi4, default
symmetry c1  #important for SAPT in psi4, default
}

set PROPERTIES_ORIGIN ["COM"]
properties('MP2/aug-cc-pvtz', properties = ['dipole'])
--------------------------------------------------------------------------

    Molecular point group: c1
  Charge       = 0
  Multiplicity = 1
  Basis Set: AUG-CC-PVTZ
    Blend: AUG-CC-PVTZ
  Basis Set: (AUG-CC-PVTZ AUX)
    Blend: AUG-CC-PVTZ-JKFIT

    Orbital Energies [Eh]
    ---------------------

    Doubly Occupied:

       1A    -92.227664     2A    -20.638267     3A    -20.568901
       4A    -20.565187     5A    -11.291574     6A    -11.249969
       7A     -9.191849     8A     -6.877451     9A     -6.875834
      10A     -6.875628    11A     -1.495527    12A     -1.384238
      13A     -1.352811    14A     -1.096324    15A     -0.943725
      16A     -0.835780    17A     -0.744778    18A     -0.712311
      19A     -0.688032    20A     -0.658518    21A     -0.631875
      22A     -0.596511    23A     -0.569777    24A     -0.555535
      25A     -0.539261    26A     -0.522584    27A     -0.504292
      28A     -0.484285    29A     -0.474696

  @DF-RHF Final Energy:  -701.44275707891927

   => Energetics <=

    Nuclear Repulsion Energy =            357.1200057804355765
    One-Electron Energy =               -1674.8191608794429612
    Two-Electron Energy =                 616.2563980200881133
    Total Energy =                       -701.4427570789192714
  Basis Set: (AUG-CC-PVTZ AUX)
    Blend: AUG-CC-PVTZ-RI
    Molecular point group: c1

    Geometry (in Angstrom), charge = 0, multiplicity = 1:

       Center              X                  Y                   Z               Mass
    ------------   -----------------  -----------------  -----------------  -----------------
         S           -0.356664554837    -0.129743339429     0.016956403871    31.972071174400
         O           -1.454595154837     1.026885060571    -0.388671496129    15.994914619570
         O           -0.575483554837    -0.451561339429     1.428052403871    15.994914619570
         O           -0.357203554837    -1.170043339429    -1.002242596129    15.994914619570
         C            1.113101445163     0.857271660571    -0.170055596129    12.000000000000
         C            2.352281445163     0.002854660571     0.069672403871    12.000000000000
         H            1.082048445163     1.264744660571    -1.183615596129     1.007825032230
         H            1.027630445163     1.677316660571     0.546375403871     1.007825032230
         H            3.244693445163     0.623599660571    -0.034608596129     1.007825032230
         H            2.339933445163    -0.420521339429     1.076214403871     1.007825032230
         H            2.404790445163    -0.811302339429    -0.655143596129     1.007825032230
         H           -2.158148554837     0.979373660571     0.318689403871     1.007825032230

  Basis Set: AUG-CC-PVTZ
    Blend: AUG-CC-PVTZ
  Basis Set: (AUG-CC-PVTZ AUX)
    Blend: AUG-CC-PVTZ-JKFIT
	 Reference Energy          =    -701.4427570789192714 [Eh]
	 Singles Energy            =      -0.0000000000000000 [Eh]
	 Same-Spin Energy          =      -0.3553447332095399 [Eh]
	 Opposite-Spin Energy      =      -1.0628967951998656 [Eh]
	 Correlation Energy        =      -1.4182415284094054 [Eh]
	 Total Energy              =    -702.8609986073287246 [Eh]

	 ================> DF-SCS-MP2 Energies <==================
	-----------------------------------------------------------
	 SCS Same-Spin Scale       =       0.3333333333333333 [-]
	 SCS Opposite-Spin Scale   =       1.2000000000000000 [-]
	 SCS Same-Spin Energy      =      -0.1184482444031800 [Eh]
	 SCS Opposite-Spin Energy  =      -1.2754761542398387 [Eh]
	 SCS Correlation Energy    =      -1.3939243986430188 [Eh]
	 SCS Total Energy          =    -702.8366814775622515 [Eh]
	-----------------------------------------------------------

  Dipole Moment: [D]
     X:     1.4690      Y:     2.9756      Z:     0.2405     Total:     3.3271

*** Psi4 exiting successfully. Buy a developer a beer!
