                               Psi4 1.3.2 release

  ==> Input File <==

--------------------------------------------------------------------------
#psi4
#
memory 32 gb

molecule  {
0 1
  S       -0.3636305    -0.1261715    -0.0790136
  O       -1.5405550     0.9822230    -0.3857470
  O       -0.6402970    -0.4772220     1.4269040
  O       -0.4220170    -1.1957040    -1.0033910
  C        1.0482880     0.8316110    -0.1712040
  C        2.2874680    -0.0228060     0.0685240
  H        1.0172350     1.2390840    -1.1847640
  H        0.9628170     1.6516560     0.5452270
  H        3.1798800     0.5979390    -0.0357570
  H        2.2751200    -0.4461820     1.0750660
  H        2.3399770    -0.8369630    -0.6562920
  H       -2.2229620     0.9537130     0.3175410
units angstrom
no_reorient  #important for SAPT in psi4, default
symmetry c1  #important for SAPT in psi4, default
}

set PROPERTIES_ORIGIN ["COM"]
properties('MP2/aug-cc-pvtz', properties = ['dipole'])
--------------------------------------------------------------------------

    Molecular point group: c1
  Charge       = 0
  Multiplicity = 1
  Basis Set: AUG-CC-PVTZ
    Blend: AUG-CC-PVTZ
  Basis Set: (AUG-CC-PVTZ AUX)
    Blend: AUG-CC-PVTZ-JKFIT

    Orbital Energies [Eh]
    ---------------------

    Doubly Occupied:

       1A    -92.228136     2A    -20.632534     3A    -20.577428
       4A    -20.542294     5A    -11.300006     6A    -11.258765
       7A     -9.193721     8A     -6.879052     9A     -6.877754
      10A     -6.877108    11A     -1.494345    12A     -1.395375
      13A     -1.299009    14A     -1.120261    15A     -0.960657
      16A     -0.842333    17A     -0.755252    18A     -0.710602
      19A     -0.693576    20A     -0.659946    21A     -0.620283
      22A     -0.605056    23A     -0.570367    24A     -0.557702
      25A     -0.547471    26A     -0.521524    27A     -0.499498
      28A     -0.464475    29A     -0.460203

  @DF-RHF Final Energy:  -701.42258956291971

   => Energetics <=

    Nuclear Repulsion Energy =            357.1831957729366422
    One-Electron Energy =               -1674.9221085533033602
    Two-Electron Energy =                 616.3163232174470068
    Total Energy =                       -701.4225895629197112
  Basis Set: (AUG-CC-PVTZ AUX)
    Blend: AUG-CC-PVTZ-RI
    Molecular point group: c1

    Geometry (in Angstrom), charge = 0, multiplicity = 1:

       Center              X                  Y                   Z               Mass
    ------------   -----------------  -----------------  -----------------  -----------------
         S           -0.312555398445    -0.106244259541    -0.050897962324    31.972071174400
         O           -1.489479898445     1.002150240459    -0.357631362324    15.994914619570
         O           -0.589221898445    -0.457294759541     1.455019637676    15.994914619570
         O           -0.370941898445    -1.175776759541    -0.975275362324    15.994914619570
         C            1.099363101555     0.851538240459    -0.143088362324    12.000000000000
         C            2.338543101555    -0.002878759541     0.096639637676    12.000000000000
         H            1.068310101555     1.259011240459    -1.156648362324     1.007825032230
         H            1.013892101555     1.671583240459     0.573342637676     1.007825032230
         H            3.230955101555     0.617866240459    -0.007641362324     1.007825032230
         H            2.326195101555    -0.426254759541     1.103181637676     1.007825032230
         H            2.391052101555    -0.817035759541    -0.628176362324     1.007825032230
         H           -2.171886898445     0.973640240459     0.345656637676     1.007825032230

  Basis Set: AUG-CC-PVTZ
    Blend: AUG-CC-PVTZ
  Basis Set: (AUG-CC-PVTZ AUX)
    Blend: AUG-CC-PVTZ-JKFIT
	 Reference Energy          =    -701.4225895629197112 [Eh]
	 Singles Energy            =      -0.0000000000000000 [Eh]
	 Same-Spin Energy          =      -0.3559556801908675 [Eh]
	 Opposite-Spin Energy      =      -1.0636647637856071 [Eh]
	 Correlation Energy        =      -1.4196204439764748 [Eh]
	 Total Energy              =    -702.8422100068961527 [Eh]

	 ================> DF-SCS-MP2 Energies <==================
	-----------------------------------------------------------
	 SCS Same-Spin Scale       =       0.3333333333333333 [-]
	 SCS Opposite-Spin Scale   =       1.2000000000000000 [-]
	 SCS Same-Spin Energy      =      -0.1186518933969558 [Eh]
	 SCS Opposite-Spin Energy  =      -1.2763977165427285 [Eh]
	 SCS Correlation Energy    =      -1.3950496099396843 [Eh]
	 SCS Total Energy          =    -702.8176391728593444 [Eh]
	-----------------------------------------------------------

  Dipole Moment: [D]
     X:     2.1155      Y:     3.2001      Z:    -0.6789     Total:     3.8958

*** Psi4 exiting successfully. Buy a developer a beer!
