                               Psi4 1.3.2 release

  ==> Input File <==

--------------------------------------------------------------------------
#psi4
#
memory 32 gb

molecule  {
0 1
  S       -0.4214780    -0.1554040     0.0158080
  O       -1.4725480     0.9130887    -0.3613443
  O       -0.6402970    -0.4772220     1.4269040
  O       -0.4220170    -1.1957040    -1.0033910
  C        1.0482880     0.8316110    -0.1712040
  C        2.2874680    -0.0228060     0.0685240
  H        1.0172350     1.2390840    -1.1847640
  H        0.9628170     1.6516560     0.5452270
  H        3.1798800     0.5979390    -0.0357570
  H        2.2751200    -0.4461820     1.0750660
  H        2.3399770    -0.8369630    -0.6562920
  H       -2.2229620     0.9537130     0.3175410
units angstrom
no_reorient  #important for SAPT in psi4, default
symmetry c1  #important for SAPT in psi4, default
}

set PROPERTIES_ORIGIN ["COM"]
properties('MP2/aug-cc-pvtz', properties = ['dipole'])
--------------------------------------------------------------------------

    Molecular point group: c1
  Charge       = 0
  Multiplicity = 1
  Basis Set: AUG-CC-PVTZ
    Blend: AUG-CC-PVTZ
  Basis Set: (AUG-CC-PVTZ AUX)
    Blend: AUG-CC-PVTZ-JKFIT

    Orbital Energies [Eh]
    ---------------------

    Doubly Occupied:

       1A    -92.221167     2A    -20.644328     3A    -20.558492
       4A    -20.555631     5A    -11.287058     6A    -11.246466
       7A     -9.186001     8A     -6.872050     9A     -6.870066
      10A     -6.869809    11A     -1.519831    12A     -1.391040
      13A     -1.346136    14A     -1.092939    15A     -0.945668
      16A     -0.848901    17A     -0.753978    18A     -0.718984
      19A     -0.693612    20A     -0.656975    21A     -0.627695
      22A     -0.599251    23A     -0.567492    24A     -0.555202
      25A     -0.536058    26A     -0.521318    27A     -0.497698
      28A     -0.476948    29A     -0.469564

  @DF-RHF Final Energy:  -701.44493123031270

   => Energetics <=

    Nuclear Repulsion Energy =            361.1143491614606660
    One-Electron Energy =               -1682.8578460691367127
    Two-Electron Energy =                 620.2985656773632854
    Total Energy =                       -701.4449312303127044
  Basis Set: (AUG-CC-PVTZ AUX)
    Blend: AUG-CC-PVTZ-RI
    Molecular point group: c1

    Geometry (in Angstrom), charge = 0, multiplicity = 1:

       Center              X                  Y                   Z               Mass
    ------------   -----------------  -----------------  -----------------  -----------------
         S           -0.363478242482    -0.116928114482     0.012815956589    31.972071174400
         O           -1.414548242482     0.951564585518    -0.364336343411    15.994914619570
         O           -0.582297242482    -0.438746114482     1.423911956589    15.994914619570
         O           -0.364017242482    -1.157228114482    -1.006383043411    15.994914619570
         C            1.106287757518     0.870086885518    -0.174196043411    12.000000000000
         C            2.345467757518     0.015669885518     0.065531956589    12.000000000000
         H            1.075234757518     1.277559885518    -1.187756043411     1.007825032230
         H            1.020816757518     1.690131885518     0.542234956589     1.007825032230
         H            3.237879757518     0.636414885518    -0.038749043411     1.007825032230
         H            2.333119757518    -0.407706114482     1.072073956589     1.007825032230
         H            2.397976757518    -0.798487114482    -0.659284043411     1.007825032230
         H           -2.164962242482     0.992188885518     0.314548956589     1.007825032230

  Basis Set: AUG-CC-PVTZ
    Blend: AUG-CC-PVTZ
  Basis Set: (AUG-CC-PVTZ AUX)
    Blend: AUG-CC-PVTZ-JKFIT
	 Reference Energy          =    -701.4449312303127044 [Eh]
	 Singles Energy            =      -0.0000000000000000 [Eh]
	 Same-Spin Energy          =      -0.3541328017226040 [Eh]
	 Opposite-Spin Energy      =      -1.0584740198851996 [Eh]
	 Correlation Energy        =      -1.4126068216078036 [Eh]
	 Total Energy              =    -702.8575380519205282 [Eh]

	 ================> DF-SCS-MP2 Energies <==================
	-----------------------------------------------------------
	 SCS Same-Spin Scale       =       0.3333333333333333 [-]
	 SCS Opposite-Spin Scale   =       1.2000000000000000 [-]
	 SCS Same-Spin Energy      =      -0.1180442672408680 [Eh]
	 SCS Opposite-Spin Energy  =      -1.2701688238622395 [Eh]
	 SCS Correlation Energy    =      -1.3882130911031074 [Eh]
	 SCS Total Energy          =    -702.8331443214158298 [Eh]
	-----------------------------------------------------------

  Dipole Moment: [D]
     X:     0.9717      Y:     3.4405      Z:     0.1287     Total:     3.5774

*** Psi4 exiting successfully. Buy a developer a beer!
