                               Psi4 1.4a3.dev225

  ==> Input File <==

--------------------------------------------------------------------------
#psi4
#
memory 32 gb

molecule  {
0 1
  S       -0.4214550    -0.1555270     0.0157730
  O       -1.5405390     0.9824510    -0.3857960
  O       -0.6435465    -0.4820106     1.4460958
  O       -0.4218140    -1.1955390    -1.0036730
  C        1.0482220     0.8316920    -0.1707940
  C        2.2874800    -0.0227220     0.0684980
  H        1.0171730     1.2397620    -1.1841120
  H        0.9625940     1.6512470     0.5461620
  H        3.1798380     0.5981340    -0.0356250
  H        2.2752130    -0.4464600     1.0748860
  H        2.3400010    -0.8366100    -0.6566250
  H       -2.2225040     0.9541210     0.3179500
units angstrom
no_reorient  #important for SAPT in psi4, default
symmetry c1  #important for SAPT in psi4, default
}

set PROPERTIES_ORIGIN ["COM"]
properties('MP2/aug-cc-pvtz', properties = ['dipole'])
--------------------------------------------------------------------------

    Molecular point group: c1
  Charge       = 0
  Multiplicity = 1
  Basis Set: AUG-CC-PVTZ
    Blend: AUG-CC-PVTZ
  Basis Set: (AUG-CC-PVTZ AUX)
    Blend: AUG-CC-PVTZ-JKFIT

    Orbital Energies [Eh]
    ---------------------

    Doubly Occupied:

       1A    -92.229723     2A    -20.637621     3A    -20.567746
       4A    -20.566539     5A    -11.294088     6A    -11.251265
       7A     -9.193581     8A     -6.879165     9A     -6.877479
      10A     -6.877324    11A     -1.492716    12A     -1.385466
      13A     -1.346492    14A     -1.098184    15A     -0.946190
      16A     -0.839169    17A     -0.748447    18A     -0.711221
      19A     -0.687307    20A     -0.658993    21A     -0.629381
      22A     -0.597899    23A     -0.568631    24A     -0.557000
      25A     -0.540309    26A     -0.520013    27A     -0.503047
      28A     -0.482807    29A     -0.474885

  @DF-RHF Final Energy:  -701.44187075911452

   => Energetics <=

    Nuclear Repulsion Energy =            356.2171267536359096
    One-Electron Energy =               -1672.9926174610188809
    Two-Electron Energy =                 615.3336199482683924
    Total Energy =                       -701.4418707591145221
  Basis Set: (AUG-CC-PVTZ AUX)
    Blend: AUG-CC-PVTZ-RI
    Molecular point group: c1

    Geometry (in Angstrom), charge = 0, multiplicity = 1:

       Center              X                  Y                   Z               Mass
    ------------   -----------------  -----------------  -----------------  -----------------
         S           -0.353129219126    -0.126455263717     0.013540254257    31.972071174400
         O           -1.472213219126     1.011522736283    -0.388028745743    15.994914619570
         O           -0.575220719126    -0.452938863717     1.443863054257    15.994914619570
         O           -0.353488219126    -1.166467263717    -1.005905745743    15.994914619570
         C            1.116547780874     0.860763736283    -0.173026745743    12.000000000000
         C            2.355805780874     0.006349736283     0.066265254257    12.000000000000
         H            1.085498780874     1.268833736283    -1.186344745743     1.007825032230
         H            1.030919780874     1.680318736283     0.543929254257     1.007825032230
         H            3.248163780874     0.627205736283    -0.037857745743     1.007825032230
         H            2.343538780874    -0.417388263717     1.072653254257     1.007825032230
         H            2.408326780874    -0.807538263717    -0.658857745743     1.007825032230
         H           -2.154178219126     0.983192736283     0.315717254257     1.007825032230

  Basis Set: AUG-CC-PVTZ
    Blend: AUG-CC-PVTZ
  Basis Set: (AUG-CC-PVTZ AUX)
    Blend: AUG-CC-PVTZ-JKFIT
	 Reference Energy          =    -701.4418707591145221 [Eh]
	 Singles Energy            =      -0.0000000000000000 [Eh]
	 Same-Spin Energy          =      -0.3554444292328036 [Eh]
	 Opposite-Spin Energy      =      -1.0632578342220449 [Eh]
	 Correlation Energy        =      -1.4187022634548485 [Eh]
	 Total Energy              =    -702.8605730225693833 [Eh]

	 ================> DF-SCS-MP2 Energies <==================
	-----------------------------------------------------------
	 SCS Same-Spin Scale       =       0.3333333333333333 [-]
	 SCS Opposite-Spin Scale   =       1.2000000000000000 [-]
	 SCS Same-Spin Energy      =      -0.1184814764109345 [Eh]
	 SCS Opposite-Spin Energy  =      -1.2759094010664538 [Eh]
	 SCS Correlation Energy    =      -1.3943908774773883 [Eh]
	 SCS Total Energy          =    -702.8362616365918711 [Eh]
	-----------------------------------------------------------

  Dipole Moment: [D]
     X:     1.5606      Y:     3.0356      Z:     0.1366     Total:     3.4160

*** Psi4 exiting successfully. Buy a developer a beer!
