                               Psi4 1.4a3.dev225

  ==> Input File <==

--------------------------------------------------------------------------
#psi4
#
memory 32 gb

molecule  {
0 1
  S       -0.4214550    -0.1555270     0.0157730
  O       -1.5405390     0.9824510    -0.3857960
  O       -0.6375595    -0.4732094     1.4075382
  O       -0.4218140    -1.1955390    -1.0036730
  C        1.0482220     0.8316920    -0.1707940
  C        2.2874800    -0.0227220     0.0684980
  H        1.0171730     1.2397620    -1.1841120
  H        0.9625940     1.6512470     0.5461620
  H        3.1798380     0.5981340    -0.0356250
  H        2.2752130    -0.4464600     1.0748860
  H        2.3400010    -0.8366100    -0.6566250
  H       -2.2225040     0.9541210     0.3179500
units angstrom
no_reorient  #important for SAPT in psi4, default
symmetry c1  #important for SAPT in psi4, default
}

set PROPERTIES_ORIGIN ["COM"]
properties('MP2/aug-cc-pvtz', properties = ['dipole'])
--------------------------------------------------------------------------

    Molecular point group: c1
  Charge       = 0
  Multiplicity = 1
  Basis Set: AUG-CC-PVTZ
    Blend: AUG-CC-PVTZ
  Basis Set: (AUG-CC-PVTZ AUX)
    Blend: AUG-CC-PVTZ-JKFIT

    Orbital Energies [Eh]
    ---------------------

    Doubly Occupied:

       1A    -92.225981     2A    -20.634383     3A    -20.568509
       4A    -20.563032     5A    -11.291558     6A    -11.250364
       7A     -9.190469     8A     -6.876070     9A     -6.874598
      10A     -6.874231    11A     -1.500460    12A     -1.387093
      13A     -1.357215    14A     -1.096438    15A     -0.943975
      16A     -0.836989    17A     -0.747442    18A     -0.713076
      19A     -0.688761    20A     -0.659671    21A     -0.633348
      22A     -0.596622    23A     -0.570912    24A     -0.555981
      25A     -0.539717    26A     -0.523848    27A     -0.505144
      28A     -0.485211    29A     -0.475143

  @DF-RHF Final Energy:  -701.44643534220438

   => Energetics <=

    Nuclear Repulsion Energy =            358.0547581201234948
    One-Electron Energy =               -1676.6699028873240422
    Two-Electron Energy =                 617.1687094249961092
    Total Energy =                       -701.4464353422043814
  Basis Set: (AUG-CC-PVTZ AUX)
    Blend: AUG-CC-PVTZ-RI
    Molecular point group: c1

    Geometry (in Angstrom), charge = 0, multiplicity = 1:

       Center              X                  Y                   Z               Mass
    ------------   -----------------  -----------------  -----------------  -----------------
         S           -0.353999748908    -0.127734987572     0.019146657989    31.972071174400
         O           -1.473083748908     1.010243012428    -0.382422342011    15.994914619570
         O           -0.570104248908    -0.445417387572     1.410911857989    15.994914619570
         O           -0.354358748908    -1.167746987572    -1.000299342011    15.994914619570
         C            1.115677251092     0.859484012428    -0.167420342011    12.000000000000
         C            2.354935251092     0.005070012428     0.071871657989    12.000000000000
         H            1.084628251092     1.267554012428    -1.180738342011     1.007825032230
         H            1.030049251092     1.679039012428     0.549535657989     1.007825032230
         H            3.247293251092     0.625926012428    -0.032251342011     1.007825032230
         H            2.342668251092    -0.418667987572     1.078259657989     1.007825032230
         H            2.407456251092    -0.808817987572    -0.653251342011     1.007825032230
         H           -2.155048748908     0.981913012428     0.321323657989     1.007825032230

  Basis Set: AUG-CC-PVTZ
    Blend: AUG-CC-PVTZ
  Basis Set: (AUG-CC-PVTZ AUX)
    Blend: AUG-CC-PVTZ-JKFIT
	 Reference Energy          =    -701.4464353422043814 [Eh]
	 Singles Energy            =      -0.0000000000000000 [Eh]
	 Same-Spin Energy          =      -0.3545562475070571 [Eh]
	 Opposite-Spin Energy      =      -1.0610118244830424 [Eh]
	 Correlation Energy        =      -1.4155680719900996 [Eh]
	 Total Energy              =    -702.8620034141945325 [Eh]

	 ================> DF-SCS-MP2 Energies <==================
	-----------------------------------------------------------
	 SCS Same-Spin Scale       =       0.3333333333333333 [-]
	 SCS Opposite-Spin Scale   =       1.2000000000000000 [-]
	 SCS Same-Spin Energy      =      -0.1181854158356857 [Eh]
	 SCS Opposite-Spin Energy  =      -1.2732141893796509 [Eh]
	 SCS Correlation Energy    =      -1.3913996052153366 [Eh]
	 SCS Total Energy          =    -702.8378349474197648 [Eh]
	-----------------------------------------------------------

  Dipole Moment: [D]
     X:     1.5168      Y:     2.9766      Z:     0.3418     Total:     3.3582

*** Psi4 exiting successfully. Buy a developer a beer!
