                               Psi4 1.4a3.dev225

  ==> Input File <==

--------------------------------------------------------------------------
#psi4
#
memory 32 gb

molecule  {
0 1
  S       -0.4214550    -0.1555270     0.0157730
  O       -1.5405390     0.9824510    -0.3857960
  O       -0.6330693    -0.4666086     1.3786199
  O       -0.4218140    -1.1955390    -1.0036730
  C        1.0482220     0.8316920    -0.1707940
  C        2.2874800    -0.0227220     0.0684980
  H        1.0171730     1.2397620    -1.1841120
  H        0.9625940     1.6512470     0.5461620
  H        3.1798380     0.5981340    -0.0356250
  H        2.2752130    -0.4464600     1.0748860
  H        2.3400010    -0.8366100    -0.6566250
  H       -2.2225040     0.9541210     0.3179500
units angstrom
no_reorient  #important for SAPT in psi4, default
symmetry c1  #important for SAPT in psi4, default
}

set PROPERTIES_ORIGIN ["COM"]
properties('MP2/aug-cc-pvtz', properties = ['dipole'])
--------------------------------------------------------------------------

    Molecular point group: c1
  Charge       = 0
  Multiplicity = 1
  Basis Set: AUG-CC-PVTZ
    Blend: AUG-CC-PVTZ
  Basis Set: (AUG-CC-PVTZ AUX)
    Blend: AUG-CC-PVTZ-JKFIT

    Orbital Energies [Eh]
    ---------------------

    Doubly Occupied:

       1A    -92.222538     2A    -20.631854     3A    -20.569131
       4A    -20.560254     5A    -11.289550     6A    -11.249670
       7A     -9.187776     8A     -6.873371     9A     -6.872146
      10A     -6.871447    11A     -1.508704    12A     -1.390190
      13A     -1.361799    14A     -1.095099    15A     -0.942300
      16A     -0.835344    17A     -0.747061    18A     -0.714968
      19A     -0.690529    20A     -0.660386    21A     -0.636253
      22A     -0.595535    23A     -0.572960    24A     -0.555085
      25A     -0.539278    26A     -0.527451    27A     -0.506289
      28A     -0.486440    29A     -0.474849

  @DF-RHF Final Energy:  -701.44752138625392

   => Energetics <=

    Nuclear Repulsion Energy =            359.4855811689645861
    One-Electron Energy =               -1679.5296910969859709
    Two-Electron Energy =                 618.5965885417675736
    Total Energy =                       -701.4475213862539249
  Basis Set: (AUG-CC-PVTZ AUX)
    Blend: AUG-CC-PVTZ-RI
    Molecular point group: c1

    Geometry (in Angstrom), charge = 0, multiplicity = 1:

       Center              X                  Y                   Z               Mass
    ------------   -----------------  -----------------  -----------------  -----------------
         S           -0.354652638975    -0.128694765924     0.023351475329    31.972071174400
         O           -1.473736638975     1.009283234076    -0.378217524671    15.994914619570
         O           -0.566266938975    -0.439776365924     1.386198375329    15.994914619570
         O           -0.355011638975    -1.168706765924    -0.996094524671    15.994914619570
         C            1.115024361025     0.858524234076    -0.163215524671    12.000000000000
         C            2.354282361025     0.004110234076     0.076076475329    12.000000000000
         H            1.083975361025     1.266594234076    -1.176533524671     1.007825032230
         H            1.029396361025     1.678079234076     0.553740475329     1.007825032230
         H            3.246640361025     0.624966234076    -0.028046524671     1.007825032230
         H            2.342015361025    -0.419627765924     1.082464475329     1.007825032230
         H            2.406803361025    -0.809777765924    -0.649046524671     1.007825032230
         H           -2.155701638975     0.980953234076     0.325528475329     1.007825032230

  Basis Set: AUG-CC-PVTZ
    Blend: AUG-CC-PVTZ
  Basis Set: (AUG-CC-PVTZ AUX)
    Blend: AUG-CC-PVTZ-JKFIT
	 Reference Energy          =    -701.4475213862539249 [Eh]
	 Singles Energy            =      -0.0000000000000000 [Eh]
	 Same-Spin Energy          =      -0.3538335775820594 [Eh]
	 Opposite-Spin Energy      =      -1.0592569818809696 [Eh]
	 Correlation Energy        =      -1.4130905594630290 [Eh]
	 Total Energy              =    -702.8606119457169825 [Eh]

	 ================> DF-SCS-MP2 Energies <==================
	-----------------------------------------------------------
	 SCS Same-Spin Scale       =       0.3333333333333333 [-]
	 SCS Opposite-Spin Scale   =       1.2000000000000000 [-]
	 SCS Same-Spin Energy      =      -0.1179445258606864 [Eh]
	 SCS Opposite-Spin Energy  =      -1.2711083782571635 [Eh]
	 SCS Correlation Energy    =      -1.3890529041178499 [Eh]
	 SCS Total Energy          =    -702.8365742903718001 [Eh]
	-----------------------------------------------------------

  Dipole Moment: [D]
     X:     1.4840      Y:     2.9315      Z:     0.4963     Total:     3.3230

*** Psi4 exiting successfully. Buy a developer a beer!
