                               Psi4 1.3.2 release

  ==> Input File <==

--------------------------------------------------------------------------
#psi4
#
memory 32 gb

molecule  {
0 1
  S       -0.4524649    -0.1679497     0.0625137
  O       -1.5405550     0.9822230    -0.3857470
  O       -0.6402970    -0.4772220     1.4269040
  O       -0.4220170    -1.1957040    -1.0033910
  C        1.0482880     0.8316110    -0.1712040
  C        2.2874680    -0.0228060     0.0685240
  H        1.0172350     1.2390840    -1.1847640
  H        0.9628170     1.6516560     0.5452270
  H        3.1798800     0.5979390    -0.0357570
  H        2.2751200    -0.4461820     1.0750660
  H        2.3399770    -0.8369630    -0.6562920
  H       -2.2229620     0.9537130     0.3175410
units angstrom
no_reorient  #important for SAPT in psi4, default
symmetry c1  #important for SAPT in psi4, default
}

set PROPERTIES_ORIGIN ["COM"]
properties('MP2/aug-cc-pvtz', properties = ['dipole'])
--------------------------------------------------------------------------

    Molecular point group: c1
  Charge       = 0
  Multiplicity = 1
  Basis Set: AUG-CC-PVTZ
    Blend: AUG-CC-PVTZ
  Basis Set: (AUG-CC-PVTZ AUX)
    Blend: AUG-CC-PVTZ-JKFIT

    Orbital Energies [Eh]
    ---------------------

    Doubly Occupied:

       1A    -92.225921     2A    -20.638102     3A    -20.580804
       4A    -20.558103     5A    -11.288810     6A    -11.246803
       7A     -9.190485     8A     -6.876092     9A     -6.874779
      10A     -6.874031    11A     -1.508598    12A     -1.398001
      13A     -1.352671    14A     -1.086343    15A     -0.937090
      16A     -0.836358    17A     -0.747284    18A     -0.716095
      19A     -0.689432    20A     -0.658470    21A     -0.638560
      22A     -0.593780    23A     -0.574382    24A     -0.552835
      25A     -0.536478    26A     -0.532761    27A     -0.505519
      28A     -0.485679    29A     -0.465718

  @DF-RHF Final Energy:  -701.44085445414839

   => Energetics <=

    Nuclear Repulsion Energy =            357.1403497722149041
    One-Electron Energy =               -1674.8224437320372999
    Two-Electron Energy =                 616.2412395056740024
    Total Energy =                       -701.4408544541483934
  Basis Set: (AUG-CC-PVTZ AUX)
    Blend: AUG-CC-PVTZ-RI
    Molecular point group: c1

    Geometry (in Angstrom), charge = 0, multiplicity = 1:

       Center              X                  Y                   Z               Mass
    ------------   -----------------  -----------------  -----------------  -----------------
         S           -0.375570502590    -0.135879824412     0.049495101049    31.972071174400
         O           -1.463660602590     1.014292875588    -0.398765598951    15.994914619570
         O           -0.563402602590    -0.445152124412     1.413885401049    15.994914619570
         O           -0.345122602590    -1.163634124412    -1.016409598951    15.994914619570
         C            1.125182397410     0.863680875588    -0.184222598951    12.000000000000
         C            2.364362397410     0.009263875588     0.055505401049    12.000000000000
         H            1.094129397410     1.271153875588    -1.197782598951     1.007825032230
         H            1.039711397410     1.683725875588     0.532208401049     1.007825032230
         H            3.256774397410     0.630008875588    -0.048775598951     1.007825032230
         H            2.352014397410    -0.414112124412     1.062047401049     1.007825032230
         H            2.416871397410    -0.804893124412    -0.669310598951     1.007825032230
         H           -2.146067602590     0.985782875588     0.304522401049     1.007825032230

  Basis Set: AUG-CC-PVTZ
    Blend: AUG-CC-PVTZ
  Basis Set: (AUG-CC-PVTZ AUX)
    Blend: AUG-CC-PVTZ-JKFIT
	 Reference Energy          =    -701.4408544541483934 [Eh]
	 Singles Energy            =      -0.0000000000000000 [Eh]
	 Same-Spin Energy          =      -0.3544857588897641 [Eh]
	 Opposite-Spin Energy      =      -1.0615640733275467 [Eh]
	 Correlation Energy        =      -1.4160498322173107 [Eh]
	 Total Energy              =    -702.8569042863656477 [Eh]

	 ================> DF-SCS-MP2 Energies <==================
	-----------------------------------------------------------
	 SCS Same-Spin Scale       =       0.3333333333333333 [-]
	 SCS Opposite-Spin Scale   =       1.2000000000000000 [-]
	 SCS Same-Spin Energy      =      -0.1181619196299214 [Eh]
	 SCS Opposite-Spin Energy  =      -1.2738768879930560 [Eh]
	 SCS Correlation Energy    =      -1.3920388076229773 [Eh]
	 SCS Total Energy          =    -702.8328932617713463 [Eh]
	-----------------------------------------------------------

  Dipole Moment: [D]
     X:     1.2368      Y:     2.9323      Z:     0.6794     Total:     3.2542

*** Psi4 exiting successfully. Buy a developer a beer!
