                               Psi4 1.3.2 release

  ==> Input File <==

--------------------------------------------------------------------------
#psi4
#
memory 32 gb

molecule  {
0 1
  S       -0.4387614    -0.1303962     0.0093799
  O       -1.5405550     0.9822230    -0.3857470
  O       -0.6402970    -0.4772220     1.4269040
  O       -0.4220170    -1.1957040    -1.0033910
  C        1.0482880     0.8316110    -0.1712040
  C        2.2874680    -0.0228060     0.0685240
  H        1.0172350     1.2390840    -1.1847640
  H        0.9628170     1.6516560     0.5452270
  H        3.1798800     0.5979390    -0.0357570
  H        2.2751200    -0.4461820     1.0750660
  H        2.3399770    -0.8369630    -0.6562920
  H       -2.2229620     0.9537130     0.3175410
units angstrom
no_reorient  #important for SAPT in psi4, default
symmetry c1  #important for SAPT in psi4, default
}

set PROPERTIES_ORIGIN ["COM"]
properties('MP2/aug-cc-pvtz', properties = ['dipole'])
--------------------------------------------------------------------------

    Molecular point group: c1
  Charge       = 0
  Multiplicity = 1
  Basis Set: AUG-CC-PVTZ
    Blend: AUG-CC-PVTZ
  Basis Set: (AUG-CC-PVTZ AUX)
    Blend: AUG-CC-PVTZ-JKFIT

    Orbital Energies [Eh]
    ---------------------

    Doubly Occupied:

       1A    -92.228288     2A    -20.645545     3A    -20.565316
       4A    -20.560470     5A    -11.292502     6A    -11.250014
       7A     -9.192285     8A     -6.877938     9A     -6.876288
      10A     -6.875985    11A     -1.500979    12A     -1.390255
      13A     -1.342813    14A     -1.096312    15A     -0.947663
      16A     -0.843408    17A     -0.752164    18A     -0.715080
      19A     -0.688525    20A     -0.660058    21A     -0.629487
      22A     -0.598490    23A     -0.568971    24A     -0.557896
      25A     -0.538784    26A     -0.521567    27A     -0.499006
      28A     -0.479086    29A     -0.472323

  @DF-RHF Final Energy:  -701.44380062827111

   => Energetics <=

    Nuclear Repulsion Energy =            357.1015188727940313
    One-Electron Energy =               -1674.7556459126799382
    Two-Electron Energy =                 616.2103264116148011
    Total Energy =                       -701.4438006282711058
  Basis Set: (AUG-CC-PVTZ AUX)
    Blend: AUG-CC-PVTZ-RI
    Molecular point group: c1

    Geometry (in Angstrom), charge = 0, multiplicity = 1:

       Center              X                  Y                   Z               Mass
    ------------   -----------------  -----------------  -----------------  -----------------
         S           -0.365849859689    -0.109241070579     0.011804387309    31.972071174400
         O           -1.467643459689     1.003378129421    -0.383322512691    15.994914619570
         O           -0.567385459689    -0.456066870579     1.429328487309    15.994914619570
         O           -0.349105459689    -1.174548870579    -1.000966512691    15.994914619570
         C            1.121199540311     0.852766129421    -0.168779512691    12.000000000000
         C            2.360379540311    -0.001650870579     0.070948487309    12.000000000000
         H            1.090146540311     1.260239129421    -1.182339512691     1.007825032230
         H            1.035728540311     1.672811129421     0.547651487309     1.007825032230
         H            3.252791540311     0.619094129421    -0.033332512691     1.007825032230
         H            2.348031540311    -0.425026870579     1.077490487309     1.007825032230
         H            2.412888540311    -0.815807870579    -0.653867512691     1.007825032230
         H           -2.150050459689     0.974868129421     0.319965487309     1.007825032230

  Basis Set: AUG-CC-PVTZ
    Blend: AUG-CC-PVTZ
  Basis Set: (AUG-CC-PVTZ AUX)
    Blend: AUG-CC-PVTZ-JKFIT
	 Reference Energy          =    -701.4438006282711058 [Eh]
	 Singles Energy            =      -0.0000000000000000 [Eh]
	 Same-Spin Energy          =      -0.3550604199652515 [Eh]
	 Opposite-Spin Energy      =      -1.0619085714774448 [Eh]
	 Correlation Energy        =      -1.4169689914426962 [Eh]
	 Total Energy              =    -702.8607696197137784 [Eh]

	 ================> DF-SCS-MP2 Energies <==================
	-----------------------------------------------------------
	 SCS Same-Spin Scale       =       0.3333333333333333 [-]
	 SCS Opposite-Spin Scale   =       1.2000000000000000 [-]
	 SCS Same-Spin Energy      =      -0.1183534733217505 [Eh]
	 SCS Opposite-Spin Energy  =      -1.2742902857729337 [Eh]
	 SCS Correlation Energy    =      -1.3926437590946841 [Eh]
	 SCS Total Energy          =    -702.8364443873657592 [Eh]
	-----------------------------------------------------------

  Dipole Moment: [D]
     X:     1.3498      Y:     3.2534      Z:     0.1910     Total:     3.5274

*** Psi4 exiting successfully. Buy a developer a beer!
