                               Psi4 1.3.2 release

  ==> Input File <==

--------------------------------------------------------------------------
#psi4
#
memory 32 gb

molecule  {
0 1
  S       -0.4214780    -0.1554040     0.0158080
  O       -1.5613605     0.9628750    -0.3815518
  O       -0.6402970    -0.4772220     1.4269040
  O       -0.4220170    -1.1957040    -1.0033910
  C        1.0482880     0.8316110    -0.1712040
  C        2.2874680    -0.0228060     0.0685240
  H        1.0172350     1.2390840    -1.1847640
  H        0.9628170     1.6516560     0.5452270
  H        3.1798800     0.5979390    -0.0357570
  H        2.2751200    -0.4461820     1.0750660
  H        2.3399770    -0.8369630    -0.6562920
  H       -2.2229620     0.9537130     0.3175410
units angstrom
no_reorient  #important for SAPT in psi4, default
symmetry c1  #important for SAPT in psi4, default
}

set PROPERTIES_ORIGIN ["COM"]
properties('MP2/aug-cc-pvtz', properties = ['dipole'])
--------------------------------------------------------------------------

    Molecular point group: c1
  Charge       = 0
  Multiplicity = 1
  Basis Set: AUG-CC-PVTZ
    Blend: AUG-CC-PVTZ
  Basis Set: (AUG-CC-PVTZ AUX)
    Blend: AUG-CC-PVTZ-JKFIT

    Orbital Energies [Eh]
    ---------------------

    Doubly Occupied:

       1A    -92.228264     2A    -20.633787     3A    -20.567258
       4A    -20.564393     5A    -11.294098     6A    -11.251643
       7A     -9.192325     8A     -6.877924     9A     -6.876316
      10A     -6.876113    11A     -1.496964    12A     -1.387749
      13A     -1.352018    14A     -1.098268    15A     -0.946461
      16A     -0.840647    17A     -0.750873    18A     -0.711787
      19A     -0.687832    20A     -0.659995    21A     -0.630749
      22A     -0.598087    23A     -0.569607    24A     -0.557486
      25A     -0.540730    26A     -0.520956    27A     -0.504027
      28A     -0.483885    29A     -0.475458

  @DF-RHF Final Energy:  -701.44562356080212

   => Energetics <=

    Nuclear Repulsion Energy =            357.1560183569201854
    One-Electron Energy =               -1674.8518813236630649
    Two-Electron Energy =                 616.2502394059407607
    Total Energy =                       -701.4456235608021188
  Basis Set: (AUG-CC-PVTZ AUX)
    Blend: AUG-CC-PVTZ-RI
    Molecular point group: c1

    Geometry (in Angstrom), charge = 0, multiplicity = 1:

       Center              X                  Y                   Z               Mass
    ------------   -----------------  -----------------  -----------------  -----------------
         S           -0.350564608556    -0.124167208671     0.015754194535    31.972071174400
         O           -1.490447108556     0.994111791329    -0.381605605465    15.994914619570
         O           -0.569383608556    -0.445985208671     1.426850194535    15.994914619570
         O           -0.351103608556    -1.164467208671    -1.003444805465    15.994914619570
         C            1.119201391444     0.862847791329    -0.171257805465    12.000000000000
         C            2.358381391444     0.008430791329     0.068470194535    12.000000000000
         H            1.088148391444     1.270320791329    -1.184817805465     1.007825032230
         H            1.033730391444     1.682892791329     0.545173194535     1.007825032230
         H            3.250793391444     0.629175791329    -0.035810805465     1.007825032230
         H            2.346033391444    -0.414945208671     1.075012194535     1.007825032230
         H            2.410890391444    -0.805726208671    -0.656345805465     1.007825032230
         H           -2.152048608556     0.984949791329     0.317487194535     1.007825032230

  Basis Set: AUG-CC-PVTZ
    Blend: AUG-CC-PVTZ
  Basis Set: (AUG-CC-PVTZ AUX)
    Blend: AUG-CC-PVTZ-JKFIT
	 Reference Energy          =    -701.4456235608021188 [Eh]
	 Singles Energy            =      -0.0000000000000000 [Eh]
	 Same-Spin Energy          =      -0.3546925366320042 [Eh]
	 Opposite-Spin Energy      =      -1.0614288439691006 [Eh]
	 Correlation Energy        =      -1.4161213806011048 [Eh]
	 Total Energy              =    -702.8617449414032308 [Eh]

	 ================> DF-SCS-MP2 Energies <==================
	-----------------------------------------------------------
	 SCS Same-Spin Scale       =       0.3333333333333333 [-]
	 SCS Opposite-Spin Scale   =       1.2000000000000000 [-]
	 SCS Same-Spin Energy      =      -0.1182308455440014 [Eh]
	 SCS Opposite-Spin Energy  =      -1.2737146127629206 [Eh]
	 SCS Correlation Energy    =      -1.3919454583069220 [Eh]
	 SCS Total Energy          =    -702.8375690191090825 [Eh]
	-----------------------------------------------------------

  Dipole Moment: [D]
     X:     1.6052      Y:     3.0392      Z:     0.2344     Total:     3.4451

*** Psi4 exiting successfully. Buy a developer a beer!
