                               Psi4 1.3.2 release

  ==> Input File <==

--------------------------------------------------------------------------
#psi4
#
memory 32 gb

molecule  {
0 1
  S       -0.4214780    -0.1554040     0.0158080
  O       -1.5604692     0.9801863    -0.3319113
  O       -0.6402970    -0.4772220     1.4269040
  O       -0.4220170    -1.1957040    -1.0033910
  C        1.0482880     0.8316110    -0.1712040
  C        2.2874680    -0.0228060     0.0685240
  H        1.0172350     1.2390840    -1.1847640
  H        0.9628170     1.6516560     0.5452270
  H        3.1798800     0.5979390    -0.0357570
  H        2.2751200    -0.4461820     1.0750660
  H        2.3399770    -0.8369630    -0.6562920
  H       -2.2229620     0.9537130     0.3175410
units angstrom
no_reorient  #important for SAPT in psi4, default
symmetry c1  #important for SAPT in psi4, default
}

set PROPERTIES_ORIGIN ["COM"]
properties('MP2/aug-cc-pvtz', properties = ['dipole'])
--------------------------------------------------------------------------

    Molecular point group: c1
  Charge       = 0
  Multiplicity = 1
  Basis Set: AUG-CC-PVTZ
    Blend: AUG-CC-PVTZ
  Basis Set: (AUG-CC-PVTZ AUX)
    Blend: AUG-CC-PVTZ-JKFIT

    Orbital Energies [Eh]
    ---------------------

    Doubly Occupied:

       1A    -92.229196     2A    -20.629520     3A    -20.567430
       4A    -20.564721     5A    -11.294509     6A    -11.251979
       7A     -9.193137     8A     -6.878762     9A     -6.877108
      10A     -6.876929    11A     -1.499105    12A     -1.393233
      13A     -1.351726    14A     -1.098943    15A     -0.949369
      16A     -0.845035    17A     -0.755259    18A     -0.711604
      19A     -0.689179    20A     -0.659915    21A     -0.631216
      22A     -0.598310    23A     -0.569790    24A     -0.558540
      25A     -0.540858    26A     -0.521127    27A     -0.504655
      28A     -0.484107    29A     -0.475642

  @DF-RHF Final Energy:  -701.44503994029935

   => Energetics <=

    Nuclear Repulsion Energy =            357.3409807094209327
    One-Electron Energy =               -1675.1702366495546812
    Two-Electron Energy =                 616.3842159998345096
    Total Energy =                       -701.4450399402993526
  Basis Set: (AUG-CC-PVTZ AUX)
    Blend: AUG-CC-PVTZ-RI
    Molecular point group: c1

    Geometry (in Angstrom), charge = 0, multiplicity = 1:

       Center              X                  Y                   Z               Mass
    ------------   -----------------  -----------------  -----------------  -----------------
         S           -0.350694206551    -0.126684329471     0.008536300152    31.972071174400
         O           -1.489685406551     1.008905970529    -0.339182999848    15.994914619570
         O           -0.569513206551    -0.448502329471     1.419632300152    15.994914619570
         O           -0.351233206551    -1.166984329471    -1.010662699848    15.994914619570
         C            1.119071793449     0.860330670529    -0.178475699848    12.000000000000
         C            2.358251793449     0.005913670529     0.061252300152    12.000000000000
         H            1.088018793449     1.267803670529    -1.192035699848     1.007825032230
         H            1.033600793449     1.680375670529     0.537955300152     1.007825032230
         H            3.250663793449     0.626658670529    -0.043028699848     1.007825032230
         H            2.345903793449    -0.417462329471     1.067794300152     1.007825032230
         H            2.410760793449    -0.808243329471    -0.663563699848     1.007825032230
         H           -2.152178206551     0.982432670529     0.310269300152     1.007825032230

  Basis Set: AUG-CC-PVTZ
    Blend: AUG-CC-PVTZ
  Basis Set: (AUG-CC-PVTZ AUX)
    Blend: AUG-CC-PVTZ-JKFIT
	 Reference Energy          =    -701.4450399402993526 [Eh]
	 Singles Energy            =      -0.0000000000000000 [Eh]
	 Same-Spin Energy          =      -0.3541698737485961 [Eh]
	 Opposite-Spin Energy      =      -1.0602944549415376 [Eh]
	 Correlation Energy        =      -1.4144643286901337 [Eh]
	 Total Energy              =    -702.8595042689894399 [Eh]

	 ================> DF-SCS-MP2 Energies <==================
	-----------------------------------------------------------
	 SCS Same-Spin Scale       =       0.3333333333333333 [-]
	 SCS Opposite-Spin Scale   =       1.2000000000000000 [-]
	 SCS Same-Spin Energy      =      -0.1180566245828654 [Eh]
	 SCS Opposite-Spin Energy  =      -1.2723533459298451 [Eh]
	 SCS Correlation Energy    =      -1.3904099705127104 [Eh]
	 SCS Total Energy          =    -702.8354499108120308 [Eh]
	-----------------------------------------------------------

  Dipole Moment: [D]
     X:     1.6308      Y:     2.9742      Z:     0.1290     Total:     3.3944

*** Psi4 exiting successfully. Buy a developer a beer!
