                               Psi4 1.3.2 release

  ==> Input File <==

--------------------------------------------------------------------------
#psi4
#
memory 32 gb

molecule  {
0 1
  S       -0.4214780    -0.1554040     0.0158080
  O       -1.5405550     0.9822230    -0.3857470
  O       -0.6613369    -0.4901970     1.4204510
  O       -0.4220170    -1.1957040    -1.0033910
  C        1.0482880     0.8316110    -0.1712040
  C        2.2874680    -0.0228060     0.0685240
  H        1.0172350     1.2390840    -1.1847640
  H        0.9628170     1.6516560     0.5452270
  H        3.1798800     0.5979390    -0.0357570
  H        2.2751200    -0.4461820     1.0750660
  H        2.3399770    -0.8369630    -0.6562920
  H       -2.2229620     0.9537130     0.3175410
units angstrom
no_reorient  #important for SAPT in psi4, default
symmetry c1  #important for SAPT in psi4, default
}

set PROPERTIES_ORIGIN ["COM"]
properties('MP2/aug-cc-pvtz', properties = ['dipole'])
--------------------------------------------------------------------------

    Molecular point group: c1
  Charge       = 0
  Multiplicity = 1
  Basis Set: AUG-CC-PVTZ
    Blend: AUG-CC-PVTZ
  Basis Set: (AUG-CC-PVTZ AUX)
    Blend: AUG-CC-PVTZ-JKFIT

    Orbital Energies [Eh]
    ---------------------

    Doubly Occupied:

       1A    -92.227766     2A    -20.635268     3A    -20.567772
       4A    -20.563749     5A    -11.294112     6A    -11.251518
       7A     -9.191918     8A     -6.877518     9A     -6.875887
      10A     -6.875714    11A     -1.495947    12A     -1.385361
      13A     -1.351413    14A     -1.098383    15A     -0.945685
      16A     -0.838155    17A     -0.747673    18A     -0.711960
      19A     -0.687848    20A     -0.659729    21A     -0.631168
      22A     -0.597345    23A     -0.569696    24A     -0.556931
      25A     -0.540637    26A     -0.521322    27A     -0.503427
      28A     -0.483708    29A     -0.475454

  @DF-RHF Final Energy:  -701.44472664557225

   => Energetics <=

    Nuclear Repulsion Energy =            357.0762608223815278
    One-Electron Energy =               -1674.7158477169198250
    Two-Electron Energy =                 616.1948602489660516
    Total Energy =                       -701.4447266455722456
  Basis Set: (AUG-CC-PVTZ AUX)
    Blend: AUG-CC-PVTZ-RI
    Molecular point group: c1

    Geometry (in Angstrom), charge = 0, multiplicity = 1:

       Center              X                  Y                   Z               Mass
    ------------   -----------------  -----------------  -----------------  -----------------
         S           -0.350530526014    -0.125093864142     0.017302478355    31.972071174400
         O           -1.469607526014     1.012533135858    -0.384252521645    15.994914619570
         O           -0.590389426014    -0.459886864142     1.421945478355    15.994914619570
         O           -0.351069526014    -1.165393864142    -1.001896521645    15.994914619570
         C            1.119235473986     0.861921135858    -0.169709521645    12.000000000000
         C            2.358415473986     0.007504135858     0.070018478355    12.000000000000
         H            1.088182473986     1.269394135858    -1.183269521645     1.007825032230
         H            1.033764473986     1.681966135858     0.546721478355     1.007825032230
         H            3.250827473986     0.628249135858    -0.034262521645     1.007825032230
         H            2.346067473986    -0.415871864142     1.076560478355     1.007825032230
         H            2.410924473986    -0.806652864142    -0.654797521645     1.007825032230
         H           -2.152014526014     0.984023135858     0.319035478355     1.007825032230

  Basis Set: AUG-CC-PVTZ
    Blend: AUG-CC-PVTZ
  Basis Set: (AUG-CC-PVTZ AUX)
    Blend: AUG-CC-PVTZ-JKFIT
	 Reference Energy          =    -701.4447266455722456 [Eh]
	 Singles Energy            =      -0.0000000000000000 [Eh]
	 Same-Spin Energy          =      -0.3549529549838079 [Eh]
	 Opposite-Spin Energy      =      -1.0620041266243696 [Eh]
	 Correlation Energy        =      -1.4169570816081776 [Eh]
	 Total Energy              =    -702.8616837271804343 [Eh]

	 ================> DF-SCS-MP2 Energies <==================
	-----------------------------------------------------------
	 SCS Same-Spin Scale       =       0.3333333333333333 [-]
	 SCS Opposite-Spin Scale   =       1.2000000000000000 [-]
	 SCS Same-Spin Energy      =      -0.1183176516612693 [Eh]
	 SCS Opposite-Spin Energy  =      -1.2744049519492435 [Eh]
	 SCS Correlation Energy    =      -1.3927226036105129 [Eh]
	 SCS Total Energy          =    -702.8374492491827823 [Eh]
	-----------------------------------------------------------

  Dipole Moment: [D]
     X:     1.6021      Y:     3.0412      Z:     0.2492     Total:     3.4464

*** Psi4 exiting successfully. Buy a developer a beer!
