                               Psi4 1.3.2 release

  ==> Input File <==

--------------------------------------------------------------------------
#psi4
#
memory 32 gb

molecule  {
0 1
  S       -0.4214780    -0.1554040     0.0158080
  O       -1.4966623     0.9821375    -0.4918857
  O       -0.6402970    -0.4772220     1.4269040
  O       -0.4220170    -1.1957040    -1.0033910
  C        1.0482880     0.8316110    -0.1712040
  C        2.2874680    -0.0228060     0.0685240
  H        1.0172350     1.2390840    -1.1847640
  H        0.9628170     1.6516560     0.5452270
  H        3.1798800     0.5979390    -0.0357570
  H        2.2751200    -0.4461820     1.0750660
  H        2.3399770    -0.8369630    -0.6562920
  H       -2.2229620     0.9537130     0.3175410
units angstrom
no_reorient  #important for SAPT in psi4, default
symmetry c1  #important for SAPT in psi4, default
}

set PROPERTIES_ORIGIN ["COM"]
properties('MP2/aug-cc-pvtz', properties = ['dipole'])
--------------------------------------------------------------------------

    Molecular point group: c1
  Charge       = 0
  Multiplicity = 1
  Basis Set: AUG-CC-PVTZ
    Blend: AUG-CC-PVTZ
  Basis Set: (AUG-CC-PVTZ AUX)
    Blend: AUG-CC-PVTZ-JKFIT

    Orbital Energies [Eh]
    ---------------------

    Doubly Occupied:

       1A    -92.226088     2A    -20.646449     3A    -20.574479
       4A    -20.559727     5A    -11.289821     6A    -11.248665
       7A     -9.190483     8A     -6.876068     9A     -6.874489
      10A     -6.874231    11A     -1.492231    12A     -1.374273
      13A     -1.352721    14A     -1.094354    15A     -0.938654
      16A     -0.828617    17A     -0.731832    18A     -0.712161
      19A     -0.685307    20A     -0.656325    21A     -0.630536
      22A     -0.595240    23A     -0.569641    24A     -0.552686
      25A     -0.538310    26A     -0.523584    27A     -0.502899
      28A     -0.483024    29A     -0.473151

  @DF-RHF Final Energy:  -701.42750372018986

   => Energetics <=

    Nuclear Repulsion Energy =            356.8389176817721022
    One-Electron Energy =               -1674.3407576247825546
    Two-Electron Energy =                 616.0743362228206479
    Total Energy =                       -701.4275037201898613
  Basis Set: (AUG-CC-PVTZ AUX)
    Blend: AUG-CC-PVTZ-RI
    Molecular point group: c1

    Geometry (in Angstrom), charge = 0, multiplicity = 1:

       Center              X                  Y                   Z               Mass
    ------------   -----------------  -----------------  -----------------  -----------------
         S           -0.359971942777    -0.126968040463     0.031797111852    31.972071174400
         O           -1.435156242777     1.010573459537    -0.475896588148    15.994914619570
         O           -0.578790942777    -0.448786040463     1.442893111852    15.994914619570
         O           -0.360510942777    -1.167268040463    -0.987401888148    15.994914619570
         C            1.109794057223     0.860046959537    -0.155214888148    12.000000000000
         C            2.348974057223     0.005629959537     0.084513111852    12.000000000000
         H            1.078741057223     1.267519959537    -1.168774888148     1.007825032230
         H            1.024323057223     1.680091959537     0.561216111852     1.007825032230
         H            3.241386057223     0.626374959537    -0.019767888148     1.007825032230
         H            2.336626057223    -0.417746040463     1.091055111852     1.007825032230
         H            2.401483057223    -0.808527040463    -0.640302888148     1.007825032230
         H           -2.161455942777     0.982148959537     0.333530111852     1.007825032230

  Basis Set: AUG-CC-PVTZ
    Blend: AUG-CC-PVTZ
  Basis Set: (AUG-CC-PVTZ AUX)
    Blend: AUG-CC-PVTZ-JKFIT
	 Reference Energy          =    -701.4275037201898613 [Eh]
	 Singles Energy            =      -0.0000000000000000 [Eh]
	 Same-Spin Energy          =      -0.3568892490991946 [Eh]
	 Opposite-Spin Energy      =      -1.0664838469779971 [Eh]
	 Correlation Energy        =      -1.4233730960771918 [Eh]
	 Total Energy              =    -702.8508768162670322 [Eh]

	 ================> DF-SCS-MP2 Energies <==================
	-----------------------------------------------------------
	 SCS Same-Spin Scale       =       0.3333333333333333 [-]
	 SCS Opposite-Spin Scale   =       1.2000000000000000 [-]
	 SCS Same-Spin Energy      =      -0.1189630830330649 [Eh]
	 SCS Opposite-Spin Energy  =      -1.2797806163735965 [Eh]
	 SCS Correlation Energy    =      -1.3987436994066613 [Eh]
	 SCS Total Energy          =    -702.8262474195964842 [Eh]
	-----------------------------------------------------------

  Dipole Moment: [D]
     X:     1.3672      Y:     3.0646      Z:     0.4389     Total:     3.3843

*** Psi4 exiting successfully. Buy a developer a beer!
