                               Psi4 1.3.2 release

  ==> Input File <==

--------------------------------------------------------------------------
#psi4
#
memory 32 gb

molecule  {
0 1
  S       -0.4214780    -0.1554040     0.0158080
  O       -1.5789956     0.9767661    -0.2776519
  O       -0.6402970    -0.4772220     1.4269040
  O       -0.4220170    -1.1957040    -1.0033910
  C        1.0482880     0.8316110    -0.1712040
  C        2.2874680    -0.0228060     0.0685240
  H        1.0172350     1.2390840    -1.1847640
  H        0.9628170     1.6516560     0.5452270
  H        3.1798800     0.5979390    -0.0357570
  H        2.2751200    -0.4461820     1.0750660
  H        2.3399770    -0.8369630    -0.6562920
  H       -2.2229620     0.9537130     0.3175410
units angstrom
no_reorient  #important for SAPT in psi4, default
symmetry c1  #important for SAPT in psi4, default
}

set PROPERTIES_ORIGIN ["COM"]
properties('MP2/aug-cc-pvtz', properties = ['dipole'])
--------------------------------------------------------------------------

    Molecular point group: c1
  Charge       = 0
  Multiplicity = 1
  Basis Set: AUG-CC-PVTZ
    Blend: AUG-CC-PVTZ
  Basis Set: (AUG-CC-PVTZ AUX)
    Blend: AUG-CC-PVTZ-JKFIT

    Orbital Energies [Eh]
    ---------------------

    Doubly Occupied:

       1A    -92.230651     2A    -20.622126     3A    -20.570157
       4A    -20.561263     5A    -11.296282     6A    -11.253205
       7A     -9.194375     8A     -6.880037     9A     -6.878332
      10A     -6.878159    11A     -1.502777    12A     -1.401067
      13A     -1.350945    14A     -1.100682    15A     -0.954523
      16A     -0.853183    17A     -0.761466    18A     -0.710895
      19A     -0.690322    20A     -0.660136    21A     -0.630787
      22A     -0.599312    23A     -0.569929    24A     -0.560583
      25A     -0.541737    26A     -0.520808    27A     -0.504977
      28A     -0.483833    29A     -0.475743

  @DF-RHF Final Energy:  -701.43793544342748

   => Energetics <=

    Nuclear Repulsion Energy =            357.5866157472545979
    One-Electron Energy =               -1675.5725202488763443
    Two-Electron Energy =                 616.5479690581942123
    Total Energy =                       -701.4379354434274774
  Basis Set: (AUG-CC-PVTZ AUX)
    Blend: AUG-CC-PVTZ-RI
    Molecular point group: c1

    Geometry (in Angstrom), charge = 0, multiplicity = 1:

       Center              X                  Y                   Z               Mass
    ------------   -----------------  -----------------  -----------------  -----------------
         S           -0.348000406156    -0.126187020975     0.000646802292    31.972071174400
         O           -1.505518006156     1.005983079025    -0.292813097708    15.994914619570
         O           -0.566819406156    -0.448005020975     1.411742802292    15.994914619570
         O           -0.348539406156    -1.166487020975    -1.018552197708    15.994914619570
         C            1.121765593844     0.860827979025    -0.186365197708    12.000000000000
         C            2.360945593844     0.006410979025     0.053362802292    12.000000000000
         H            1.090712593844     1.268300979025    -1.199925197708     1.007825032230
         H            1.036294593844     1.680872979025     0.530065802292     1.007825032230
         H            3.253357593844     0.627155979025    -0.050918197708     1.007825032230
         H            2.348597593844    -0.416965020975     1.059904802292     1.007825032230
         H            2.413454593844    -0.807746020975    -0.671453197708     1.007825032230
         H           -2.149484406156     0.982929979025     0.302379802292     1.007825032230

  Basis Set: AUG-CC-PVTZ
    Blend: AUG-CC-PVTZ
  Basis Set: (AUG-CC-PVTZ AUX)
    Blend: AUG-CC-PVTZ-JKFIT
	 Reference Energy          =    -701.4379354434274774 [Eh]
	 Singles Energy            =      -0.0000000000000000 [Eh]
	 Same-Spin Energy          =      -0.3534275334967464 [Eh]
	 Opposite-Spin Energy      =      -1.0587080427369633 [Eh]
	 Correlation Energy        =      -1.4121355762337098 [Eh]
	 Total Energy              =    -702.8500710196611863 [Eh]

	 ================> DF-SCS-MP2 Energies <==================
	-----------------------------------------------------------
	 SCS Same-Spin Scale       =       0.3333333333333333 [-]
	 SCS Opposite-Spin Scale   =       1.2000000000000000 [-]
	 SCS Same-Spin Energy      =      -0.1178091778322488 [Eh]
	 SCS Opposite-Spin Energy  =      -1.2704496512843559 [Eh]
	 SCS Correlation Energy    =      -1.3882588291166047 [Eh]
	 SCS Total Energy          =    -702.8261942725440576 [Eh]
	-----------------------------------------------------------

  Dipole Moment: [D]
     X:     1.7298      Y:     2.9393      Z:     0.0148     Total:     3.4106

*** Psi4 exiting successfully. Buy a developer a beer!
