                               Psi4 1.3.2 release

  ==> Input File <==

--------------------------------------------------------------------------
#psi4
#
memory 32 gb

molecule  {
0 1
  S       -0.4214780    -0.1554040     0.0158080
  O       -1.5405550     0.9822230    -0.3857470
  O       -0.6402970    -0.4772220     1.4269040
  O       -0.4220170    -1.1957040    -1.0033910
  C        1.0482880     0.8316110    -0.1712040
  C        2.2874680    -0.0228060     0.0685240
  H        1.0172350     1.2390840    -1.1847640
  H        0.9628170     1.6516560     0.5452270
  H        3.1798800     0.5979390    -0.0357570
  H        2.2751200    -0.4461820     1.0750660
  H        2.3399770    -0.8369630    -0.6562920
  H       -2.1533542     0.9566211     0.2458033
units angstrom
no_reorient  #important for SAPT in psi4, default
symmetry c1  #important for SAPT in psi4, default
}

set PROPERTIES_ORIGIN ["COM"]
properties('MP2/aug-cc-pvtz', properties = ['dipole'])
--------------------------------------------------------------------------

    Molecular point group: c1
  Charge       = 0
  Multiplicity = 1
  Basis Set: AUG-CC-PVTZ
    Blend: AUG-CC-PVTZ
  Basis Set: (AUG-CC-PVTZ AUX)
    Blend: AUG-CC-PVTZ-JKFIT

    Orbital Energies [Eh]
    ---------------------

    Doubly Occupied:

       1A    -92.230016     2A    -20.628744     3A    -20.569867
       4A    -20.566279     5A    -11.293919     6A    -11.251642
       7A     -9.194131     8A     -6.879759     9A     -6.878102
      10A     -6.877895    11A     -1.506830    12A     -1.404719
      13A     -1.353945    14A     -1.099245    15A     -0.951963
      16A     -0.848042    17A     -0.762774    18A     -0.715534
      19A     -0.689822    20A     -0.662987    21A     -0.634584
      22A     -0.600030    23A     -0.571786    24A     -0.558550
      25A     -0.540946    26A     -0.524383    27A     -0.506026
      28A     -0.485921    29A     -0.476761

  @DF-RHF Final Energy:  -701.43992387962817

   => Energetics <=

    Nuclear Repulsion Energy =            357.8348977679677887
    One-Electron Energy =               -1676.0192379809452632
    Two-Electron Energy =                 616.7444163333493634
    Total Energy =                       -701.4399238796281679
  Basis Set: (AUG-CC-PVTZ AUX)
    Blend: AUG-CC-PVTZ-RI
    Molecular point group: c1

    Geometry (in Angstrom), charge = 0, multiplicity = 1:

       Center              X                  Y                   Z               Mass
    ------------   -----------------  -----------------  -----------------  -----------------
         S           -0.354227525717    -0.127007115682     0.017021432209    31.972071174400
         O           -1.473304525717     1.010619884318    -0.384533567791    15.994914619570
         O           -0.573046525717    -0.448825115682     1.428117432209    15.994914619570
         O           -0.354766525717    -1.167307115682    -1.002177567791    15.994914619570
         C            1.115538474283     0.860007884318    -0.169990567791    12.000000000000
         C            2.354718474283     0.005590884318     0.069737432209    12.000000000000
         H            1.084485474283     1.267480884318    -1.183550567791     1.007825032230
         H            1.030067474283     1.680052884318     0.546440432209     1.007825032230
         H            3.247130474283     0.626335884318    -0.034543567791     1.007825032230
         H            2.342370474283    -0.417785115682     1.076279432209     1.007825032230
         H            2.407227474283    -0.808566115682    -0.655078567791     1.007825032230
         H           -2.086103725717     0.985017984318     0.247016732209     1.007825032230

  Basis Set: AUG-CC-PVTZ
    Blend: AUG-CC-PVTZ
  Basis Set: (AUG-CC-PVTZ AUX)
    Blend: AUG-CC-PVTZ-JKFIT
	 Reference Energy          =    -701.4399238796281679 [Eh]
	 Singles Energy            =      -0.0000000000000000 [Eh]
	 Same-Spin Energy          =      -0.3537613176119322 [Eh]
	 Opposite-Spin Energy      =      -1.0594256664342707 [Eh]
	 Correlation Energy        =      -1.4131869840462028 [Eh]
	 Total Energy              =    -702.8531108636743738 [Eh]

	 ================> DF-SCS-MP2 Energies <==================
	-----------------------------------------------------------
	 SCS Same-Spin Scale       =       0.3333333333333333 [-]
	 SCS Opposite-Spin Scale   =       1.2000000000000000 [-]
	 SCS Same-Spin Energy      =      -0.1179204392039774 [Eh]
	 SCS Opposite-Spin Energy  =      -1.2713107997211248 [Eh]
	 SCS Correlation Energy    =      -1.3892312389251023 [Eh]
	 SCS Total Energy          =    -702.8291551185532171 [Eh]
	-----------------------------------------------------------

  Dipole Moment: [D]
     X:     1.6779      Y:     2.9681      Z:     0.1617     Total:     3.4134

*** Psi4 exiting successfully. Buy a developer a beer!
