                               Psi4 1.3.2 release

  ==> Input File <==

--------------------------------------------------------------------------
#psi4
#
memory 32 gb

molecule  {
0 1
  S       -0.3855736    -0.2045101     0.0284914
  O       -1.5405550     0.9822230    -0.3857470
  O       -0.6402970    -0.4772220     1.4269040
  O       -0.4220170    -1.1957040    -1.0033910
  C        1.0482880     0.8316110    -0.1712040
  C        2.2874680    -0.0228060     0.0685240
  H        1.0172350     1.2390840    -1.1847640
  H        0.9628170     1.6516560     0.5452270
  H        3.1798800     0.5979390    -0.0357570
  H        2.2751200    -0.4461820     1.0750660
  H        2.3399770    -0.8369630    -0.6562920
  H       -2.2229620     0.9537130     0.3175410
units angstrom
no_reorient  #important for SAPT in psi4, default
symmetry c1  #important for SAPT in psi4, default
}

set PROPERTIES_ORIGIN ["COM"]
properties('MP2/aug-cc-pvtz', properties = ['dipole'])
--------------------------------------------------------------------------

    Molecular point group: c1
  Charge       = 0
  Multiplicity = 1
  Basis Set: AUG-CC-PVTZ
    Blend: AUG-CC-PVTZ
  Basis Set: (AUG-CC-PVTZ AUX)
    Blend: AUG-CC-PVTZ-JKFIT

    Orbital Energies [Eh]
    ---------------------

    Doubly Occupied:

       1A    -92.227283     2A    -20.616447     3A    -20.573768
       4A    -20.573470     5A    -11.294012     6A    -11.252657
       7A     -9.191978     8A     -6.877476     9A     -6.876023
      10A     -6.875755    11A     -1.496680    12A     -1.374624
      13A     -1.364391    14A     -1.099758    15A     -0.941161
      16A     -0.830468    17A     -0.739754    18A     -0.709349
      19A     -0.689253    20A     -0.656626    21A     -0.635732
      22A     -0.593936    23A     -0.571267    24A     -0.552608
      25A     -0.542308    26A     -0.519699    27A     -0.513276
      28A     -0.493113    29A     -0.477411

  @DF-RHF Final Energy:  -701.44002892901926

   => Energetics <=

    Nuclear Repulsion Energy =            357.1829286969197597
    One-Electron Energy =               -1674.9253455745752035
    Two-Electron Energy =                 616.3023879486361238
    Total Energy =                       -701.4400289290192632
  Basis Set: (AUG-CC-PVTZ AUX)
    Blend: AUG-CC-PVTZ-RI
    Molecular point group: c1

    Geometry (in Angstrom), charge = 0, multiplicity = 1:

       Center              X                  Y                   Z               Mass
    ------------   -----------------  -----------------  -----------------  -----------------
         S           -0.328120840793    -0.161814118037     0.025361220731    31.972071174400
         O           -1.483102240793     1.024918981963    -0.388877179269    15.994914619570
         O           -0.582844240793    -0.434526018037     1.423773820731    15.994914619570
         O           -0.364564240793    -1.153008018037    -1.006521179269    15.994914619570
         C            1.105740759207     0.874306981963    -0.174334179269    12.000000000000
         C            2.344920759207     0.019889981963     0.065393820731    12.000000000000
         H            1.074687759207     1.281779981963    -1.187894179269     1.007825032230
         H            1.020269759207     1.694351981963     0.542096820731     1.007825032230
         H            3.237332759207     0.640634981963    -0.038887179269     1.007825032230
         H            2.332572759207    -0.403486018037     1.071935820731     1.007825032230
         H            2.397429759207    -0.794267018037    -0.659422179269     1.007825032230
         H           -2.165509240793     0.996408981963     0.314410820731     1.007825032230

  Basis Set: AUG-CC-PVTZ
    Blend: AUG-CC-PVTZ
  Basis Set: (AUG-CC-PVTZ AUX)
    Blend: AUG-CC-PVTZ-JKFIT
	 Reference Energy          =    -701.4400289290192632 [Eh]
	 Singles Energy            =      -0.0000000000000000 [Eh]
	 Same-Spin Energy          =      -0.3550669976020497 [Eh]
	 Opposite-Spin Energy      =      -1.0629778520981930 [Eh]
	 Correlation Energy        =      -1.4180448497002427 [Eh]
	 Total Energy              =    -702.8580737787194721 [Eh]

	 ================> DF-SCS-MP2 Energies <==================
	-----------------------------------------------------------
	 SCS Same-Spin Scale       =       0.3333333333333333 [-]
	 SCS Opposite-Spin Scale   =       1.2000000000000000 [-]
	 SCS Same-Spin Energy      =      -0.1183556658673499 [Eh]
	 SCS Opposite-Spin Energy  =      -1.2755734225178315 [Eh]
	 SCS Correlation Energy    =      -1.3939290883851814 [Eh]
	 SCS Total Energy          =    -702.8339580174044841 [Eh]
	-----------------------------------------------------------

  Dipole Moment: [D]
     X:     1.9295      Y:     2.5185      Z:     0.3328     Total:     3.1901

*** Psi4 exiting successfully. Buy a developer a beer!
