                               Psi4 1.3.2 release

  ==> Input File <==

--------------------------------------------------------------------------
#psi4
#
memory 32 gb

molecule  {
0 1
  S       -0.4214780    -0.1554040     0.0158080
  O       -1.5405550     0.9822230    -0.3857470
  O       -0.6355226    -0.4275865     1.4380394
  O       -0.4220170    -1.1957040    -1.0033910
  C        1.0482880     0.8316110    -0.1712040
  C        2.2874680    -0.0228060     0.0685240
  H        1.0172350     1.2390840    -1.1847640
  H        0.9628170     1.6516560     0.5452270
  H        3.1798800     0.5979390    -0.0357570
  H        2.2751200    -0.4461820     1.0750660
  H        2.3399770    -0.8369630    -0.6562920
  H       -2.2229620     0.9537130     0.3175410
units angstrom
no_reorient  #important for SAPT in psi4, default
symmetry c1  #important for SAPT in psi4, default
}

set PROPERTIES_ORIGIN ["COM"]
properties('MP2/aug-cc-pvtz', properties = ['dipole'])
--------------------------------------------------------------------------

    Molecular point group: c1
  Charge       = 0
  Multiplicity = 1
  Basis Set: AUG-CC-PVTZ
    Blend: AUG-CC-PVTZ
  Basis Set: (AUG-CC-PVTZ AUX)
    Blend: AUG-CC-PVTZ-JKFIT

    Orbital Energies [Eh]
    ---------------------

    Doubly Occupied:

       1A    -92.228448     2A    -20.634228     3A    -20.568295
       4A    -20.568179     5A    -11.291425     6A    -11.250363
       7A     -9.192511     8A     -6.878123     9A     -6.876524
      10A     -6.876279    11A     -1.496620    12A     -1.384878
      13A     -1.355095    14A     -1.096209    15A     -0.944224
      16A     -0.837764    17A     -0.747469    18A     -0.711856
      19A     -0.688473    20A     -0.658835    21A     -0.631594
      22A     -0.597053    23A     -0.569438    24A     -0.555940
      25A     -0.539732    26A     -0.521570    27A     -0.506224
      28A     -0.485641    29A     -0.474611

  @DF-RHF Final Energy:  -701.44383242558843

   => Energetics <=

    Nuclear Repulsion Energy =            357.2420892268967805
    One-Electron Energy =               -1675.0366347574647534
    Two-Electron Energy =                 616.3507131049796044
    Total Energy =                       -701.4438324255884254
  Basis Set: (AUG-CC-PVTZ AUX)
    Blend: AUG-CC-PVTZ-RI
    Molecular point group: c1

    Geometry (in Angstrom), charge = 0, multiplicity = 1:

       Center              X                  Y                   Z               Mass
    ------------   -----------------  -----------------  -----------------  -----------------
         S           -0.354284011393    -0.134197639815     0.014745066291    31.972071174400
         O           -1.473361011393     1.003429360185    -0.386809933709    15.994914619570
         O           -0.568328611393    -0.406380139815     1.436976466291    15.994914619570
         O           -0.354823011393    -1.174497639815    -1.004453933709    15.994914619570
         C            1.115481988607     0.852817360185    -0.172266933709    12.000000000000
         C            2.354661988607    -0.001599639815     0.067461066291    12.000000000000
         H            1.084428988607     1.260290360185    -1.185826933709     1.007825032230
         H            1.030010988607     1.672862360185     0.544164066291     1.007825032230
         H            3.247073988607     0.619145360185    -0.036819933709     1.007825032230
         H            2.342313988607    -0.424975639815     1.074003066291     1.007825032230
         H            2.407170988607    -0.815756639815    -0.657354933709     1.007825032230
         H           -2.155768011393     0.974919360185     0.316478066291     1.007825032230

  Basis Set: AUG-CC-PVTZ
    Blend: AUG-CC-PVTZ
  Basis Set: (AUG-CC-PVTZ AUX)
    Blend: AUG-CC-PVTZ-JKFIT
	 Reference Energy          =    -701.4438324255884254 [Eh]
	 Singles Energy            =      -0.0000000000000000 [Eh]
	 Same-Spin Energy          =      -0.3550998164060271 [Eh]
	 Opposite-Spin Energy      =      -1.0623467870345087 [Eh]
	 Correlation Energy        =      -1.4174466034405357 [Eh]
	 Total Energy              =    -702.8612790290289922 [Eh]

	 ================> DF-SCS-MP2 Energies <==================
	-----------------------------------------------------------
	 SCS Same-Spin Scale       =       0.3333333333333333 [-]
	 SCS Opposite-Spin Scale   =       1.2000000000000000 [-]
	 SCS Same-Spin Energy      =      -0.1183666054686757 [Eh]
	 SCS Opposite-Spin Energy  =      -1.2748161444414103 [Eh]
	 SCS Correlation Energy    =      -1.3931827499100859 [Eh]
	 SCS Total Energy          =    -702.8370151754985500 [Eh]
	-----------------------------------------------------------

  Dipole Moment: [D]
     X:     1.5206      Y:     2.8787      Z:     0.2024     Total:     3.2620

*** Psi4 exiting successfully. Buy a developer a beer!
