                               Psi4 1.3.2 release

  ==> Input File <==

--------------------------------------------------------------------------
#psi4
#
memory 32 gb

molecule  {
0 1
  S       -0.4214780    -0.1554040     0.0158080
  O       -1.5192774     0.9828737    -0.4390935
  O       -0.6402970    -0.4772220     1.4269040
  O       -0.4220170    -1.1957040    -1.0033910
  C        1.0482880     0.8316110    -0.1712040
  C        2.2874680    -0.0228060     0.0685240
  H        1.0172350     1.2390840    -1.1847640
  H        0.9628170     1.6516560     0.5452270
  H        3.1798800     0.5979390    -0.0357570
  H        2.2751200    -0.4461820     1.0750660
  H        2.3399770    -0.8369630    -0.6562920
  H       -2.2229620     0.9537130     0.3175410
units angstrom
no_reorient  #important for SAPT in psi4, default
symmetry c1  #important for SAPT in psi4, default
}

set PROPERTIES_ORIGIN ["COM"]
properties('MP2/aug-cc-pvtz', properties = ['dipole'])
--------------------------------------------------------------------------

    Molecular point group: c1
  Charge       = 0
  Multiplicity = 1
  Basis Set: AUG-CC-PVTZ
    Blend: AUG-CC-PVTZ
  Basis Set: (AUG-CC-PVTZ AUX)
    Blend: AUG-CC-PVTZ-JKFIT

    Orbital Energies [Eh]
    ---------------------

    Doubly Occupied:

       1A    -92.226926     2A    -20.641676     3A    -20.571332
       4A    -20.562210     5A    -11.291280     6A    -11.249708
       7A     -9.191200     8A     -6.876786     9A     -6.875201
      10A     -6.874968    11A     -1.493967    12A     -1.379560
      13A     -1.352837    14A     -1.095778    15A     -0.941567
      16A     -0.832666    17A     -0.739862    18A     -0.712288
      19A     -0.686617    20A     -0.658119    21A     -0.631153
      22A     -0.596256    23A     -0.569664    24A     -0.554588
      25A     -0.539159    26A     -0.522628    27A     -0.503545
      28A     -0.483715    29A     -0.474244

  @DF-RHF Final Energy:  -701.43825071594074

   => Energetics <=

    Nuclear Repulsion Energy =            356.9688126004107858
    One-Electron Energy =               -1674.5551235313230336
    Two-Electron Energy =                 616.1480602149715651
    Total Energy =                       -701.4382507159407396
  Basis Set: (AUG-CC-PVTZ AUX)
    Blend: AUG-CC-PVTZ-RI
    Molecular point group: c1

    Geometry (in Angstrom), charge = 0, multiplicity = 1:

       Center              X                  Y                   Z               Mass
    ------------   -----------------  -----------------  -----------------  -----------------
         S           -0.356683631755    -0.127075086400     0.024120949770    31.972071174400
         O           -1.454483031755     1.011202613600    -0.430780550230    15.994914619570
         O           -0.575502631755    -0.448893086400     1.435216949770    15.994914619570
         O           -0.357222631755    -1.167375086400    -0.995078050230    15.994914619570
         C            1.113082368245     0.859939913600    -0.162891050230    12.000000000000
         C            2.352262368245     0.005522913600     0.076836949770    12.000000000000
         H            1.082029368245     1.267412913600    -1.176451050230     1.007825032230
         H            1.027611368245     1.679984913600     0.553539949770     1.007825032230
         H            3.244674368245     0.626267913600    -0.027444050230     1.007825032230
         H            2.339914368245    -0.417853086400     1.083378949770     1.007825032230
         H            2.404771368245    -0.808634086400    -0.647979050230     1.007825032230
         H           -2.158167631755     0.982041913600     0.325853949770     1.007825032230

  Basis Set: AUG-CC-PVTZ
    Blend: AUG-CC-PVTZ
  Basis Set: (AUG-CC-PVTZ AUX)
    Blend: AUG-CC-PVTZ-JKFIT
	 Reference Energy          =    -701.4382507159407396 [Eh]
	 Singles Energy            =      -0.0000000000000000 [Eh]
	 Same-Spin Energy          =      -0.3559194731831761 [Eh]
	 Opposite-Spin Energy      =      -1.0642056321867503 [Eh]
	 Correlation Energy        =      -1.4201251053699264 [Eh]
	 Total Energy              =    -702.8583758213106876 [Eh]

	 ================> DF-SCS-MP2 Energies <==================
	-----------------------------------------------------------
	 SCS Same-Spin Scale       =       0.3333333333333333 [-]
	 SCS Opposite-Spin Scale   =       1.2000000000000000 [-]
	 SCS Same-Spin Energy      =      -0.1186398243943920 [Eh]
	 SCS Opposite-Spin Energy  =      -1.2770467586241003 [Eh]
	 SCS Correlation Energy    =      -1.3956865830184924 [Eh]
	 SCS Total Energy          =    -702.8339372989591993 [Eh]
	-----------------------------------------------------------

  Dipole Moment: [D]
     X:     1.4490      Y:     3.0370      Z:     0.3409     Total:     3.3822

*** Psi4 exiting successfully. Buy a developer a beer!
