                               Psi4 1.3.2 release

  ==> Input File <==

--------------------------------------------------------------------------
#psi4
#
memory 32 gb

molecule  {
0 1
  S       -0.3085698    -0.2988770     0.0531132
  O       -1.5405550     0.9822230    -0.3857470
  O       -0.6402970    -0.4772220     1.4269040
  O       -0.4220170    -1.1957040    -1.0033910
  C        1.0482880     0.8316110    -0.1712040
  C        2.2874680    -0.0228060     0.0685240
  H        1.0172350     1.2390840    -1.1847640
  H        0.9628170     1.6516560     0.5452270
  H        3.1798800     0.5979390    -0.0357570
  H        2.2751200    -0.4461820     1.0750660
  H        2.3399770    -0.8369630    -0.6562920
  H       -2.2229620     0.9537130     0.3175410
units angstrom
no_reorient  #important for SAPT in psi4, default
symmetry c1  #important for SAPT in psi4, default
}

set PROPERTIES_ORIGIN ["COM"]
properties('MP2/aug-cc-pvtz', properties = ['dipole'])
--------------------------------------------------------------------------

    Molecular point group: c1
  Charge       = 0
  Multiplicity = 1
  Basis Set: AUG-CC-PVTZ
    Blend: AUG-CC-PVTZ
  Basis Set: (AUG-CC-PVTZ AUX)
    Blend: AUG-CC-PVTZ-JKFIT

    Orbital Energies [Eh]
    ---------------------

    Doubly Occupied:

       1A    -92.227621     2A    -20.591495     3A    -20.586234
       4A    -20.574589     5A    -11.298682     6A    -11.257566
       7A     -9.194248     8A     -6.879555     9A     -6.878512
      10A     -6.877593    11A     -1.515639    12A     -1.402915
      13A     -1.316682    14A     -1.106755    15A     -0.937113
      16A     -0.826659    17A     -0.729438    18A     -0.711983
      19A     -0.697650    20A     -0.656972    21A     -0.629931
      22A     -0.595813    23A     -0.573964    24A     -0.552576
      25A     -0.546280    26A     -0.527487    27A     -0.513839
      28A     -0.490554    29A     -0.465679

  @DF-RHF Final Energy:  -701.41078121086696

   => Energetics <=

    Nuclear Repulsion Energy =            357.0859908690835596
    One-Electron Energy =               -1674.6654966690766742
    Two-Electron Energy =                 616.1687245891261000
    Total Energy =                       -701.4107812108669577
  Basis Set: (AUG-CC-PVTZ AUX)
    Blend: AUG-CC-PVTZ-RI
    Molecular point group: c1

    Geometry (in Angstrom), charge = 0, multiplicity = 1:

       Center              X                  Y                   Z               Mass
    ------------   -----------------  -----------------  -----------------  -----------------
         S           -0.273497829025    -0.228753727370     0.042826811664    31.972071174400
         O           -1.505483029025     1.052346272630    -0.396033388336    15.994914619570
         O           -0.605225029025    -0.407098727370     1.416617611664    15.994914619570
         O           -0.386945029025    -1.125580727370    -1.013677388336    15.994914619570
         C            1.083359970975     0.901734272630    -0.181490388336    12.000000000000
         C            2.322539970975     0.047317272630     0.058237611664    12.000000000000
         H            1.052306970975     1.309207272630    -1.195050388336     1.007825032230
         H            0.997888970975     1.721779272630     0.534940611664     1.007825032230
         H            3.214951970975     0.668062272630    -0.046043388336     1.007825032230
         H            2.310191970975    -0.376058727370     1.064779611664     1.007825032230
         H            2.375048970975    -0.766839727370    -0.666578388336     1.007825032230
         H           -2.187890029025     1.023836272630     0.307254611664     1.007825032230

  Basis Set: AUG-CC-PVTZ
    Blend: AUG-CC-PVTZ
  Basis Set: (AUG-CC-PVTZ AUX)
    Blend: AUG-CC-PVTZ-JKFIT
	 Reference Energy          =    -701.4107812108669577 [Eh]
	 Singles Energy            =      -0.0000000000000000 [Eh]
	 Same-Spin Energy          =      -0.3559655877546449 [Eh]
	 Opposite-Spin Energy      =      -1.0662533458900043 [Eh]
	 Correlation Energy        =      -1.4222189336446491 [Eh]
	 Total Energy              =    -702.8330001445116295 [Eh]

	 ================> DF-SCS-MP2 Energies <==================
	-----------------------------------------------------------
	 SCS Same-Spin Scale       =       0.3333333333333333 [-]
	 SCS Opposite-Spin Scale   =       1.2000000000000000 [-]
	 SCS Same-Spin Energy      =      -0.1186551959182150 [Eh]
	 SCS Opposite-Spin Energy  =      -1.2795040150680050 [Eh]
	 SCS Correlation Energy    =      -1.3981592109862200 [Eh]
	 SCS Total Energy          =    -702.8089404218532081 [Eh]
	-----------------------------------------------------------

  Dipole Moment: [D]
     X:     2.7843      Y:     1.5646      Z:     0.5309     Total:     3.2376

*** Psi4 exiting successfully. Buy a developer a beer!
