                               Psi4 1.3.2 release

  ==> Input File <==

--------------------------------------------------------------------------
#psi4
#
memory 32 gb

molecule  {
0 1
  S       -0.4214780    -0.1554040     0.0158080
  O       -1.5405550     0.9822230    -0.3857470
  O       -0.7239926    -0.5284945     1.3985332
  O       -0.4220170    -1.1957040    -1.0033910
  C        1.0482880     0.8316110    -0.1712040
  C        2.2874680    -0.0228060     0.0685240
  H        1.0172350     1.2390840    -1.1847640
  H        0.9628170     1.6516560     0.5452270
  H        3.1798800     0.5979390    -0.0357570
  H        2.2751200    -0.4461820     1.0750660
  H        2.3399770    -0.8369630    -0.6562920
  H       -2.2229620     0.9537130     0.3175410
units angstrom
no_reorient  #important for SAPT in psi4, default
symmetry c1  #important for SAPT in psi4, default
}

set PROPERTIES_ORIGIN ["COM"]
properties('MP2/aug-cc-pvtz', properties = ['dipole'])
--------------------------------------------------------------------------

    Molecular point group: c1
  Charge       = 0
  Multiplicity = 1
  Basis Set: AUG-CC-PVTZ
    Blend: AUG-CC-PVTZ
  Basis Set: (AUG-CC-PVTZ AUX)
    Blend: AUG-CC-PVTZ-JKFIT

    Orbital Energies [Eh]
    ---------------------

    Doubly Occupied:

       1A    -92.227141     2A    -20.632940     3A    -20.566750
       4A    -20.560626     5A    -11.297830     6A    -11.253568
       7A     -9.191399     8A     -6.876999     9A     -6.875312
      10A     -6.875217    11A     -1.495168    12A     -1.383490
      13A     -1.348304    14A     -1.101492    15A     -0.947432
      16A     -0.838261    17A     -0.746984    18A     -0.711537
      19A     -0.687670    20A     -0.660957    21A     -0.630572
      22A     -0.597625    23A     -0.569868    24A     -0.557653
      25A     -0.542537    26A     -0.519869    27A     -0.501093
      28A     -0.483262    29A     -0.475412

  @DF-RHF Final Energy:  -701.44430957554141

   => Energetics <=

    Nuclear Repulsion Energy =            356.9255076975729253
    One-Electron Energy =               -1674.4256952046632705
    Two-Electron Energy =                 616.0558779315488209
    Total Energy =                       -701.4443095755414106
  Basis Set: (AUG-CC-PVTZ AUX)
    Blend: AUG-CC-PVTZ-RI
    Molecular point group: c1

    Geometry (in Angstrom), charge = 0, multiplicity = 1:

       Center              X                  Y                   Z               Mass
    ------------   -----------------  -----------------  -----------------  -----------------
         S           -0.341420178110    -0.119525279818     0.020489399629    31.972071174400
         O           -1.460497178110     1.018101720182    -0.381065600371    15.994914619570
         O           -0.643934778110    -0.492615779818     1.403214599629    15.994914619570
         O           -0.341959178110    -1.159825279818    -0.998709600371    15.994914619570
         C            1.128345821890     0.867489720182    -0.166522600371    12.000000000000
         C            2.367525821890     0.013072720182     0.073205399629    12.000000000000
         H            1.097292821890     1.274962720182    -1.180082600371     1.007825032230
         H            1.042874821890     1.687534720182     0.549908399629     1.007825032230
         H            3.259937821890     0.633817720182    -0.031075600371     1.007825032230
         H            2.355177821890    -0.410303279818     1.079747399629     1.007825032230
         H            2.420034821890    -0.801084279818    -0.651610600371     1.007825032230
         H           -2.142904178110     0.989591720182     0.322222399629     1.007825032230

  Basis Set: AUG-CC-PVTZ
    Blend: AUG-CC-PVTZ
  Basis Set: (AUG-CC-PVTZ AUX)
    Blend: AUG-CC-PVTZ-JKFIT
	 Reference Energy          =    -701.4443095755414106 [Eh]
	 Singles Energy            =      -0.0000000000000000 [Eh]
	 Same-Spin Energy          =      -0.3548310581516874 [Eh]
	 Opposite-Spin Energy      =      -1.0616997006491493 [Eh]
	 Correlation Energy        =      -1.4165307588008367 [Eh]
	 Total Energy              =    -702.8608403343422424 [Eh]

	 ================> DF-SCS-MP2 Energies <==================
	-----------------------------------------------------------
	 SCS Same-Spin Scale       =       0.3333333333333333 [-]
	 SCS Opposite-Spin Scale   =       1.2000000000000000 [-]
	 SCS Same-Spin Energy      =      -0.1182770193838958 [Eh]
	 SCS Opposite-Spin Energy  =      -1.2740396407789791 [Eh]
	 SCS Correlation Energy    =      -1.3923166601628749 [Eh]
	 SCS Total Energy          =    -702.8366262357043297 [Eh]
	-----------------------------------------------------------

  Dipole Moment: [D]
     X:     1.7942      Y:     3.1416      Z:     0.2898     Total:     3.6295

*** Psi4 exiting successfully. Buy a developer a beer!
