                               Psi4 1.3.2 release

  ==> Input File <==

--------------------------------------------------------------------------
#psi4
#
memory 32 gb

molecule  {
0 1
  S       -0.4214780    -0.1554040     0.0158080
  O       -1.5405550     0.9822230    -0.3857470
  O       -0.6402970    -0.4772220     1.4269040
  O       -0.4220170    -1.1957040    -1.0033910
  C        0.9657297     0.7761693    -0.1606993
  C        2.2874680    -0.0228060     0.0685240
  H        1.0172350     1.2390840    -1.1847640
  H        0.9628170     1.6516560     0.5452270
  H        3.1798800     0.5979390    -0.0357570
  H        2.2751200    -0.4461820     1.0750660
  H        2.3399770    -0.8369630    -0.6562920
  H       -2.2229620     0.9537130     0.3175410
units angstrom
no_reorient  #important for SAPT in psi4, default
symmetry c1  #important for SAPT in psi4, default
}

set PROPERTIES_ORIGIN ["COM"]
properties('MP2/aug-cc-pvtz', properties = ['dipole'])
--------------------------------------------------------------------------

    Molecular point group: c1
  Charge       = 0
  Multiplicity = 1
  Basis Set: AUG-CC-PVTZ
    Blend: AUG-CC-PVTZ
  Basis Set: (AUG-CC-PVTZ AUX)
    Blend: AUG-CC-PVTZ-JKFIT

    Orbital Energies [Eh]
    ---------------------

    Doubly Occupied:

       1A    -92.229699     2A    -20.635814     3A    -20.567783
       4A    -20.564448     5A    -11.291325     6A    -11.254936
       7A     -9.194676     8A     -6.880303     9A     -6.878953
      10A     -6.878474    11A     -1.499356    12A     -1.386745
      13A     -1.353255    14A     -1.102869    15A     -0.954405
      16A     -0.832786    17A     -0.753347    18A     -0.714985
      19A     -0.688710    20A     -0.655695    21A     -0.627845
      22A     -0.598004    23A     -0.571213    24A     -0.540799
      25A     -0.536236    26A     -0.523187    27A     -0.501652
      28A     -0.492450    29A     -0.480780

  @DF-RHF Final Energy:  -701.43512011971359

   => Energetics <=

    Nuclear Repulsion Energy =            359.2603485259630816
    One-Electron Energy =               -1679.0094812074153197
    Two-Electron Energy =                 618.3140125617386502
    Total Energy =                       -701.4351201197135879
  Basis Set: (AUG-CC-PVTZ AUX)
    Blend: AUG-CC-PVTZ-RI
    Molecular point group: c1

    Geometry (in Angstrom), charge = 0, multiplicity = 1:

       Center              X                  Y                   Z               Mass
    ------------   -----------------  -----------------  -----------------  -----------------
         S           -0.344583745969    -0.120932494012     0.015218262569    31.972071174400
         O           -1.463660745969     1.016694505988    -0.386336737431    15.994914619570
         O           -0.563402745969    -0.442750494012     1.426314262569    15.994914619570
         O           -0.345122745969    -1.161232494012    -1.003980737431    15.994914619570
         C            1.042623954031     0.810640805988    -0.161289037431    12.000000000000
         C            2.364362254031     0.011665505988     0.067934262569    12.000000000000
         H            1.094129254031     1.273555505988    -1.185353737431     1.007825032230
         H            1.039711254031     1.686127505988     0.544637262569     1.007825032230
         H            3.256774254031     0.632410505988    -0.036346737431     1.007825032230
         H            2.352014254031    -0.411710494012     1.074476262569     1.007825032230
         H            2.416871254031    -0.802491494012    -0.656881737431     1.007825032230
         H           -2.146067745969     0.988184505988     0.316951262569     1.007825032230

  Basis Set: AUG-CC-PVTZ
    Blend: AUG-CC-PVTZ
  Basis Set: (AUG-CC-PVTZ AUX)
    Blend: AUG-CC-PVTZ-JKFIT
	 Reference Energy          =    -701.4351201197135879 [Eh]
	 Singles Energy            =      -0.0000000000000000 [Eh]
	 Same-Spin Energy          =      -0.3555560621517264 [Eh]
	 Opposite-Spin Energy      =      -1.0626386553368112 [Eh]
	 Correlation Energy        =      -1.4181947174885376 [Eh]
	 Total Energy              =    -702.8533148372021060 [Eh]

	 ================> DF-SCS-MP2 Energies <==================
	-----------------------------------------------------------
	 SCS Same-Spin Scale       =       0.3333333333333333 [-]
	 SCS Opposite-Spin Scale   =       1.2000000000000000 [-]
	 SCS Same-Spin Energy      =      -0.1185186873839088 [Eh]
	 SCS Opposite-Spin Energy  =      -1.2751663864041733 [Eh]
	 SCS Correlation Energy    =      -1.3936850737880822 [Eh]
	 SCS Total Energy          =    -702.8288051935016938 [Eh]
	-----------------------------------------------------------

  Dipole Moment: [D]
     X:     1.6214      Y:     3.0670      Z:     0.2254     Total:     3.4766

*** Psi4 exiting successfully. Buy a developer a beer!
