                               Psi4 1.3.2 release

  ==> Input File <==

--------------------------------------------------------------------------
#psi4
#
memory 32 gb

molecule  {
0 1
  S       -0.4214780    -0.1554040     0.0158080
  O       -1.5405550     0.9822230    -0.3857470
  O       -0.6253481    -0.4552365     1.3305029
  O       -0.4220170    -1.1957040    -1.0033910
  C        1.0482880     0.8316110    -0.1712040
  C        2.2874680    -0.0228060     0.0685240
  H        1.0172350     1.2390840    -1.1847640
  H        0.9628170     1.6516560     0.5452270
  H        3.1798800     0.5979390    -0.0357570
  H        2.2751200    -0.4461820     1.0750660
  H        2.3399770    -0.8369630    -0.6562920
  H       -2.2229620     0.9537130     0.3175410
units angstrom
no_reorient  #important for SAPT in psi4, default
symmetry c1  #important for SAPT in psi4, default
}

set PROPERTIES_ORIGIN ["COM"]
properties('MP2/aug-cc-pvtz', properties = ['dipole'])
--------------------------------------------------------------------------

    Molecular point group: c1
  Charge       = 0
  Multiplicity = 1
  Basis Set: AUG-CC-PVTZ
    Blend: AUG-CC-PVTZ
  Basis Set: (AUG-CC-PVTZ AUX)
    Blend: AUG-CC-PVTZ-JKFIT

    Orbital Energies [Eh]
    ---------------------

    Doubly Occupied:

       1A    -92.215566     2A    -20.627513     3A    -20.570134
       4A    -20.555362     5A    -11.286025     6A    -11.248490
       7A     -9.182684     8A     -6.868373     9A     -6.867351
      10A     -6.866063    11A     -1.527879    12A     -1.397202
      13A     -1.363762    14A     -1.092840    15A     -0.939537
      16A     -0.832690    17A     -0.747536    18A     -0.719257
      19A     -0.695240    20A     -0.661935    21A     -0.640493
      22A     -0.593562    23A     -0.576907    24A     -0.553445
      25A     -0.538785    26A     -0.533980    27A     -0.507549
      28A     -0.487238    29A     -0.473592

  @DF-RHF Final Energy:  -701.44343165305236

   => Energetics <=

    Nuclear Repulsion Energy =            361.9880499787440158
    One-Electron Energy =               -1684.5209862837612036
    Two-Electron Energy =                 621.0895046519649441
    Total Energy =                       -701.4434316530523574
  Basis Set: (AUG-CC-PVTZ AUX)
    Blend: AUG-CC-PVTZ-RI
    Molecular point group: c1

    Geometry (in Angstrom), charge = 0, multiplicity = 1:

       Center              X                  Y                   Z               Mass
    ------------   -----------------  -----------------  -----------------  -----------------
         S           -0.355763417652    -0.130177237529     0.030381232312    31.972071174400
         O           -1.474840417652     1.007449762471    -0.371173767688    15.994914619570
         O           -0.559633517652    -0.430009737529     1.345076132312    15.994914619570
         O           -0.356302417652    -1.170477237529    -0.988817767688    15.994914619570
         C            1.114002582348     0.856837762471    -0.156630767688    12.000000000000
         C            2.353182582348     0.002420762471     0.083097232312    12.000000000000
         H            1.082949582348     1.264310762471    -1.170190767688     1.007825032230
         H            1.028531582348     1.676882762471     0.559800232312     1.007825032230
         H            3.245594582348     0.623165762471    -0.021183767688     1.007825032230
         H            2.340834582348    -0.420955237529     1.089639232312     1.007825032230
         H            2.405691582348    -0.811736237529    -0.641718767688     1.007825032230
         H           -2.157247417652     0.978939762471     0.332114232312     1.007825032230

  Basis Set: AUG-CC-PVTZ
    Blend: AUG-CC-PVTZ
  Basis Set: (AUG-CC-PVTZ AUX)
    Blend: AUG-CC-PVTZ-JKFIT
	 Reference Energy          =    -701.4434316530523574 [Eh]
	 Singles Energy            =      -0.0000000000000000 [Eh]
	 Same-Spin Energy          =      -0.3525540774240545 [Eh]
	 Opposite-Spin Energy      =      -1.0562413632916208 [Eh]
	 Correlation Energy        =      -1.4087954407156753 [Eh]
	 Total Energy              =    -702.8522270937680787 [Eh]

	 ================> DF-SCS-MP2 Energies <==================
	-----------------------------------------------------------
	 SCS Same-Spin Scale       =       0.3333333333333333 [-]
	 SCS Opposite-Spin Scale   =       1.2000000000000000 [-]
	 SCS Same-Spin Energy      =      -0.1175180258080182 [Eh]
	 SCS Opposite-Spin Energy  =      -1.2674896359499448 [Eh]
	 SCS Correlation Energy    =      -1.3850076617579630 [Eh]
	 SCS Total Energy          =    -702.8284393148103391 [Eh]
	-----------------------------------------------------------

  Dipole Moment: [D]
     X:     1.4277      Y:     2.8553      Z:     0.7544     Total:     3.2803

*** Psi4 exiting successfully. Buy a developer a beer!
