                               Psi4 1.3.2 release

  ==> Input File <==

--------------------------------------------------------------------------
#psi4
#
memory 32 gb

molecule  {
0 1
  S       -0.4555917    -0.1050954     0.0028968
  O       -1.5405550     0.9822230    -0.3857470
  O       -0.6402970    -0.4772220     1.4269040
  O       -0.4220170    -1.1957040    -1.0033910
  C        1.0482880     0.8316110    -0.1712040
  C        2.2874680    -0.0228060     0.0685240
  H        1.0172350     1.2390840    -1.1847640
  H        0.9628170     1.6516560     0.5452270
  H        3.1798800     0.5979390    -0.0357570
  H        2.2751200    -0.4461820     1.0750660
  H        2.3399770    -0.8369630    -0.6562920
  H       -2.2229620     0.9537130     0.3175410
units angstrom
no_reorient  #important for SAPT in psi4, default
symmetry c1  #important for SAPT in psi4, default
}

set PROPERTIES_ORIGIN ["COM"]
properties('MP2/aug-cc-pvtz', properties = ['dipole'])
--------------------------------------------------------------------------

    Molecular point group: c1
  Charge       = 0
  Multiplicity = 1
  Basis Set: AUG-CC-PVTZ
    Blend: AUG-CC-PVTZ
  Basis Set: (AUG-CC-PVTZ AUX)
    Blend: AUG-CC-PVTZ-JKFIT

    Orbital Energies [Eh]
    ---------------------

    Doubly Occupied:

       1A    -92.228521     2A    -20.654869     3A    -20.562590
       4A    -20.556174     5A    -11.292304     6A    -11.249284
       7A     -9.192523     8A     -6.878234     9A     -6.876529
      10A     -6.876114    11A     -1.509700    12A     -1.391119
      13A     -1.332772    14A     -1.095457    15A     -0.950707
      16A     -0.849509    17A     -0.756657    18A     -0.718894
      19A     -0.690390    20A     -0.660563    21A     -0.628310
      22A     -0.598225    23A     -0.568532    24A     -0.558437
      25A     -0.537555    26A     -0.520495    27A     -0.493627
      28A     -0.474232    29A     -0.468431

  @DF-RHF Final Energy:  -701.44079429418878

   => Energetics <=

    Nuclear Repulsion Energy =            357.0659115128844974
    One-Electron Energy =               -1674.6718986625039634
    Two-Electron Energy =                 616.1651928554307460
    Total Energy =                       -701.4407942941887768
  Basis Set: (AUG-CC-PVTZ AUX)
    Blend: AUG-CC-PVTZ-RI
    Molecular point group: c1

    Geometry (in Angstrom), charge = 0, multiplicity = 1:

       Center              X                  Y                   Z               Mass
    ------------   -----------------  -----------------  -----------------  -----------------
         S           -0.377788513041    -0.091293827766     0.007205569490    31.972071174400
         O           -1.462751813041     0.996024572234    -0.381438230510    15.994914619570
         O           -0.562493813041    -0.463420427766     1.431212769490    15.994914619570
         O           -0.344213813041    -1.181902427766    -0.999082230510    15.994914619570
         C            1.126091186959     0.845412572234    -0.166895230510    12.000000000000
         C            2.365271186959    -0.009004427766     0.072832769490    12.000000000000
         H            1.095038186959     1.252885572234    -1.180455230510     1.007825032230
         H            1.040620186959     1.665457572234     0.549535769490     1.007825032230
         H            3.257683186959     0.611740572234    -0.031448230510     1.007825032230
         H            2.352923186959    -0.432380427766     1.079374769490     1.007825032230
         H            2.417780186959    -0.823161427766    -0.651983230510     1.007825032230
         H           -2.145158813041     0.967514572234     0.321849769490     1.007825032230

  Basis Set: AUG-CC-PVTZ
    Blend: AUG-CC-PVTZ
  Basis Set: (AUG-CC-PVTZ AUX)
    Blend: AUG-CC-PVTZ-JKFIT
	 Reference Energy          =    -701.4407942941887768 [Eh]
	 Singles Energy            =      -0.0000000000000000 [Eh]
	 Same-Spin Energy          =      -0.3551598141897069 [Eh]
	 Opposite-Spin Energy      =      -1.0618051723897974 [Eh]
	 Correlation Energy        =      -1.4169649865795044 [Eh]
	 Total Energy              =    -702.8577592807682777 [Eh]

	 ================> DF-SCS-MP2 Energies <==================
	-----------------------------------------------------------
	 SCS Same-Spin Scale       =       0.3333333333333333 [-]
	 SCS Opposite-Spin Scale   =       1.2000000000000000 [-]
	 SCS Same-Spin Energy      =      -0.1183866047299023 [Eh]
	 SCS Opposite-Spin Energy  =      -1.2741662068677568 [Eh]
	 SCS Correlation Energy    =      -1.3925528115976591 [Eh]
	 SCS Total Energy          =    -702.8333471057864017 [Eh]
	-----------------------------------------------------------

  Dipole Moment: [D]
     X:     1.1687      Y:     3.5012      Z:     0.1450     Total:     3.6940

*** Psi4 exiting successfully. Buy a developer a beer!
