                               Psi4 1.3.2 release

  ==> Input File <==

--------------------------------------------------------------------------
#psi4
#
memory 32 gb

molecule  {
0 1
  S       -0.4214780    -0.1554040     0.0158080
  O       -1.5405550     0.9822230    -0.3857470
  O       -0.5128836    -0.3974537     1.4565361
  O       -0.4220170    -1.1957040    -1.0033910
  C        1.0482880     0.8316110    -0.1712040
  C        2.2874680    -0.0228060     0.0685240
  H        1.0172350     1.2390840    -1.1847640
  H        0.9628170     1.6516560     0.5452270
  H        3.1798800     0.5979390    -0.0357570
  H        2.2751200    -0.4461820     1.0750660
  H        2.3399770    -0.8369630    -0.6562920
  H       -2.2229620     0.9537130     0.3175410
units angstrom
no_reorient  #important for SAPT in psi4, default
symmetry c1  #important for SAPT in psi4, default
}

set PROPERTIES_ORIGIN ["COM"]
properties('MP2/aug-cc-pvtz', properties = ['dipole'])
--------------------------------------------------------------------------

    Molecular point group: c1
  Charge       = 0
  Multiplicity = 1
  Basis Set: AUG-CC-PVTZ
    Blend: AUG-CC-PVTZ
  Basis Set: (AUG-CC-PVTZ AUX)
    Blend: AUG-CC-PVTZ-JKFIT

    Orbital Energies [Eh]
    ---------------------

    Doubly Occupied:

       1A    -92.228926     2A    -20.640655     3A    -20.570820
       4A    -20.569541     5A    -11.284929     6A    -11.246368
       7A     -9.192950     8A     -6.878532     9A     -6.877047
      10A     -6.876649    11A     -1.497938    12A     -1.389662
      13A     -1.358028    14A     -1.090455    15A     -0.941503
      16A     -0.837882    17A     -0.749519    18A     -0.712609
      19A     -0.688558    20A     -0.656204    21A     -0.632334
      22A     -0.597393    23A     -0.569967    24A     -0.553100
      25A     -0.536375    26A     -0.523949    27A     -0.507934
      28A     -0.487021    29A     -0.470559

  @DF-RHF Final Energy:  -701.44043844867099

   => Energetics <=

    Nuclear Repulsion Energy =            357.5896968564879330
    One-Electron Energy =               -1675.7254551597945920
    Two-Electron Energy =                 616.6953198546356134
    Total Energy =                       -701.4404384486709887
  Basis Set: (AUG-CC-PVTZ AUX)
    Blend: AUG-CC-PVTZ-RI
    Molecular point group: c1

    Geometry (in Angstrom), charge = 0, multiplicity = 1:

       Center              X                  Y                   Z               Mass
    ------------   -----------------  -----------------  -----------------  -----------------
         S           -0.372116131321    -0.138579049508     0.012055584375    31.972071174400
         O           -1.491193131321     0.999047950492    -0.389499415625    15.994914619570
         O           -0.463521731321    -0.380628749508     1.452783684375    15.994914619570
         O           -0.372655131321    -1.178879049508    -1.007143415625    15.994914619570
         C            1.097649868679     0.848435950492    -0.174956415625    12.000000000000
         C            2.336829868679    -0.005981049508     0.064771584375    12.000000000000
         H            1.066596868679     1.255908950492    -1.188516415625     1.007825032230
         H            1.012178868679     1.668480950492     0.541474584375     1.007825032230
         H            3.229241868679     0.614763950492    -0.039509415625     1.007825032230
         H            2.324481868679    -0.429357049508     1.071313584375     1.007825032230
         H            2.389338868679    -0.820138049508    -0.660044415625     1.007825032230
         H           -2.173600131321     0.970537950492     0.313788584375     1.007825032230

  Basis Set: AUG-CC-PVTZ
    Blend: AUG-CC-PVTZ
  Basis Set: (AUG-CC-PVTZ AUX)
    Blend: AUG-CC-PVTZ-JKFIT
	 Reference Energy          =    -701.4404384486709887 [Eh]
	 Singles Energy            =      -0.0000000000000000 [Eh]
	 Same-Spin Energy          =      -0.3554838018918248 [Eh]
	 Opposite-Spin Energy      =      -1.0632307503125544 [Eh]
	 Correlation Energy        =      -1.4187145522043791 [Eh]
	 Total Energy              =    -702.8591530008753807 [Eh]

	 ================> DF-SCS-MP2 Energies <==================
	-----------------------------------------------------------
	 SCS Same-Spin Scale       =       0.3333333333333333 [-]
	 SCS Opposite-Spin Scale   =       1.2000000000000000 [-]
	 SCS Same-Spin Energy      =      -0.1184946006306083 [Eh]
	 SCS Opposite-Spin Energy  =      -1.2758769003750652 [Eh]
	 SCS Correlation Energy    =      -1.3943715010056734 [Eh]
	 SCS Total Energy          =    -702.8348099496766963 [Eh]
	-----------------------------------------------------------

  Dipole Moment: [D]
     X:     1.1376      Y:     2.7923      Z:     0.1896     Total:     3.0211

*** Psi4 exiting successfully. Buy a developer a beer!
