                               Psi4 1.3.2 release

  ==> Input File <==

--------------------------------------------------------------------------
#psi4
#
memory 32 gb

molecule  {
0 1
  S       -0.4214780    -0.1554040     0.0158080
  O       -1.6216690     0.9028114    -0.3682451
  O       -0.6402970    -0.4772220     1.4269040
  O       -0.4220170    -1.1957040    -1.0033910
  C        1.0482880     0.8316110    -0.1712040
  C        2.2874680    -0.0228060     0.0685240
  H        1.0172350     1.2390840    -1.1847640
  H        0.9628170     1.6516560     0.5452270
  H        3.1798800     0.5979390    -0.0357570
  H        2.2751200    -0.4461820     1.0750660
  H        2.3399770    -0.8369630    -0.6562920
  H       -2.2229620     0.9537130     0.3175410
units angstrom
no_reorient  #important for SAPT in psi4, default
symmetry c1  #important for SAPT in psi4, default
}

set PROPERTIES_ORIGIN ["COM"]
properties('MP2/aug-cc-pvtz', properties = ['dipole'])
--------------------------------------------------------------------------

    Molecular point group: c1
  Charge       = 0
  Multiplicity = 1
  Basis Set: AUG-CC-PVTZ
    Blend: AUG-CC-PVTZ
  Basis Set: (AUG-CC-PVTZ AUX)
    Blend: AUG-CC-PVTZ-JKFIT

    Orbital Energies [Eh]
    ---------------------

    Doubly Occupied:

       1A    -92.229226     2A    -20.626990     3A    -20.564801
       4A    -20.563357     5A    -11.297771     6A    -11.254032
       7A     -9.193089     8A     -6.878702     9A     -6.877083
      10A     -6.876883    11A     -1.499501    12A     -1.393015
      13A     -1.350874    14A     -1.100992    15A     -0.950466
      16A     -0.849092    17A     -0.758534    18A     -0.710531
      19A     -0.687597    20A     -0.661927    21A     -0.628548
      22A     -0.600601    23A     -0.569207    24A     -0.559882
      25A     -0.542818    26A     -0.518563    27A     -0.503690
      28A     -0.483421    29A     -0.476205

  @DF-RHF Final Energy:  -701.44422747130000

   => Energetics <=

    Nuclear Repulsion Energy =            357.2421142700869154
    One-Electron Energy =               -1674.9578875786405661
    Two-Electron Energy =                 616.2715458372537114
    Total Energy =                       -701.4442274712999961
  Basis Set: (AUG-CC-PVTZ AUX)
    Blend: AUG-CC-PVTZ-RI
    Molecular point group: c1

    Geometry (in Angstrom), charge = 0, multiplicity = 1:

       Center              X                  Y                   Z               Mass
    ------------   -----------------  -----------------  -----------------  -----------------
         S           -0.341795551367    -0.115433760759     0.013819355942    31.972071174400
         O           -1.541986551367     0.942781639241    -0.370233744058    15.994914619570
         O           -0.560614551367    -0.437251760759     1.424915355942    15.994914619570
         O           -0.342334551367    -1.155733760759    -1.005379644058    15.994914619570
         C            1.127970448633     0.871581239241    -0.173192644058    12.000000000000
         C            2.367150448633     0.017164239241     0.066535355942    12.000000000000
         H            1.096917448633     1.279054239241    -1.186752644058     1.007825032230
         H            1.042499448633     1.691626239241     0.543238355942     1.007825032230
         H            3.259562448633     0.637909239241    -0.037745644058     1.007825032230
         H            2.354802448633    -0.406211760759     1.073077355942     1.007825032230
         H            2.419659448633    -0.796992760759    -0.658280644058     1.007825032230
         H           -2.143279551367     0.993683239241     0.315552355942     1.007825032230

  Basis Set: AUG-CC-PVTZ
    Blend: AUG-CC-PVTZ
  Basis Set: (AUG-CC-PVTZ AUX)
    Blend: AUG-CC-PVTZ-JKFIT
	 Reference Energy          =    -701.4442274712999961 [Eh]
	 Singles Energy            =      -0.0000000000000000 [Eh]
	 Same-Spin Energy          =      -0.3538879102377379 [Eh]
	 Opposite-Spin Energy      =      -1.0596463312652045 [Eh]
	 Correlation Energy        =      -1.4135342415029424 [Eh]
	 Total Energy              =    -702.8577617128029260 [Eh]

	 ================> DF-SCS-MP2 Energies <==================
	-----------------------------------------------------------
	 SCS Same-Spin Scale       =       0.3333333333333333 [-]
	 SCS Opposite-Spin Scale   =       1.2000000000000000 [-]
	 SCS Same-Spin Energy      =      -0.1179626367459126 [Eh]
	 SCS Opposite-Spin Energy  =      -1.2715755975182452 [Eh]
	 SCS Correlation Energy    =      -1.3895382342641578 [Eh]
	 SCS Total Energy          =    -702.8337657055641330 [Eh]
	-----------------------------------------------------------

  Dipole Moment: [D]
     X:     1.8084      Y:     3.1439      Z:     0.2225     Total:     3.6337

*** Psi4 exiting successfully. Buy a developer a beer!
