                               Psi4 1.3.2 release

  ==> Input File <==

--------------------------------------------------------------------------
#psi4
#
memory 32 gb

molecule  {
0 1
  S       -0.3529601    -0.2652397    -0.1182288
  O       -1.5405550     0.9822230    -0.3857470
  O       -0.6402970    -0.4772220     1.4269040
  O       -0.4220170    -1.1957040    -1.0033910
  C        1.0482880     0.8316110    -0.1712040
  C        2.2874680    -0.0228060     0.0685240
  H        1.0172350     1.2390840    -1.1847640
  H        0.9628170     1.6516560     0.5452270
  H        3.1798800     0.5979390    -0.0357570
  H        2.2751200    -0.4461820     1.0750660
  H        2.3399770    -0.8369630    -0.6562920
  H       -2.2229620     0.9537130     0.3175410
units angstrom
no_reorient  #important for SAPT in psi4, default
symmetry c1  #important for SAPT in psi4, default
}

set PROPERTIES_ORIGIN ["COM"]
properties('MP2/aug-cc-pvtz', properties = ['dipole'])
--------------------------------------------------------------------------

    Molecular point group: c1
  Charge       = 0
  Multiplicity = 1
  Basis Set: AUG-CC-PVTZ
    Blend: AUG-CC-PVTZ
  Basis Set: (AUG-CC-PVTZ AUX)
    Blend: AUG-CC-PVTZ-JKFIT

    Orbital Energies [Eh]
    ---------------------

    Doubly Occupied:

       1A    -92.217145     2A    -20.608816     3A    -20.600527
       4A    -20.541411     5A    -11.296429     6A    -11.255019
       7A     -9.188505     8A     -6.874365     9A     -6.872453
      10A     -6.870623    11A     -1.573598    12A     -1.373918
      13A     -1.292105    14A     -1.102682    15A     -0.941383
      16A     -0.831644    17A     -0.755966    18A     -0.731276
      19A     -0.702372    20A     -0.653582    21A     -0.644792
      22A     -0.605405    23A     -0.571905    24A     -0.546754
      25A     -0.542601    26A     -0.533262    27A     -0.501246
      28A     -0.463144    29A     -0.449921

  @DF-RHF Final Energy:  -701.37431925759722

   => Energetics <=

    Nuclear Repulsion Energy =            357.6813775485454130
    One-Electron Energy =               -1675.8256965780565224
    Two-Electron Energy =                 616.7699997719138310
    Total Energy =                       -701.3743192575972216
  Basis Set: (AUG-CC-PVTZ AUX)
    Blend: AUG-CC-PVTZ-RI
    Molecular point group: c1

    Geometry (in Angstrom), charge = 0, multiplicity = 1:

       Center              X                  Y                   Z               Mass
    ------------   -----------------  -----------------  -----------------  -----------------
         S           -0.304986299455    -0.204892948633    -0.078715450955    31.972071174400
         O           -1.492581199455     1.042569751367    -0.346233650955    15.994914619570
         O           -0.592323199455    -0.416875248633     1.466417349045    15.994914619570
         O           -0.374043199455    -1.135357248633    -0.963877650955    15.994914619570
         C            1.096261800545     0.891957751367    -0.131690650955    12.000000000000
         C            2.335441800545     0.037540751367     0.108037349045    12.000000000000
         H            1.065208800545     1.299430751367    -1.145250650955     1.007825032230
         H            1.010790800545     1.712002751367     0.584740349045     1.007825032230
         H            3.227853800545     0.658285751367     0.003756349045     1.007825032230
         H            2.323093800545    -0.385835248633     1.114579349045     1.007825032230
         H            2.387950800545    -0.776616248633    -0.616778650955     1.007825032230
         H           -2.174988199455     1.014059751367     0.357054349045     1.007825032230

  Basis Set: AUG-CC-PVTZ
    Blend: AUG-CC-PVTZ
  Basis Set: (AUG-CC-PVTZ AUX)
    Blend: AUG-CC-PVTZ-JKFIT
	 Reference Energy          =    -701.3743192575972216 [Eh]
	 Singles Energy            =      -0.0000000000000000 [Eh]
	 Same-Spin Energy          =      -0.3538063642687796 [Eh]
	 Opposite-Spin Energy      =      -1.0618329761723930 [Eh]
	 Correlation Energy        =      -1.4156393404411727 [Eh]
	 Total Energy              =    -702.7899585980384245 [Eh]

	 ================> DF-SCS-MP2 Energies <==================
	-----------------------------------------------------------
	 SCS Same-Spin Scale       =       0.3333333333333333 [-]
	 SCS Opposite-Spin Scale   =       1.2000000000000000 [-]
	 SCS Same-Spin Energy      =      -0.1179354547562599 [Eh]
	 SCS Opposite-Spin Energy  =      -1.2741995714068717 [Eh]
	 SCS Correlation Energy    =      -1.3921350261631316 [Eh]
	 SCS Total Energy          =    -702.7664542837603676 [Eh]
	-----------------------------------------------------------

  Dipole Moment: [D]
     X:     2.3638      Y:     1.9579      Z:    -1.0621     Total:     3.2479

*** Psi4 exiting successfully. Buy a developer a beer!
