                               Psi4 1.3.2 release

  ==> Input File <==

--------------------------------------------------------------------------
#psi4
#
memory 32 gb

molecule  {
0 1
  S       -0.4111585    -0.1744950    -0.0064286
  O       -1.5405550     0.9822230    -0.3857470
  O       -0.6402970    -0.4772220     1.4269040
  O       -0.4220170    -1.1957040    -1.0033910
  C        1.0482880     0.8316110    -0.1712040
  C        2.2874680    -0.0228060     0.0685240
  H        1.0172350     1.2390840    -1.1847640
  H        0.9628170     1.6516560     0.5452270
  H        3.1798800     0.5979390    -0.0357570
  H        2.2751200    -0.4461820     1.0750660
  H        2.3399770    -0.8369630    -0.6562920
  H       -2.2229620     0.9537130     0.3175410
units angstrom
no_reorient  #important for SAPT in psi4, default
symmetry c1  #important for SAPT in psi4, default
}

set PROPERTIES_ORIGIN ["COM"]
properties('MP2/aug-cc-pvtz', properties = ['dipole'])
--------------------------------------------------------------------------

    Molecular point group: c1
  Charge       = 0
  Multiplicity = 1
  Basis Set: AUG-CC-PVTZ
    Blend: AUG-CC-PVTZ
  Basis Set: (AUG-CC-PVTZ AUX)
    Blend: AUG-CC-PVTZ-JKFIT

    Orbital Energies [Eh]
    ---------------------

    Doubly Occupied:

       1A    -92.227491     2A    -20.630454     3A    -20.572610
       4A    -20.563569     5A    -11.293167     6A    -11.251366
       7A     -9.191872     8A     -6.877416     9A     -6.875844
      10A     -6.875700    11A     -1.496446    12A     -1.388018
      13A     -1.349714    14A     -1.097993    15A     -0.944156
      16A     -0.836296    17A     -0.746593    18A     -0.710513
      19A     -0.688499    20A     -0.658714    21A     -0.630812
      22A     -0.598363    23A     -0.569405    24A     -0.555523
      25A     -0.540648    26A     -0.521868    27A     -0.507792
      28A     -0.484857    29A     -0.475063

  @DF-RHF Final Energy:  -701.44289452718920

   => Energetics <=

    Nuclear Repulsion Energy =            357.1562114852314380
    One-Electron Energy =               -1674.8766915290154884
    Two-Electron Energy =                 616.2775855165947405
    Total Energy =                       -701.4428945271891962
  Basis Set: (AUG-CC-PVTZ AUX)
    Blend: AUG-CC-PVTZ-RI
    Molecular point group: c1

    Geometry (in Angstrom), charge = 0, multiplicity = 1:

       Center              X                  Y                   Z               Mass
    ------------   -----------------  -----------------  -----------------  -----------------
         S           -0.346269611292    -0.140522764097     0.000590552648    31.972071174400
         O           -1.475666111292     1.016195235903    -0.378727847352    15.994914619570
         O           -0.575408111292    -0.443249764097     1.433923152648    15.994914619570
         O           -0.357128111292    -1.161731764097    -0.996371847352    15.994914619570
         C            1.113176888708     0.865583235903    -0.164184847352    12.000000000000
         C            2.352356888708     0.011166235903     0.075543152648    12.000000000000
         H            1.082123888708     1.273056235903    -1.177744847352     1.007825032230
         H            1.027705888708     1.685628235903     0.552246152648     1.007825032230
         H            3.244768888708     0.631911235903    -0.028737847352     1.007825032230
         H            2.340008888708    -0.412209764097     1.082085152648     1.007825032230
         H            2.404865888708    -0.802990764097    -0.649272847352     1.007825032230
         H           -2.158073111292     0.987685235903     0.324560152648     1.007825032230

  Basis Set: AUG-CC-PVTZ
    Blend: AUG-CC-PVTZ
  Basis Set: (AUG-CC-PVTZ AUX)
    Blend: AUG-CC-PVTZ-JKFIT
	 Reference Energy          =    -701.4428945271891962 [Eh]
	 Singles Energy            =      -0.0000000000000000 [Eh]
	 Same-Spin Energy          =      -0.3549051423933037 [Eh]
	 Opposite-Spin Energy      =      -1.0621348827751835 [Eh]
	 Correlation Energy        =      -1.4170400251684874 [Eh]
	 Total Energy              =    -702.8599345523576858 [Eh]

	 ================> DF-SCS-MP2 Energies <==================
	-----------------------------------------------------------
	 SCS Same-Spin Scale       =       0.3333333333333333 [-]
	 SCS Opposite-Spin Scale   =       1.2000000000000000 [-]
	 SCS Same-Spin Energy      =      -0.1183017141311012 [Eh]
	 SCS Opposite-Spin Energy  =      -1.2745618593302201 [Eh]
	 SCS Correlation Energy    =      -1.3928635734613213 [Eh]
	 SCS Total Energy          =    -702.8357581006505370 [Eh]
	-----------------------------------------------------------

  Dipole Moment: [D]
     X:     1.6592      Y:     2.8179      Z:     0.0185     Total:     3.2701

*** Psi4 exiting successfully. Buy a developer a beer!
