                               Psi4 1.4a3.dev225

  ==> Input File <==

--------------------------------------------------------------------------
#psi4
#
memory 32 gb

molecule  {
0 1
  S       -0.4214550    -0.1555270     0.0157730
  O       -1.5405390     0.9824510    -0.3857960
  O       -0.6405530    -0.4776100     1.4268170
  O       -0.4218140    -1.1955390    -1.0036730
  C        1.0317113     0.8206013    -0.1686981
  C        2.2874800    -0.0227220     0.0684980
  H        1.0171730     1.2397620    -1.1841120
  H        0.9625940     1.6512470     0.5461620
  H        3.1798380     0.5981340    -0.0356250
  H        2.2752130    -0.4464600     1.0748860
  H        2.3400010    -0.8366100    -0.6566250
  H       -2.2225040     0.9541210     0.3179500
units angstrom
no_reorient  #important for SAPT in psi4, default
symmetry c1  #important for SAPT in psi4, default
}

set PROPERTIES_ORIGIN ["COM"]
properties('MP2/aug-cc-pvtz', properties = ['dipole'])
--------------------------------------------------------------------------

    Molecular point group: c1
  Charge       = 0
  Multiplicity = 1
  Basis Set: AUG-CC-PVTZ
    Blend: AUG-CC-PVTZ
  Basis Set: (AUG-CC-PVTZ AUX)
    Blend: AUG-CC-PVTZ-JKFIT

    Orbital Energies [Eh]
    ---------------------

    Doubly Occupied:

       1A    -92.228656     2A    -20.636136     3A    -20.568205
       4A    -20.564900     5A    -11.292353     6A    -11.251418
       7A     -9.192876     8A     -6.878489     9A     -6.876909
      10A     -6.876683    11A     -1.496870    12A     -1.386232
      13A     -1.352730    14A     -1.097984    15A     -0.946907
      16A     -0.837079    17A     -0.748997    18A     -0.712798
      19A     -0.688033    20A     -0.658430    21A     -0.630930
      22A     -0.597440    23A     -0.569815    24A     -0.553425
      25A     -0.539165    26A     -0.522087    27A     -0.503938
      28A     -0.484689    29A     -0.478084

  @DF-RHF Final Energy:  -701.44411780836072

   => Energetics <=

    Nuclear Repulsion Energy =            357.5375176878581556
    One-Electron Energy =               -1675.6187530885472370
    Two-Electron Energy =                 616.6371175923284227
    Total Energy =                       -701.4441178083607156
  Basis Set: (AUG-CC-PVTZ AUX)
    Blend: AUG-CC-PVTZ-RI
    Molecular point group: c1

    Geometry (in Angstrom), charge = 0, multiplicity = 1:

       Center              X                  Y                   Z               Mass
    ------------   -----------------  -----------------  -----------------  -----------------
         S           -0.351763378395    -0.125885272512     0.016114820313    31.972071174400
         O           -1.470847378395     1.012092727488    -0.385454179687    15.994914619570
         O           -0.570861378395    -0.447968272512     1.427158820313    15.994914619570
         O           -0.352122378395    -1.165897272512    -1.003331179687    15.994914619570
         C            1.101402921605     0.850243027488    -0.168356279687    12.000000000000
         C            2.357171621605     0.006919727488     0.068839820313    12.000000000000
         H            1.086864621605     1.269403727488    -1.183770179687     1.007825032230
         H            1.032285621605     1.680888727488     0.546503820313     1.007825032230
         H            3.249529621605     0.627775727488    -0.035283179687     1.007825032230
         H            2.344904621605    -0.416818272512     1.075227820313     1.007825032230
         H            2.409692621605    -0.806968272512    -0.656283179687     1.007825032230
         H           -2.152812378395     0.983762727488     0.318291820313     1.007825032230

  Basis Set: AUG-CC-PVTZ
    Blend: AUG-CC-PVTZ
  Basis Set: (AUG-CC-PVTZ AUX)
    Blend: AUG-CC-PVTZ-JKFIT
	 Reference Energy          =    -701.4441178083607156 [Eh]
	 Singles Energy            =      -0.0000000000000000 [Eh]
	 Same-Spin Energy          =      -0.3550624458807018 [Eh]
	 Opposite-Spin Energy      =      -1.0621518198623074 [Eh]
	 Correlation Energy        =      -1.4172142657430093 [Eh]
	 Total Energy              =    -702.8613320741037569 [Eh]

	 ================> DF-SCS-MP2 Energies <==================
	-----------------------------------------------------------
	 SCS Same-Spin Scale       =       0.3333333333333333 [-]
	 SCS Opposite-Spin Scale   =       1.2000000000000000 [-]
	 SCS Same-Spin Energy      =      -0.1183541486269006 [Eh]
	 SCS Opposite-Spin Energy  =      -1.2745821838347688 [Eh]
	 SCS Correlation Energy    =      -1.3929363324616695 [Eh]
	 SCS Total Energy          =    -702.8370541408223744 [Eh]
	-----------------------------------------------------------

  Dipole Moment: [D]
     X:     1.5473      Y:     3.0158      Z:     0.2372     Total:     3.3979

*** Psi4 exiting successfully. Buy a developer a beer!
