                               Psi4 1.3.2 release

  ==> Input File <==

--------------------------------------------------------------------------
#psi4
#
memory 32 gb

molecule  {
0 1
  S       -0.4214780    -0.1554040     0.0158080
  O       -1.5506841     0.9813778    -0.3588862
  O       -0.6402970    -0.4772220     1.4269040
  O       -0.4220170    -1.1957040    -1.0033910
  C        1.0482880     0.8316110    -0.1712040
  C        2.2874680    -0.0228060     0.0685240
  H        1.0172350     1.2390840    -1.1847640
  H        0.9628170     1.6516560     0.5452270
  H        3.1798800     0.5979390    -0.0357570
  H        2.2751200    -0.4461820     1.0750660
  H        2.3399770    -0.8369630    -0.6562920
  H       -2.2229620     0.9537130     0.3175410
units angstrom
no_reorient  #important for SAPT in psi4, default
symmetry c1  #important for SAPT in psi4, default
}

set PROPERTIES_ORIGIN ["COM"]
properties('MP2/aug-cc-pvtz', properties = ['dipole'])
--------------------------------------------------------------------------

    Molecular point group: c1
  Charge       = 0
  Multiplicity = 1
  Basis Set: AUG-CC-PVTZ
    Blend: AUG-CC-PVTZ
  Basis Set: (AUG-CC-PVTZ AUX)
    Blend: AUG-CC-PVTZ-JKFIT

    Orbital Energies [Eh]
    ---------------------

    Doubly Occupied:

       1A    -92.228550     2A    -20.632892     3A    -20.566413
       4A    -20.566094     5A    -11.293662     6A    -11.251388
       7A     -9.192586     8A     -6.878197     9A     -6.876566
      10A     -6.876376    11A     -1.497572    12A     -1.389519
      13A     -1.352088    14A     -1.098112    15A     -0.947130
      16A     -0.841400    17A     -0.751711    18A     -0.711873
      19A     -0.688563    20A     -0.659655    21A     -0.631322
      22A     -0.597799    23A     -0.569742    24A     -0.557535
      25A     -0.540428    26A     -0.521415    27A     -0.504423
      28A     -0.484130    29A     -0.475419

  @DF-RHF Final Energy:  -701.44563866592375

   => Energetics <=

    Nuclear Repulsion Energy =            357.2333391243510050
    One-Electron Energy =               -1674.9928331054159116
    Two-Electron Energy =                 616.3138553151411543
    Total Energy =                       -701.4456386659237523
  Basis Set: (AUG-CC-PVTZ AUX)
    Blend: AUG-CC-PVTZ-RI
    Molecular point group: c1

    Geometry (in Angstrom), charge = 0, multiplicity = 1:

       Center              X                  Y                   Z               Mass
    ------------   -----------------  -----------------  -----------------  -----------------
         S           -0.352116992750    -0.126857577548     0.012458540645    31.972071174400
         O           -1.481323092750     1.009924222452    -0.362235659355    15.994914619570
         O           -0.570935992750    -0.448675577548     1.423554540645    15.994914619570
         O           -0.352655992750    -1.167157577548    -1.006740459355    15.994914619570
         C            1.117649007250     0.860157422452    -0.174553459355    12.000000000000
         C            2.356829007250     0.005740422452     0.065174540645    12.000000000000
         H            1.086596007250     1.267630422452    -1.188113459355     1.007825032230
         H            1.032178007250     1.680202422452     0.541877540645     1.007825032230
         H            3.249241007250     0.626485422452    -0.039106459355     1.007825032230
         H            2.344481007250    -0.417635577548     1.071716540645     1.007825032230
         H            2.409338007250    -0.808416577548    -0.659641459355     1.007825032230
         H           -2.153600992750     0.982259422452     0.314191540645     1.007825032230

  Basis Set: AUG-CC-PVTZ
    Blend: AUG-CC-PVTZ
  Basis Set: (AUG-CC-PVTZ AUX)
    Blend: AUG-CC-PVTZ-JKFIT
	 Reference Energy          =    -701.4456386659237523 [Eh]
	 Singles Energy            =      -0.0000000000000000 [Eh]
	 Same-Spin Energy          =      -0.3545781041011509 [Eh]
	 Opposite-Spin Energy      =      -1.0611842498593151 [Eh]
	 Correlation Energy        =      -1.4157623539604660 [Eh]
	 Total Energy              =    -702.8614010198841697 [Eh]

	 ================> DF-SCS-MP2 Energies <==================
	-----------------------------------------------------------
	 SCS Same-Spin Scale       =       0.3333333333333333 [-]
	 SCS Opposite-Spin Scale   =       1.2000000000000000 [-]
	 SCS Same-Spin Energy      =      -0.1181927013670503 [Eh]
	 SCS Opposite-Spin Energy  =      -1.2734210998311781 [Eh]
	 SCS Correlation Energy    =      -1.3916138011982284 [Eh]
	 SCS Total Energy          =    -702.8372524671219708 [Eh]
	-----------------------------------------------------------

  Dipole Moment: [D]
     X:     1.5832      Y:     2.9908      Z:     0.1840     Total:     3.3890

*** Psi4 exiting successfully. Buy a developer a beer!
