                               Psi4 1.3.2 release

  ==> Input File <==

--------------------------------------------------------------------------
#psi4
#
memory 32 gb

molecule  {
0 1
  S       -0.4368033    -0.1618511     0.0392256
  O       -1.5405550     0.9822230    -0.3857470
  O       -0.6402970    -0.4772220     1.4269040
  O       -0.4220170    -1.1957040    -1.0033910
  C        1.0482880     0.8316110    -0.1712040
  C        2.2874680    -0.0228060     0.0685240
  H        1.0172350     1.2390840    -1.1847640
  H        0.9628170     1.6516560     0.5452270
  H        3.1798800     0.5979390    -0.0357570
  H        2.2751200    -0.4461820     1.0750660
  H        2.3399770    -0.8369630    -0.6562920
  H       -2.2229620     0.9537130     0.3175410
units angstrom
no_reorient  #important for SAPT in psi4, default
symmetry c1  #important for SAPT in psi4, default
}

set PROPERTIES_ORIGIN ["COM"]
properties('MP2/aug-cc-pvtz', properties = ['dipole'])
--------------------------------------------------------------------------

    Molecular point group: c1
  Charge       = 0
  Multiplicity = 1
  Basis Set: AUG-CC-PVTZ
    Blend: AUG-CC-PVTZ
  Basis Set: (AUG-CC-PVTZ AUX)
    Blend: AUG-CC-PVTZ-JKFIT

    Orbital Energies [Eh]
    ---------------------

    Doubly Occupied:

       1A    -92.227108     2A    -20.637041     3A    -20.574484
       4A    -20.561450     5A    -11.290868     6A    -11.248810
       7A     -9.191336     8A     -6.876947     9A     -6.875474
      10A     -6.875021    11A     -1.501138    12A     -1.390053
      13A     -1.355616    14A     -1.091763    15A     -0.941095
      16A     -0.837196    17A     -0.747268    18A     -0.713785
      19A     -0.688083    20A     -0.658847    21A     -0.635153
      22A     -0.595449    23A     -0.571701    24A     -0.554823
      25A     -0.538100    26A     -0.526702    27A     -0.505269
      28A     -0.485779    29A     -0.471153

  @DF-RHF Final Energy:  -701.44412488573721

   => Energetics <=

    Nuclear Repulsion Energy =            357.1336476449016573
    One-Electron Energy =               -1674.8205277085689886
    Two-Electron Energy =                 616.2427551779301211
    Total Energy =                       -701.4441248857372102
  Basis Set: (AUG-CC-PVTZ AUX)
    Blend: AUG-CC-PVTZ-RI
    Molecular point group: c1

    Geometry (in Angstrom), charge = 0, multiplicity = 1:

       Center              X                  Y                   Z               Mass
    ------------   -----------------  -----------------  -----------------  -----------------
         S           -0.364460872142    -0.131553753497     0.032975576553    31.972071174400
         O           -1.468212572142     1.012520346503    -0.391997023447    15.994914619570
         O           -0.567954572142    -0.446924653497     1.420653976553    15.994914619570
         O           -0.349674572142    -1.165406653497    -1.009641023447    15.994914619570
         C            1.120630427858     0.861908346503    -0.177454023447    12.000000000000
         C            2.359810427858     0.007491346503     0.062273976553    12.000000000000
         H            1.089577427858     1.269381346503    -1.191014023447     1.007825032230
         H            1.035159427858     1.681953346503     0.538976976553     1.007825032230
         H            3.252222427858     0.628236346503    -0.042007023447     1.007825032230
         H            2.347462427858    -0.415884653497     1.068815976553     1.007825032230
         H            2.412319427858    -0.806665653497    -0.662542023447     1.007825032230
         H           -2.150619572142     0.984010346503     0.311290976553     1.007825032230

  Basis Set: AUG-CC-PVTZ
    Blend: AUG-CC-PVTZ
  Basis Set: (AUG-CC-PVTZ AUX)
    Blend: AUG-CC-PVTZ-JKFIT
	 Reference Energy          =    -701.4441248857372102 [Eh]
	 Singles Energy            =      -0.0000000000000000 [Eh]
	 Same-Spin Energy          =      -0.3547478933677004 [Eh]
	 Opposite-Spin Energy      =      -1.0618309170878431 [Eh]
	 Correlation Energy        =      -1.4165788104555435 [Eh]
	 Total Energy              =    -702.8607036961927861 [Eh]

	 ================> DF-SCS-MP2 Energies <==================
	-----------------------------------------------------------
	 SCS Same-Spin Scale       =       0.3333333333333333 [-]
	 SCS Opposite-Spin Scale   =       1.2000000000000000 [-]
	 SCS Same-Spin Energy      =      -0.1182492977892334 [Eh]
	 SCS Opposite-Spin Energy  =      -1.2741971005054116 [Eh]
	 SCS Correlation Energy    =      -1.3924463982946451 [Eh]
	 SCS Total Energy          =    -702.8365712840318338 [Eh]
	-----------------------------------------------------------

  Dipole Moment: [D]
     X:     1.3880      Y:     2.9678      Z:     0.4599     Total:     3.3084

*** Psi4 exiting successfully. Buy a developer a beer!
