                               Psi4 1.3.2 release

  ==> Input File <==

--------------------------------------------------------------------------
#psi4
#
memory 32 gb

molecule  {
0 1
  S       -0.4214780    -0.1554040     0.0158080
  O       -1.5405550     0.9822230    -0.3857470
  O       -0.6304875    -0.3776193     1.4474420
  O       -0.4220170    -1.1957040    -1.0033910
  C        1.0482880     0.8316110    -0.1712040
  C        2.2874680    -0.0228060     0.0685240
  H        1.0172350     1.2390840    -1.1847640
  H        0.9628170     1.6516560     0.5452270
  H        3.1798800     0.5979390    -0.0357570
  H        2.2751200    -0.4461820     1.0750660
  H        2.3399770    -0.8369630    -0.6562920
  H       -2.2229620     0.9537130     0.3175410
units angstrom
no_reorient  #important for SAPT in psi4, default
symmetry c1  #important for SAPT in psi4, default
}

set PROPERTIES_ORIGIN ["COM"]
properties('MP2/aug-cc-pvtz', properties = ['dipole'])
--------------------------------------------------------------------------

    Molecular point group: c1
  Charge       = 0
  Multiplicity = 1
  Basis Set: AUG-CC-PVTZ
    Blend: AUG-CC-PVTZ
  Basis Set: (AUG-CC-PVTZ AUX)
    Blend: AUG-CC-PVTZ-JKFIT

    Orbital Energies [Eh]
    ---------------------

    Doubly Occupied:

       1A    -92.228893     2A    -20.632375     3A    -20.571488
       4A    -20.568416     5A    -11.289988     6A    -11.249904
       7A     -9.192909     8A     -6.878530     9A     -6.876947
      10A     -6.876655    11A     -1.497051    12A     -1.383906
      13A     -1.357443    14A     -1.095084    15A     -0.943337
      16A     -0.837433    17A     -0.747013    18A     -0.711601
      19A     -0.689021    20A     -0.658388    21A     -0.631763
      22A     -0.596791    23A     -0.569168    24A     -0.555348
      25A     -0.539512    26A     -0.521344    27A     -0.508102
      28A     -0.487029    29A     -0.473814

  @DF-RHF Final Energy:  -701.44242546896658

   => Energetics <=

    Nuclear Repulsion Energy =            357.3643295005739446
    One-Electron Energy =               -1675.2750050728736824
    Two-Electron Energy =                 616.4682501033330482
    Total Energy =                       -701.4424254689665759
  Basis Set: (AUG-CC-PVTZ AUX)
    Blend: AUG-CC-PVTZ-RI
    Molecular point group: c1

    Geometry (in Angstrom), charge = 0, multiplicity = 1:

       Center              X                  Y                   Z               Mass
    ------------   -----------------  -----------------  -----------------  -----------------
         S           -0.355016131739    -0.141463037469     0.013377896868    31.972071174400
         O           -1.474093131739     0.996163962531    -0.388177103132    15.994914619570
         O           -0.564025631739    -0.363678337469     1.445011896868    15.994914619570
         O           -0.355555131739    -1.181763037469    -1.005821103132    15.994914619570
         C            1.114749868261     0.845551962531    -0.173634103132    12.000000000000
         C            2.353929868261    -0.008865037469     0.066093896868    12.000000000000
         H            1.083696868261     1.253024962531    -1.187194103132     1.007825032230
         H            1.029278868261     1.665596962531     0.542796896868     1.007825032230
         H            3.246341868261     0.611879962531    -0.038187103132     1.007825032230
         H            2.341581868261    -0.432241037469     1.072635896868     1.007825032230
         H            2.406438868261    -0.823022037469    -0.658722103132     1.007825032230
         H           -2.156500131739     0.967653962531     0.315110896868     1.007825032230

  Basis Set: AUG-CC-PVTZ
    Blend: AUG-CC-PVTZ
  Basis Set: (AUG-CC-PVTZ AUX)
    Blend: AUG-CC-PVTZ-JKFIT
	 Reference Energy          =    -701.4424254689665759 [Eh]
	 Singles Energy            =      -0.0000000000000000 [Eh]
	 Same-Spin Energy          =      -0.3552195639109907 [Eh]
	 Opposite-Spin Energy      =      -1.0626185479497685 [Eh]
	 Correlation Energy        =      -1.4178381118607593 [Eh]
	 Total Energy              =    -702.8602635808273362 [Eh]

	 ================> DF-SCS-MP2 Energies <==================
	-----------------------------------------------------------
	 SCS Same-Spin Scale       =       0.3333333333333333 [-]
	 SCS Opposite-Spin Scale   =       1.2000000000000000 [-]
	 SCS Same-Spin Energy      =      -0.1184065213036636 [Eh]
	 SCS Opposite-Spin Energy  =      -1.2751422575397222 [Eh]
	 SCS Correlation Energy    =      -1.3935487788433858 [Eh]
	 SCS Total Energy          =    -702.8359742478099861 [Eh]
	-----------------------------------------------------------

  Dipole Moment: [D]
     X:     1.5035      Y:     2.7498      Z:     0.1711     Total:     3.1387

*** Psi4 exiting successfully. Buy a developer a beer!
