                               Psi4 1.3.2 release

  ==> Input File <==

--------------------------------------------------------------------------
#psi4
#
memory 32 gb

molecule  {
0 1
  S       -0.4214780    -0.1554040     0.0158080
  O       -1.4087923     1.0908349    -0.4083077
  O       -0.6402970    -0.4772220     1.4269040
  O       -0.4220170    -1.1957040    -1.0033910
  C        1.0482880     0.8316110    -0.1712040
  C        2.2874680    -0.0228060     0.0685240
  H        1.0172350     1.2390840    -1.1847640
  H        0.9628170     1.6516560     0.5452270
  H        3.1798800     0.5979390    -0.0357570
  H        2.2751200    -0.4461820     1.0750660
  H        2.3399770    -0.8369630    -0.6562920
  H       -2.2229620     0.9537130     0.3175410
units angstrom
no_reorient  #important for SAPT in psi4, default
symmetry c1  #important for SAPT in psi4, default
}

set PROPERTIES_ORIGIN ["COM"]
properties('MP2/aug-cc-pvtz', properties = ['dipole'])
--------------------------------------------------------------------------

    Molecular point group: c1
  Charge       = 0
  Multiplicity = 1
  Basis Set: AUG-CC-PVTZ
    Blend: AUG-CC-PVTZ
  Basis Set: (AUG-CC-PVTZ AUX)
    Blend: AUG-CC-PVTZ-JKFIT

    Orbital Energies [Eh]
    ---------------------

    Doubly Occupied:

       1A    -92.226530     2A    -20.648597     3A    -20.573065
       4A    -20.567619     5A    -11.285148     6A    -11.245570
       7A     -9.190971     8A     -6.876621     9A     -6.874934
      10A     -6.874696    11A     -1.492985    12A     -1.376351
      13A     -1.354968    14A     -1.091131    15A     -0.937017
      16A     -0.827353    17A     -0.727644    18A     -0.712484
      19A     -0.688781    20A     -0.653665    21A     -0.633251
      22A     -0.593245    23A     -0.569656    24A     -0.549681
      25A     -0.535401    26A     -0.526430    27A     -0.505174
      28A     -0.485753    29A     -0.471815

  @DF-RHF Final Energy:  -701.42293293302714

   => Energetics <=

    Nuclear Repulsion Energy =            357.1274786126091385
    One-Electron Energy =               -1674.9077572322059950
    Two-Electron Energy =                 616.3573456865697153
    Total Energy =                       -701.4229329330271412
  Basis Set: (AUG-CC-PVTZ AUX)
    Blend: AUG-CC-PVTZ-RI
    Molecular point group: c1

    Geometry (in Angstrom), charge = 0, multiplicity = 1:

       Center              X                  Y                   Z               Mass
    ------------   -----------------  -----------------  -----------------  -----------------
         S           -0.372748534058    -0.142773005219     0.019644591697    31.972071174400
         O           -1.360062834058     1.103465894781    -0.404471108303    15.994914619570
         O           -0.591567534058    -0.464591005219     1.430740591697    15.994914619570
         O           -0.373287534058    -1.183073005219    -0.999554408303    15.994914619570
         C            1.097017465942     0.844241994781    -0.167367408303    12.000000000000
         C            2.336197465942    -0.010175005219     0.072360591697    12.000000000000
         H            1.065964465942     1.251714994781    -1.180927408303     1.007825032230
         H            1.011546465942     1.664286994781     0.549063591697     1.007825032230
         H            3.228609465942     0.610569994781    -0.031920408303     1.007825032230
         H            2.323849465942    -0.433551005219     1.078902591697     1.007825032230
         H            2.388706465942    -0.824332005219    -0.652455408303     1.007825032230
         H           -2.174232534058     0.966343994781     0.321377591697     1.007825032230

  Basis Set: AUG-CC-PVTZ
    Blend: AUG-CC-PVTZ
  Basis Set: (AUG-CC-PVTZ AUX)
    Blend: AUG-CC-PVTZ-JKFIT
	 Reference Energy          =    -701.4229329330271412 [Eh]
	 Singles Energy            =      -0.0000000000000000 [Eh]
	 Same-Spin Energy          =      -0.3573487124249917 [Eh]
	 Opposite-Spin Energy      =      -1.0675526509088935 [Eh]
	 Correlation Energy        =      -1.4249013633338852 [Eh]
	 Total Energy              =    -702.8478342963610430 [Eh]

	 ================> DF-SCS-MP2 Energies <==================
	-----------------------------------------------------------
	 SCS Same-Spin Scale       =       0.3333333333333333 [-]
	 SCS Opposite-Spin Scale   =       1.2000000000000000 [-]
	 SCS Same-Spin Energy      =      -0.1191162374749972 [Eh]
	 SCS Opposite-Spin Energy  =      -1.2810631810906721 [Eh]
	 SCS Correlation Energy    =      -1.4001794185656693 [Eh]
	 SCS Total Energy          =    -702.8231123515928402 [Eh]
	-----------------------------------------------------------

  Dipole Moment: [D]
     X:     1.1378      Y:     2.8323      Z:     0.2502     Total:     3.0625

*** Psi4 exiting successfully. Buy a developer a beer!
