                               Psi4 1.3.2 release

  ==> Input File <==

--------------------------------------------------------------------------
#psi4
#
memory 32 gb

molecule  {
0 1
  S       -0.5182832    -0.0011171    -0.0235461
  O       -1.5405550     0.9822230    -0.3857470
  O       -0.6402970    -0.4772220     1.4269040
  O       -0.4220170    -1.1957040    -1.0033910
  C        1.0482880     0.8316110    -0.1712040
  C        2.2874680    -0.0228060     0.0685240
  H        1.0172350     1.2390840    -1.1847640
  H        0.9628170     1.6516560     0.5452270
  H        3.1798800     0.5979390    -0.0357570
  H        2.2751200    -0.4461820     1.0750660
  H        2.3399770    -0.8369630    -0.6562920
  H       -2.2229620     0.9537130     0.3175410
units angstrom
no_reorient  #important for SAPT in psi4, default
symmetry c1  #important for SAPT in psi4, default
}

set PROPERTIES_ORIGIN ["COM"]
properties('MP2/aug-cc-pvtz', properties = ['dipole'])
--------------------------------------------------------------------------

    Molecular point group: c1
  Charge       = 0
  Multiplicity = 1
  Basis Set: AUG-CC-PVTZ
    Blend: AUG-CC-PVTZ
  Basis Set: (AUG-CC-PVTZ AUX)
    Blend: AUG-CC-PVTZ-JKFIT

    Orbital Energies [Eh]
    ---------------------

    Doubly Occupied:

       1A    -92.227091     2A    -20.690455     3A    -20.551882
       4A    -20.539019     5A    -11.292583     6A    -11.246897
       7A     -9.192881     8A     -6.878953     9A     -6.876608
      10A     -6.875838    11A     -1.574504    12A     -1.369845
      13A     -1.290082    14A     -1.093330    15A     -0.969112
      16A     -0.877567    17A     -0.783066    18A     -0.734384
      19A     -0.715481    20A     -0.661691    21A     -0.622770
      22A     -0.583640    23A     -0.568766    24A     -0.553091
      25A     -0.532077    26A     -0.508958    27A     -0.471172
      28A     -0.455807    29A     -0.445462

  @DF-RHF Final Energy:  -701.40290560342748

   => Energetics <=

    Nuclear Repulsion Energy =            356.9876364269620126
    One-Electron Energy =               -1674.4150566075522875
    Two-Electron Energy =                 616.0245145771626767
    Total Energy =                       -701.4029056034274845
  Basis Set: (AUG-CC-PVTZ AUX)
    Blend: AUG-CC-PVTZ-RI
    Molecular point group: c1

    Geometry (in Angstrom), charge = 0, multiplicity = 1:

       Center              X                  Y                   Z               Mass
    ------------   -----------------  -----------------  -----------------  -----------------
         S           -0.422259026733    -0.017536326130    -0.011551827390    31.972071174400
         O           -1.444530826733     0.965803773870    -0.373752727390    15.994914619570
         O           -0.544272826733    -0.493641226130     1.438898272610    15.994914619570
         O           -0.325992826733    -1.212123226130    -0.991396727390    15.994914619570
         C            1.144312173267     0.815191773870    -0.159209727390    12.000000000000
         C            2.383492173267    -0.039225226130     0.080518272610    12.000000000000
         H            1.113259173267     1.222664773870    -1.172769727390     1.007825032230
         H            1.058841173267     1.635236773870     0.557221272610     1.007825032230
         H            3.275904173267     0.581519773870    -0.023762727390     1.007825032230
         H            2.371144173267    -0.462601226130     1.087060272610     1.007825032230
         H            2.436001173267    -0.853382226130    -0.644297727390     1.007825032230
         H           -2.126937826733     0.937293773870     0.329535272610     1.007825032230

  Basis Set: AUG-CC-PVTZ
    Blend: AUG-CC-PVTZ
  Basis Set: (AUG-CC-PVTZ AUX)
    Blend: AUG-CC-PVTZ-JKFIT
	 Reference Energy          =    -701.4029056034274845 [Eh]
	 Singles Energy            =      -0.0000000000000000 [Eh]
	 Same-Spin Energy          =      -0.3558666708409581 [Eh]
	 Opposite-Spin Energy      =      -1.0624466372990500 [Eh]
	 Correlation Energy        =      -1.4183133081400081 [Eh]
	 Total Energy              =    -702.8212189115674846 [Eh]

	 ================> DF-SCS-MP2 Energies <==================
	-----------------------------------------------------------
	 SCS Same-Spin Scale       =       0.3333333333333333 [-]
	 SCS Opposite-Spin Scale   =       1.2000000000000000 [-]
	 SCS Same-Spin Energy      =      -0.1186222236136527 [Eh]
	 SCS Opposite-Spin Energy  =      -1.2749359647588598 [Eh]
	 SCS Correlation Energy    =      -1.3935581883725126 [Eh]
	 SCS Total Energy          =    -702.7964637917999653 [Eh]
	-----------------------------------------------------------

  Dipole Moment: [D]
     X:     0.5056      Y:     4.5039      Z:    -0.0329     Total:     4.5323

*** Psi4 exiting successfully. Buy a developer a beer!
