                               Psi4 1.3.2 release

  ==> Input File <==

--------------------------------------------------------------------------
#psi4
#
memory 32 gb

molecule  {
0 1
  S       -0.4738928    -0.0347543     0.1477958
  O       -1.5405550     0.9822230    -0.3857470
  O       -0.6402970    -0.4772220     1.4269040
  O       -0.4220170    -1.1957040    -1.0033910
  C        1.0482880     0.8316110    -0.1712040
  C        2.2874680    -0.0228060     0.0685240
  H        1.0172350     1.2390840    -1.1847640
  H        0.9628170     1.6516560     0.5452270
  H        3.1798800     0.5979390    -0.0357570
  H        2.2751200    -0.4461820     1.0750660
  H        2.3399770    -0.8369630    -0.6562920
  H       -2.2229620     0.9537130     0.3175410
units angstrom
no_reorient  #important for SAPT in psi4, default
symmetry c1  #important for SAPT in psi4, default
}

set PROPERTIES_ORIGIN ["COM"]
properties('MP2/aug-cc-pvtz', properties = ['dipole'])
--------------------------------------------------------------------------

    Molecular point group: c1
  Charge       = 0
  Multiplicity = 1
  Basis Set: AUG-CC-PVTZ
    Blend: AUG-CC-PVTZ
  Basis Set: (AUG-CC-PVTZ AUX)
    Blend: AUG-CC-PVTZ-JKFIT

    Orbital Energies [Eh]
    ---------------------

    Doubly Occupied:

       1A    -92.220888     2A    -20.665911     3A    -20.593347
       4A    -20.517882     5A    -11.292983     6A    -11.248567
       7A     -9.189082     8A     -6.874708     9A     -6.873207
      10A     -6.871789    11A     -1.543365    12A     -1.444795
      13A     -1.258220    14A     -1.094364    15A     -0.952386
      16A     -0.850814    17A     -0.767346    18A     -0.735050
      19A     -0.703921    20A     -0.661565    21A     -0.648290
      22A     -0.601276    23A     -0.578867    24A     -0.560526
      25A     -0.545700    26A     -0.536236    27A     -0.475156
      28A     -0.437087    29A     -0.432136

  @DF-RHF Final Energy:  -701.39476528580838

   => Energetics <=

    Nuclear Repulsion Energy =            357.3231160047367894
    One-Electron Energy =               -1675.0848351438442023
    Two-Electron Energy =                 616.3669538532989236
    Total Energy =                       -701.3947652858083757
  Basis Set: (AUG-CC-PVTZ AUX)
    Blend: AUG-CC-PVTZ-RI
    Molecular point group: c1

    Geometry (in Angstrom), charge = 0, multiplicity = 1:

       Center              X                  Y                   Z               Mass
    ------------   -----------------  -----------------  -----------------  -----------------
         S           -0.390770485368    -0.041397033932     0.109990364294    31.972071174400
         O           -1.457432685368     0.975580266068    -0.423552435706    15.994914619570
         O           -0.557174685368    -0.483864733932     1.389098564294    15.994914619570
         O           -0.338894685368    -1.202346733932    -1.041196435706    15.994914619570
         C            1.131410314632     0.824968266068    -0.209009435706    12.000000000000
         C            2.370590314632    -0.029448733932     0.030718564294    12.000000000000
         H            1.100357314632     1.232441266068    -1.222569435706     1.007825032230
         H            1.045939314632     1.645013266068     0.507421564294     1.007825032230
         H            3.263002314632     0.591296266068    -0.073562435706     1.007825032230
         H            2.358242314632    -0.452824733932     1.037260564294     1.007825032230
         H            2.423099314632    -0.843605733932    -0.694097435706     1.007825032230
         H           -2.139839685368     0.947070266068     0.279735564294     1.007825032230

  Basis Set: AUG-CC-PVTZ
    Blend: AUG-CC-PVTZ
  Basis Set: (AUG-CC-PVTZ AUX)
    Blend: AUG-CC-PVTZ-JKFIT
	 Reference Energy          =    -701.3947652858083757 [Eh]
	 Singles Energy            =      -0.0000000000000000 [Eh]
	 Same-Spin Energy          =      -0.3547006202420118 [Eh]
	 Opposite-Spin Energy      =      -1.0619272351293900 [Eh]
	 Correlation Energy        =      -1.4166278553714018 [Eh]
	 Total Energy              =    -702.8113931411797921 [Eh]

	 ================> DF-SCS-MP2 Energies <==================
	-----------------------------------------------------------
	 SCS Same-Spin Scale       =       0.3333333333333333 [-]
	 SCS Opposite-Spin Scale   =       1.2000000000000000 [-]
	 SCS Same-Spin Energy      =      -0.1182335400806706 [Eh]
	 SCS Opposite-Spin Energy  =      -1.2743126821552679 [Eh]
	 SCS Correlation Energy    =      -1.3925462222359386 [Eh]
	 SCS Total Energy          =    -702.7873115080443540 [Eh]
	-----------------------------------------------------------

  Dipole Moment: [D]
     X:     0.9431      Y:     4.2548      Z:     1.5814     Total:     4.6361

*** Psi4 exiting successfully. Buy a developer a beer!
