                               Psi4 1.3.2 release

  ==> Input File <==

--------------------------------------------------------------------------
#psi4
#
memory 32 gb

molecule  {
0 1
  S       -0.4214780    -0.1554040     0.0158080
  O       -1.5405550     0.9822230    -0.3857470
  O       -0.6402970    -0.4772220     1.4269040
  O       -0.4220170    -1.1957040    -1.0033910
  C        0.8831714     0.7207277    -0.1501947
  C        2.2874680    -0.0228060     0.0685240
  H        1.0172350     1.2390840    -1.1847640
  H        0.9628170     1.6516560     0.5452270
  H        3.1798800     0.5979390    -0.0357570
  H        2.2751200    -0.4461820     1.0750660
  H        2.3399770    -0.8369630    -0.6562920
  H       -2.2229620     0.9537130     0.3175410
units angstrom
no_reorient  #important for SAPT in psi4, default
symmetry c1  #important for SAPT in psi4, default
}

set PROPERTIES_ORIGIN ["COM"]
properties('MP2/aug-cc-pvtz', properties = ['dipole'])
--------------------------------------------------------------------------

    Molecular point group: c1
  Charge       = 0
  Multiplicity = 1
  Basis Set: AUG-CC-PVTZ
    Blend: AUG-CC-PVTZ
  Basis Set: (AUG-CC-PVTZ AUX)
    Blend: AUG-CC-PVTZ-JKFIT

    Orbital Energies [Eh]
    ---------------------

    Doubly Occupied:

       1A    -92.226809     2A    -20.633466     3A    -20.565458
       4A    -20.562102     5A    -11.291472     6A    -11.261967
       7A     -9.193764     8A     -6.879325     9A     -6.878376
      10A     -6.877343    11A     -1.501691    12A     -1.385807
      13A     -1.352373    14A     -1.114567    15A     -0.963599
      16A     -0.826704    17A     -0.758047    18A     -0.715619
      19A     -0.689544    20A     -0.653730    21A     -0.622222
      22A     -0.598845    23A     -0.573355    24A     -0.534066
      25A     -0.528153    26A     -0.524097    27A     -0.498546
      28A     -0.495517    29A     -0.476727

  @DF-RHF Final Energy:  -701.40346068479266

   => Energetics <=

    Nuclear Repulsion Energy =            361.5902371568049603
    One-Electron Energy =               -1683.6208057039170853
    Two-Electron Energy =                 620.6271078623194626
    Total Energy =                       -701.4034606847926625
  Basis Set: (AUG-CC-PVTZ AUX)
    Blend: AUG-CC-PVTZ-RI
    Molecular point group: c1

    Geometry (in Angstrom), charge = 0, multiplicity = 1:

       Center              X                  Y                   Z               Mass
    ------------   -----------------  -----------------  -----------------  -----------------
         S           -0.335577694240    -0.114884526485     0.014072345429    31.972071174400
         O           -1.454654694240     1.022742473515    -0.387482654571    15.994914619570
         O           -0.554396694240    -0.436702526485     1.425168345429    15.994914619570
         O           -0.336116694240    -1.155184526485    -1.005126654571    15.994914619570
         C            0.969071705760     0.761247173515    -0.151930354571    12.000000000000
         C            2.373368305760     0.017713473515     0.066788345429    12.000000000000
         H            1.103135305760     1.279603473515    -1.186499654571     1.007825032230
         H            1.048717305760     1.692175473515     0.543491345429     1.007825032230
         H            3.265780305760     0.638458473515    -0.037492654571     1.007825032230
         H            2.361020305760    -0.405662526485     1.073330345429     1.007825032230
         H            2.425877305760    -0.796443526485    -0.658027654571     1.007825032230
         H           -2.137061694240     0.994232473515     0.315805345429     1.007825032230

  Basis Set: AUG-CC-PVTZ
    Blend: AUG-CC-PVTZ
  Basis Set: (AUG-CC-PVTZ AUX)
    Blend: AUG-CC-PVTZ-JKFIT
	 Reference Energy          =    -701.4034606847926625 [Eh]
	 Singles Energy            =      -0.0000000000000000 [Eh]
	 Same-Spin Energy          =      -0.3569662103586217 [Eh]
	 Opposite-Spin Energy      =      -1.0645869572337721 [Eh]
	 Correlation Energy        =      -1.4215531675923938 [Eh]
	 Total Energy              =    -702.8250138523850410 [Eh]

	 ================> DF-SCS-MP2 Energies <==================
	-----------------------------------------------------------
	 SCS Same-Spin Scale       =       0.3333333333333333 [-]
	 SCS Opposite-Spin Scale   =       1.2000000000000000 [-]
	 SCS Same-Spin Energy      =      -0.1189887367862072 [Eh]
	 SCS Opposite-Spin Energy  =      -1.2775043486805264 [Eh]
	 SCS Correlation Energy    =      -1.3964930854667337 [Eh]
	 SCS Total Energy          =    -702.7999537702594353 [Eh]
	-----------------------------------------------------------

  Dipole Moment: [D]
     X:     1.8184      Y:     3.1603      Z:     0.2061     Total:     3.6519

*** Psi4 exiting successfully. Buy a developer a beer!
