                               Psi4 1.3.2 release

  ==> Input File <==

--------------------------------------------------------------------------
#psi4
#
memory 32 gb

molecule  {
0 1
  S       -0.4214780    -0.1554040     0.0158080
  O       -1.5961119     0.9719665    -0.2230350
  O       -0.6402970    -0.4772220     1.4269040
  O       -0.4220170    -1.1957040    -1.0033910
  C        1.0482880     0.8316110    -0.1712040
  C        2.2874680    -0.0228060     0.0685240
  H        1.0172350     1.2390840    -1.1847640
  H        0.9628170     1.6516560     0.5452270
  H        3.1798800     0.5979390    -0.0357570
  H        2.2751200    -0.4461820     1.0750660
  H        2.3399770    -0.8369630    -0.6562920
  H       -2.2229620     0.9537130     0.3175410
units angstrom
no_reorient  #important for SAPT in psi4, default
symmetry c1  #important for SAPT in psi4, default
}

set PROPERTIES_ORIGIN ["COM"]
properties('MP2/aug-cc-pvtz', properties = ['dipole'])
--------------------------------------------------------------------------

    Molecular point group: c1
  Charge       = 0
  Multiplicity = 1
  Basis Set: AUG-CC-PVTZ
    Blend: AUG-CC-PVTZ
  Basis Set: (AUG-CC-PVTZ AUX)
    Blend: AUG-CC-PVTZ-JKFIT

    Orbital Energies [Eh]
    ---------------------

    Doubly Occupied:

       1A    -92.232325     2A    -20.613917     3A    -20.572947
       4A    -20.557701     5A    -11.298156     6A    -11.254485
       7A     -9.195797     8A     -6.881505     9A     -6.879751
      10A     -6.879551    11A     -1.507390    12A     -1.409216
      13A     -1.350152    14A     -1.102513    15A     -0.960646
      16A     -0.862029    17A     -0.766459    18A     -0.710004
      19A     -0.691291    20A     -0.660021    21A     -0.630066
      22A     -0.600268    23A     -0.570132    24A     -0.562671
      25A     -0.542648    26A     -0.520887    27A     -0.505081
      28A     -0.483280    29A     -0.475266

  @DF-RHF Final Energy:  -701.42129369807094

   => Energetics <=

    Nuclear Repulsion Energy =            357.8735537196860719
    One-Electron Energy =               -1676.0373840185538938
    Two-Electron Energy =                 616.7425366007969387
    Total Energy =                       -701.4212936980709401
  Basis Set: (AUG-CC-PVTZ AUX)
    Blend: AUG-CC-PVTZ-RI
    Molecular point group: c1

    Geometry (in Angstrom), charge = 0, multiplicity = 1:

       Center              X                  Y                   Z               Mass
    ------------   -----------------  -----------------  -----------------  -----------------
         S           -0.345511639008    -0.125489143116    -0.007294677261    31.972071174400
         O           -1.520145539008     1.001881356884    -0.246137677261    15.994914619570
         O           -0.564330639008    -0.447307143116     1.403801322739    15.994914619570
         O           -0.346050639008    -1.165789143116    -1.026493677261    15.994914619570
         C            1.124254360992     0.861525856884    -0.194306677261    12.000000000000
         C            2.363434360992     0.007108856884     0.045421322739    12.000000000000
         H            1.093201360992     1.268998856884    -1.207866677261     1.007825032230
         H            1.038783360992     1.681570856884     0.522124322739     1.007825032230
         H            3.255846360992     0.627853856884    -0.058859677261     1.007825032230
         H            2.351086360992    -0.416267143116     1.051963322739     1.007825032230
         H            2.415943360992    -0.807048143116    -0.679394677261     1.007825032230
         H           -2.146995639008     0.983627856884     0.294438322739     1.007825032230

  Basis Set: AUG-CC-PVTZ
    Blend: AUG-CC-PVTZ
  Basis Set: (AUG-CC-PVTZ AUX)
    Blend: AUG-CC-PVTZ-JKFIT
	 Reference Energy          =    -701.4212936980709401 [Eh]
	 Singles Energy            =      -0.0000000000000000 [Eh]
	 Same-Spin Energy          =      -0.3528017441670154 [Eh]
	 Opposite-Spin Energy      =      -1.0573975849688693 [Eh]
	 Correlation Energy        =      -1.4101993291358847 [Eh]
	 Total Energy              =    -702.8314930272068750 [Eh]

	 ================> DF-SCS-MP2 Energies <==================
	-----------------------------------------------------------
	 SCS Same-Spin Scale       =       0.3333333333333333 [-]
	 SCS Opposite-Spin Scale   =       1.2000000000000000 [-]
	 SCS Same-Spin Energy      =      -0.1176005813890051 [Eh]
	 SCS Opposite-Spin Energy  =      -1.2688771019626430 [Eh]
	 SCS Correlation Energy    =      -1.3864776833516481 [Eh]
	 SCS Total Energy          =    -702.8077713814226399 [Eh]
	-----------------------------------------------------------

  Dipole Moment: [D]
     X:     1.8330      Y:     2.9027      Z:    -0.1054     Total:     3.4346

*** Psi4 exiting successfully. Buy a developer a beer!
