                               Psi4 1.3.2 release

  ==> Input File <==

--------------------------------------------------------------------------
#psi4
#
memory 32 gb

molecule  {
0 1
  S       -0.4214780    -0.1554040     0.0158080
  O       -1.4539890     1.0560922    -0.4012926
  O       -0.6402970    -0.4772220     1.4269040
  O       -0.4220170    -1.1957040    -1.0033910
  C        1.0482880     0.8316110    -0.1712040
  C        2.2874680    -0.0228060     0.0685240
  H        1.0172350     1.2390840    -1.1847640
  H        0.9628170     1.6516560     0.5452270
  H        3.1798800     0.5979390    -0.0357570
  H        2.2751200    -0.4461820     1.0750660
  H        2.3399770    -0.8369630    -0.6562920
  H       -2.2229620     0.9537130     0.3175410
units angstrom
no_reorient  #important for SAPT in psi4, default
symmetry c1  #important for SAPT in psi4, default
}

set PROPERTIES_ORIGIN ["COM"]
properties('MP2/aug-cc-pvtz', properties = ['dipole'])
--------------------------------------------------------------------------

    Molecular point group: c1
  Charge       = 0
  Multiplicity = 1
  Basis Set: AUG-CC-PVTZ
    Blend: AUG-CC-PVTZ
  Basis Set: (AUG-CC-PVTZ AUX)
    Blend: AUG-CC-PVTZ-JKFIT

    Orbital Energies [Eh]
    ---------------------

    Doubly Occupied:

       1A    -92.226907     2A    -20.644657     3A    -20.571387
       4A    -20.566565     5A    -11.287725     6A    -11.247361
       7A     -9.191257     8A     -6.876881     9A     -6.875228
      10A     -6.875009    11A     -1.493818    12A     -1.379293
      13A     -1.354071    14A     -1.093256    15A     -0.939658
      16A     -0.830059    17A     -0.734594    18A     -0.712620
      19A     -0.688431    20A     -0.655865    21A     -0.632956
      22A     -0.594412    23A     -0.569803    24A     -0.552175
      25A     -0.536970    26A     -0.524961    27A     -0.504784
      28A     -0.485079    29A     -0.473141

  @DF-RHF Final Energy:  -701.43289757471860

   => Energetics <=

    Nuclear Repulsion Energy =            357.1062163009967776
    One-Electron Energy =               -1674.8403862688141999
    Two-Electron Energy =                 616.3012723930988841
    Total Energy =                       -701.4328975747185950
  Basis Set: (AUG-CC-PVTZ AUX)
    Blend: AUG-CC-PVTZ-RI
    Molecular point group: c1

    Geometry (in Angstrom), charge = 0, multiplicity = 1:

       Center              X                  Y                   Z               Mass
    ------------   -----------------  -----------------  -----------------  -----------------
         S           -0.366176783026    -0.137721300679     0.018624572743    31.972071174400
         O           -1.398687783026     1.073774899321    -0.398476027257    15.994914619570
         O           -0.584995783026    -0.459539300679     1.429720572743    15.994914619570
         O           -0.366715783026    -1.178021300679    -1.000574427257    15.994914619570
         C            1.103589216974     0.849293699321    -0.168387427257    12.000000000000
         C            2.342769216974    -0.005123300679     0.071340572743    12.000000000000
         H            1.072536216974     1.256766699321    -1.181947427257     1.007825032230
         H            1.018118216974     1.669338699321     0.548043572743     1.007825032230
         H            3.235181216974     0.615621699321    -0.032940427257     1.007825032230
         H            2.330421216974    -0.428499300679     1.077882572743     1.007825032230
         H            2.395278216974    -0.819280300679    -0.653475427257     1.007825032230
         H           -2.167660783026     0.971395699321     0.320357572743     1.007825032230

  Basis Set: AUG-CC-PVTZ
    Blend: AUG-CC-PVTZ
  Basis Set: (AUG-CC-PVTZ AUX)
    Blend: AUG-CC-PVTZ-JKFIT
	 Reference Energy          =    -701.4328975747185950 [Eh]
	 Singles Energy            =      -0.0000000000000000 [Eh]
	 Same-Spin Energy          =      -0.3564856206193722 [Eh]
	 Opposite-Spin Energy      =      -1.0655219455755987 [Eh]
	 Correlation Energy        =      -1.4220075661949707 [Eh]
	 Total Energy              =    -702.8549051409136155 [Eh]

	 ================> DF-SCS-MP2 Energies <==================
	-----------------------------------------------------------
	 SCS Same-Spin Scale       =       0.3333333333333333 [-]
	 SCS Opposite-Spin Scale   =       1.2000000000000000 [-]
	 SCS Same-Spin Energy      =      -0.1188285402064574 [Eh]
	 SCS Opposite-Spin Energy  =      -1.2786263346907183 [Eh]
	 SCS Correlation Energy    =      -1.3974548748971758 [Eh]
	 SCS Total Energy          =    -702.8303524496158161 [Eh]
	-----------------------------------------------------------

  Dipole Moment: [D]
     X:     1.2678      Y:     2.8873      Z:     0.2472     Total:     3.1631

*** Psi4 exiting successfully. Buy a developer a beer!
