                               Psi4 1.3.2 release

  ==> Input File <==

--------------------------------------------------------------------------
#psi4
#
memory 32 gb

molecule  {
0 1
  S       -0.4214780    -0.1554040     0.0158080
  O       -1.5405550     0.9822230    -0.3857470
  O       -0.6823037    -0.5030700     1.4135701
  O       -0.4220170    -1.1957040    -1.0033910
  C        1.0482880     0.8316110    -0.1712040
  C        2.2874680    -0.0228060     0.0685240
  H        1.0172350     1.2390840    -1.1847640
  H        0.9628170     1.6516560     0.5452270
  H        3.1798800     0.5979390    -0.0357570
  H        2.2751200    -0.4461820     1.0750660
  H        2.3399770    -0.8369630    -0.6562920
  H       -2.2229620     0.9537130     0.3175410
units angstrom
no_reorient  #important for SAPT in psi4, default
symmetry c1  #important for SAPT in psi4, default
}

set PROPERTIES_ORIGIN ["COM"]
properties('MP2/aug-cc-pvtz', properties = ['dipole'])
--------------------------------------------------------------------------

    Molecular point group: c1
  Charge       = 0
  Multiplicity = 1
  Basis Set: AUG-CC-PVTZ
    Blend: AUG-CC-PVTZ
  Basis Set: (AUG-CC-PVTZ AUX)
    Blend: AUG-CC-PVTZ-JKFIT

    Orbital Energies [Eh]
    ---------------------

    Doubly Occupied:

       1A    -92.227567     2A    -20.634493     3A    -20.567448
       4A    -20.562714     5A    -11.295367     6A    -11.252212
       7A     -9.191751     8A     -6.877351     9A     -6.875700
      10A     -6.875556    11A     -1.495682    12A     -1.384739
      13A     -1.350396    14A     -1.099439    15A     -0.946271
      16A     -0.838191    17A     -0.747437    18A     -0.711830
      19A     -0.687779    20A     -0.660159    21A     -0.630978
      22A     -0.597422    23A     -0.569716    24A     -0.557250
      25A     -0.541272    26A     -0.520855    27A     -0.502674
      28A     -0.483440    29A     -0.475632

  @DF-RHF Final Energy:  -701.44473326838533

   => Energetics <=

    Nuclear Repulsion Energy =            357.0215076853383493
    One-Electron Energy =               -1674.6098441866163284
    Two-Electron Energy =                 616.1436032328927013
    Total Energy =                       -701.4447332683853347
  Basis Set: (AUG-CC-PVTZ AUX)
    Blend: AUG-CC-PVTZ-RI
    Molecular point group: c1

    Geometry (in Angstrom), charge = 0, multiplicity = 1:

       Center              X                  Y                   Z               Mass
    ------------   -----------------  -----------------  -----------------  -----------------
         S           -0.347481883314    -0.123222086977     0.018302984181    31.972071174400
         O           -1.466558883314     1.014404913023    -0.383252015819    15.994914619570
         O           -0.608307583314    -0.470888086977     1.416065084181    15.994914619570
         O           -0.348020883314    -1.163522086977    -1.000896015819    15.994914619570
         C            1.122284116686     0.863792913023    -0.168709015819    12.000000000000
         C            2.361464116686     0.009375913023     0.071018984181    12.000000000000
         H            1.091231116686     1.271265913023    -1.182269015819     1.007825032230
         H            1.036813116686     1.683837913023     0.547721984181     1.007825032230
         H            3.253876116686     0.630120913023    -0.033262015819     1.007825032230
         H            2.349116116686    -0.414000086977     1.077560984181     1.007825032230
         H            2.413973116686    -0.804781086977    -0.653797015819     1.007825032230
         H           -2.148965883314     0.985894913023     0.320035984181     1.007825032230

  Basis Set: AUG-CC-PVTZ
    Blend: AUG-CC-PVTZ
  Basis Set: (AUG-CC-PVTZ AUX)
    Blend: AUG-CC-PVTZ-JKFIT
	 Reference Energy          =    -701.4447332683853347 [Eh]
	 Singles Energy            =      -0.0000000000000000 [Eh]
	 Same-Spin Energy          =      -0.3549054432471574 [Eh]
	 Opposite-Spin Energy      =      -1.0618881902000923 [Eh]
	 Correlation Energy        =      -1.4167936334472497 [Eh]
	 Total Energy              =    -702.8615269018325762 [Eh]

	 ================> DF-SCS-MP2 Energies <==================
	-----------------------------------------------------------
	 SCS Same-Spin Scale       =       0.3333333333333333 [-]
	 SCS Opposite-Spin Scale   =       1.2000000000000000 [-]
	 SCS Same-Spin Energy      =      -0.1183018144157191 [Eh]
	 SCS Opposite-Spin Energy  =      -1.2742658282401107 [Eh]
	 SCS Correlation Energy    =      -1.3925676426558298 [Eh]
	 SCS Total Energy          =    -702.8373009110412113 [Eh]
	-----------------------------------------------------------

  Dipole Moment: [D]
     X:     1.6667      Y:     3.0751      Z:     0.2618     Total:     3.5075

*** Psi4 exiting successfully. Buy a developer a beer!
