                               Psi4 1.4a3.dev225

  ==> Input File <==

--------------------------------------------------------------------------
#psi4
#
memory 32 gb

molecule  {
0 1
  S       -0.4214550    -0.1555270     0.0157730
  O       -1.5405390     0.9824510    -0.3857960
  O       -0.6405530    -0.4776100     1.4268170
  O       -0.4218140    -1.1955390    -1.0036730
  C        1.0647327     0.8427827    -0.1728899
  C        2.2874800    -0.0227220     0.0684980
  H        1.0171730     1.2397620    -1.1841120
  H        0.9625940     1.6512470     0.5461620
  H        3.1798380     0.5981340    -0.0356250
  H        2.2752130    -0.4464600     1.0748860
  H        2.3400010    -0.8366100    -0.6566250
  H       -2.2225040     0.9541210     0.3179500
units angstrom
no_reorient  #important for SAPT in psi4, default
symmetry c1  #important for SAPT in psi4, default
}

set PROPERTIES_ORIGIN ["COM"]
properties('MP2/aug-cc-pvtz', properties = ['dipole'])
--------------------------------------------------------------------------

    Molecular point group: c1
  Charge       = 0
  Multiplicity = 1
  Basis Set: AUG-CC-PVTZ
    Blend: AUG-CC-PVTZ
  Basis Set: (AUG-CC-PVTZ AUX)
    Blend: AUG-CC-PVTZ-JKFIT

    Orbital Energies [Eh]
    ---------------------

    Doubly Occupied:

       1A    -92.227134     2A    -20.635836     3A    -20.567952
       4A    -20.564663     5A    -11.293449     6A    -11.250329
       7A     -9.191195     8A     -6.876774     9A     -6.875144
      10A     -6.874945    11A     -1.495436    12A     -1.385613
      13A     -1.352076    14A     -1.096853    15A     -0.943303
      16A     -0.839054    17A     -0.746769    18A     -0.711259
      19A     -0.687862    20A     -0.660204    21A     -0.631637
      22A     -0.597138    23A     -0.569879    24A     -0.559351
      25A     -0.540902    26A     -0.521428    27A     -0.504316
      28A     -0.483783    29A     -0.471585

  @DF-RHF Final Energy:  -701.44433405166126

   => Energetics <=

    Nuclear Repulsion Energy =            356.7209301967148463
    One-Electron Energy =               -1674.0187948926113677
    Two-Electron Energy =                 615.8535306442353203
    Total Energy =                       -701.4443340516612579
  Basis Set: (AUG-CC-PVTZ AUX)
    Blend: AUG-CC-PVTZ-RI
    Molecular point group: c1

    Geometry (in Angstrom), charge = 0, multiplicity = 1:

       Center              X                  Y                   Z               Mass
    ------------   -----------------  -----------------  -----------------  -----------------
         S           -0.355365589639    -0.128304978778     0.016572091933    31.972071174400
         O           -1.474449589639     1.009673021222    -0.384996908067    15.994914619570
         O           -0.574463589639    -0.450387978778     1.427616091933    15.994914619570
         O           -0.355724589639    -1.168316978778    -1.002873908067    15.994914619570
         C            1.130822110361     0.870004721222    -0.172090808067    12.000000000000
         C            2.353569410361     0.004500021222     0.069297091933    12.000000000000
         H            1.083262410361     1.266984021222    -1.183312908067     1.007825032230
         H            1.028683410361     1.678469021222     0.546961091933     1.007825032230
         H            3.245927410361     0.625356021222    -0.034825908067     1.007825032230
         H            2.341302410361    -0.419237978778     1.075685091933     1.007825032230
         H            2.406090410361    -0.809387978778    -0.655825908067     1.007825032230
         H           -2.156414589639     0.981343021222     0.318749091933     1.007825032230

  Basis Set: AUG-CC-PVTZ
    Blend: AUG-CC-PVTZ
  Basis Set: (AUG-CC-PVTZ AUX)
    Blend: AUG-CC-PVTZ-JKFIT
	 Reference Energy          =    -701.4443340516612579 [Eh]
	 Singles Energy            =      -0.0000000000000000 [Eh]
	 Same-Spin Energy          =      -0.3549904383319224 [Eh]
	 Opposite-Spin Energy      =      -1.0621956213750363 [Eh]
	 Correlation Energy        =      -1.4171860597069588 [Eh]
	 Total Energy              =    -702.8615201113682360 [Eh]

	 ================> DF-SCS-MP2 Energies <==================
	-----------------------------------------------------------
	 SCS Same-Spin Scale       =       0.3333333333333333 [-]
	 SCS Opposite-Spin Scale   =       1.2000000000000000 [-]
	 SCS Same-Spin Energy      =      -0.1183301461106408 [Eh]
	 SCS Opposite-Spin Energy  =      -1.2746347456500435 [Eh]
	 SCS Correlation Energy    =      -1.3929648917606843 [Eh]
	 SCS Total Energy          =    -702.8372989434219562 [Eh]
	-----------------------------------------------------------

  Dipole Moment: [D]
     X:     1.5339      Y:     2.9978      Z:     0.2408     Total:     3.3760

*** Psi4 exiting successfully. Buy a developer a beer!
