                               Psi4 1.3.2 release

  ==> Input File <==

--------------------------------------------------------------------------
#psi4
#
memory 32 gb

molecule  {
0 1
  S       -0.4037469    -0.1801111     0.0221792
  O       -1.5405550     0.9822230    -0.3857470
  O       -0.6402970    -0.4772220     1.4269040
  O       -0.4220170    -1.1957040    -1.0033910
  C        1.0482880     0.8316110    -0.1712040
  C        2.2874680    -0.0228060     0.0685240
  H        1.0172350     1.2390840    -1.1847640
  H        0.9628170     1.6516560     0.5452270
  H        3.1798800     0.5979390    -0.0357570
  H        2.2751200    -0.4461820     1.0750660
  H        2.3399770    -0.8369630    -0.6562920
  H       -2.2229620     0.9537130     0.3175410
units angstrom
no_reorient  #important for SAPT in psi4, default
symmetry c1  #important for SAPT in psi4, default
}

set PROPERTIES_ORIGIN ["COM"]
properties('MP2/aug-cc-pvtz', properties = ['dipole'])
--------------------------------------------------------------------------

    Molecular point group: c1
  Charge       = 0
  Multiplicity = 1
  Basis Set: AUG-CC-PVTZ
    Blend: AUG-CC-PVTZ
  Basis Set: (AUG-CC-PVTZ AUX)
    Blend: AUG-CC-PVTZ-JKFIT

    Orbital Energies [Eh]
    ---------------------

    Doubly Occupied:

       1A    -92.227599     2A    -20.626346     3A    -20.570891
       4A    -20.569108     5A    -11.293340     6A    -11.251691
       7A     -9.191962     8A     -6.877510     9A     -6.875957
      10A     -6.875779    11A     -1.495065    12A     -1.378964
      13A     -1.361159    14A     -1.098453    15A     -0.942943
      16A     -0.833782    17A     -0.743774    18A     -0.710157
      19A     -0.688250    20A     -0.658110    21A     -0.633615
      22A     -0.595476    23A     -0.570522    24A     -0.554640
      25A     -0.541197    26A     -0.521103    27A     -0.508970
      28A     -0.488863    29A     -0.476823

  @DF-RHF Final Energy:  -701.44326500453224

   => Energetics <=

    Nuclear Repulsion Energy =            357.1640425615091772
    One-Electron Energy =               -1674.8905168470816989
    Two-Electron Energy =                 616.2832092810402855
    Total Energy =                       -701.4432650045322362
  Basis Set: (AUG-CC-PVTZ AUX)
    Blend: AUG-CC-PVTZ-RI
    Molecular point group: c1

    Geometry (in Angstrom), charge = 0, multiplicity = 1:

       Center              X                  Y                   Z               Mass
    ------------   -----------------  -----------------  -----------------  -----------------
         S           -0.341012157582    -0.144506571343     0.020883631639    31.972071174400
         O           -1.477820257582     1.017827528657    -0.387042568361    15.994914619570
         O           -0.577562257582    -0.441617471343     1.425608431639    15.994914619570
         O           -0.359282257582    -1.160099471343    -1.004686568361    15.994914619570
         C            1.111022742418     0.867215528657    -0.172499568361    12.000000000000
         C            2.350202742418     0.012798528657     0.067228431639    12.000000000000
         H            1.079969742418     1.274688528657    -1.186059568361     1.007825032230
         H            1.025551742418     1.687260528657     0.543931431639     1.007825032230
         H            3.242614742418     0.633543528657    -0.037052568361     1.007825032230
         H            2.337854742418    -0.410577471343     1.073770431639     1.007825032230
         H            2.402711742418    -0.801358471343    -0.657587568361     1.007825032230
         H           -2.160227257582     0.989317528657     0.316245431639     1.007825032230

  Basis Set: AUG-CC-PVTZ
    Blend: AUG-CC-PVTZ
  Basis Set: (AUG-CC-PVTZ AUX)
    Blend: AUG-CC-PVTZ-JKFIT
	 Reference Energy          =    -701.4432650045322362 [Eh]
	 Singles Energy            =      -0.0000000000000000 [Eh]
	 Same-Spin Energy          =      -0.3550076547909904 [Eh]
	 Opposite-Spin Energy      =      -1.0624896721598704 [Eh]
	 Correlation Energy        =      -1.4174973269508608 [Eh]
	 Total Energy              =    -702.8607623314831017 [Eh]

	 ================> DF-SCS-MP2 Energies <==================
	-----------------------------------------------------------
	 SCS Same-Spin Scale       =       0.3333333333333333 [-]
	 SCS Opposite-Spin Scale   =       1.2000000000000000 [-]
	 SCS Same-Spin Energy      =      -0.1183358849303301 [Eh]
	 SCS Opposite-Spin Energy  =      -1.2749876065918444 [Eh]
	 SCS Correlation Energy    =      -1.3933234915221746 [Eh]
	 SCS Total Energy          =    -702.8365884960544463 [Eh]
	-----------------------------------------------------------

  Dipole Moment: [D]
     X:     1.7303      Y:     2.7619      Z:     0.2849     Total:     3.2715

*** Psi4 exiting successfully. Buy a developer a beer!
