                               Psi4 1.3.2 release

  ==> Input File <==

--------------------------------------------------------------------------
#psi4
#
memory 32 gb

molecule  {
0 1
  S       -0.4214780    -0.1554040     0.0158080
  O       -1.6765690     1.1204916    -0.4345525
  O       -0.6402970    -0.4772220     1.4269040
  O       -0.4220170    -1.1957040    -1.0033910
  C        1.0482880     0.8316110    -0.1712040
  C        2.2874680    -0.0228060     0.0685240
  H        1.0172350     1.2390840    -1.1847640
  H        0.9628170     1.6516560     0.5452270
  H        3.1798800     0.5979390    -0.0357570
  H        2.2751200    -0.4461820     1.0750660
  H        2.3399770    -0.8369630    -0.6562920
  H       -2.2229620     0.9537130     0.3175410
units angstrom
no_reorient  #important for SAPT in psi4, default
symmetry c1  #important for SAPT in psi4, default
}

set PROPERTIES_ORIGIN ["COM"]
properties('MP2/aug-cc-pvtz', properties = ['dipole'])
--------------------------------------------------------------------------

    Molecular point group: c1
  Charge       = 0
  Multiplicity = 1
  Basis Set: AUG-CC-PVTZ
    Blend: AUG-CC-PVTZ
  Basis Set: (AUG-CC-PVTZ AUX)
    Blend: AUG-CC-PVTZ-JKFIT

    Orbital Energies [Eh]
    ---------------------

    Doubly Occupied:

       1A    -92.236117     2A    -20.620731     3A    -20.585574
       4A    -20.580522     5A    -11.302575     6A    -11.258091
       7A     -9.200558     8A     -6.885690     9A     -6.884149
      10A     -6.884020    11A     -1.480729    12A     -1.365896
      13A     -1.359872    14A     -1.104831    15A     -0.946931
      16A     -0.828497    17A     -0.720583    18A     -0.708057
      19A     -0.688168    20A     -0.664262    21A     -0.640728
      22A     -0.592102    23A     -0.572097    24A     -0.551104
      25A     -0.545732    26A     -0.519143    27A     -0.513788
      28A     -0.496122    29A     -0.477437

  @DF-RHF Final Energy:  -701.41486133543583

   => Energetics <=

    Nuclear Repulsion Energy =            350.1132658362517986
    One-Electron Energy =               -1660.6280397497228023
    Two-Electron Energy =                 609.0999125780350596
    Total Energy =                       -701.4148613354358304
  Basis Set: (AUG-CC-PVTZ AUX)
    Blend: AUG-CC-PVTZ-RI
    Molecular point group: c1

    Geometry (in Angstrom), charge = 0, multiplicity = 1:

       Center              X                  Y                   Z               Mass
    ------------   -----------------  -----------------  -----------------  -----------------
         S           -0.333812908129    -0.147085188383     0.023460673213    31.972071174400
         O           -1.588903908129     1.128810411617    -0.426899826787    15.994914619570
         O           -0.552631908129    -0.468903188383     1.434556673213    15.994914619570
         O           -0.334351908129    -1.187385188383    -0.995738326787    15.994914619570
         C            1.135953091871     0.839929811617    -0.163551326787    12.000000000000
         C            2.375133091871    -0.014487188383     0.076176673213    12.000000000000
         H            1.104900091871     1.247402811617    -1.177111326787     1.007825032230
         H            1.050482091871     1.659974811617     0.552879673213     1.007825032230
         H            3.267545091871     0.606257811617    -0.028104326787     1.007825032230
         H            2.362785091871    -0.437863188383     1.082718673213     1.007825032230
         H            2.427642091871    -0.828644188383    -0.648639326787     1.007825032230
         H           -2.135296908129     0.962031811617     0.325193673213     1.007825032230

  Basis Set: AUG-CC-PVTZ
    Blend: AUG-CC-PVTZ
  Basis Set: (AUG-CC-PVTZ AUX)
    Blend: AUG-CC-PVTZ-JKFIT
	 Reference Energy          =    -701.4148613354358304 [Eh]
	 Singles Energy            =      -0.0000000000000000 [Eh]
	 Same-Spin Energy          =      -0.3577160442343977 [Eh]
	 Opposite-Spin Energy      =      -1.0714573326456649 [Eh]
	 Correlation Energy        =      -1.4291733768800627 [Eh]
	 Total Energy              =    -702.8440347123158745 [Eh]

	 ================> DF-SCS-MP2 Energies <==================
	-----------------------------------------------------------
	 SCS Same-Spin Scale       =       0.3333333333333333 [-]
	 SCS Opposite-Spin Scale   =       1.2000000000000000 [-]
	 SCS Same-Spin Energy      =      -0.1192386814114659 [Eh]
	 SCS Opposite-Spin Energy  =      -1.2857487991747978 [Eh]
	 SCS Correlation Energy    =      -1.4049874805862637 [Eh]
	 SCS Total Energy          =    -702.8198488160220450 [Eh]
	-----------------------------------------------------------

  Dipole Moment: [D]
     X:     2.5617      Y:     2.1973      Z:     0.4522     Total:     3.4051

*** Psi4 exiting successfully. Buy a developer a beer!
