                               Psi4 1.3.2 release

  ==> Input File <==

--------------------------------------------------------------------------
#psi4
#
memory 32 gb

molecule  {
0 1
  S       -0.4407709    -0.1163260     0.0601036
  O       -1.5405550     0.9822230    -0.3857470
  O       -0.6402970    -0.4772220     1.4269040
  O       -0.4220170    -1.1957040    -1.0033910
  C        1.0482880     0.8316110    -0.1712040
  C        2.2874680    -0.0228060     0.0685240
  H        1.0172350     1.2390840    -1.1847640
  H        0.9628170     1.6516560     0.5452270
  H        3.1798800     0.5979390    -0.0357570
  H        2.2751200    -0.4461820     1.0750660
  H        2.3399770    -0.8369630    -0.6562920
  H       -2.2229620     0.9537130     0.3175410
units angstrom
no_reorient  #important for SAPT in psi4, default
symmetry c1  #important for SAPT in psi4, default
}

set PROPERTIES_ORIGIN ["COM"]
properties('MP2/aug-cc-pvtz', properties = ['dipole'])
--------------------------------------------------------------------------

    Molecular point group: c1
  Charge       = 0
  Multiplicity = 1
  Basis Set: AUG-CC-PVTZ
    Blend: AUG-CC-PVTZ
  Basis Set: (AUG-CC-PVTZ AUX)
    Blend: AUG-CC-PVTZ-JKFIT

    Orbital Energies [Eh]
    ---------------------

    Doubly Occupied:

       1A    -92.227321     2A    -20.646733     3A    -20.576940
       4A    -20.548913     5A    -11.292495     6A    -11.249866
       7A     -9.191862     8A     -6.877482     9A     -6.876048
      10A     -6.875294    11A     -1.506901    12A     -1.400998
      13A     -1.329069    14A     -1.096141    15A     -0.947266
      16A     -0.842198    17A     -0.752683    18A     -0.718205
      19A     -0.689673    20A     -0.660384    21A     -0.635513
      22A     -0.594308    23A     -0.572985    24A     -0.557744
      25A     -0.538600    26A     -0.528774    27A     -0.496717
      28A     -0.473844    29A     -0.465841

  @DF-RHF Final Energy:  -701.43845671226654

   => Energetics <=

    Nuclear Repulsion Energy =            357.1543124332008574
    One-Electron Energy =               -1674.8439397822783121
    Two-Electron Energy =                 616.2511706368109117
    Total Energy =                       -701.4384567122665430
  Basis Set: (AUG-CC-PVTZ AUX)
    Blend: AUG-CC-PVTZ-RI
    Molecular point group: c1

    Geometry (in Angstrom), charge = 0, multiplicity = 1:

       Center              X                  Y                   Z               Mass
    ------------   -----------------  -----------------  -----------------  -----------------
         S           -0.367275308072    -0.099260307290     0.047785485151    31.972071174400
         O           -1.467059408072     0.999288692710    -0.398065114849    15.994914619570
         O           -0.566801408072    -0.460156307290     1.414585885151    15.994914619570
         O           -0.348521408072    -1.178638307290    -1.015709114849    15.994914619570
         C            1.121783591928     0.848676692710    -0.183522114849    12.000000000000
         C            2.360963591928    -0.005740307290     0.056205885151    12.000000000000
         H            1.090730591928     1.256149692710    -1.197082114849     1.007825032230
         H            1.036312591928     1.668721692710     0.532908885151     1.007825032230
         H            3.253375591928     0.615004692710    -0.048075114849     1.007825032230
         H            2.348615591928    -0.429116307290     1.062747885151     1.007825032230
         H            2.413472591928    -0.819897307290    -0.668610114849     1.007825032230
         H           -2.149466408072     0.970778692710     0.305222885151     1.007825032230

  Basis Set: AUG-CC-PVTZ
    Blend: AUG-CC-PVTZ
  Basis Set: (AUG-CC-PVTZ AUX)
    Blend: AUG-CC-PVTZ-JKFIT
	 Reference Energy          =    -701.4384567122665430 [Eh]
	 Singles Energy            =      -0.0000000000000000 [Eh]
	 Same-Spin Energy          =      -0.3550669840464012 [Eh]
	 Opposite-Spin Energy      =      -1.0620642120359185 [Eh]
	 Correlation Energy        =      -1.4171311960823196 [Eh]
	 Total Energy              =    -702.8555879083488662 [Eh]

	 ================> DF-SCS-MP2 Energies <==================
	-----------------------------------------------------------
	 SCS Same-Spin Scale       =       0.3333333333333333 [-]
	 SCS Opposite-Spin Scale   =       1.2000000000000000 [-]
	 SCS Same-Spin Energy      =      -0.1183556613488004 [Eh]
	 SCS Opposite-Spin Energy  =      -1.2744770544431021 [Eh]
	 SCS Correlation Energy    =      -1.3928327157919025 [Eh]
	 SCS Total Energy          =    -702.8312894280584260 [Eh]
	-----------------------------------------------------------

  Dipole Moment: [D]
     X:     1.3122      Y:     3.4021      Z:     0.6803     Total:     3.7093

*** Psi4 exiting successfully. Buy a developer a beer!
