                               Psi4 1.4a3.dev225

  ==> Input File <==

--------------------------------------------------------------------------
#psi4
#
memory 32 gb

molecule  {
0 1
  S       -0.4214550    -0.1555270     0.0157730
  O       -1.5745375     1.0170235    -0.3979959
  O       -0.6405530    -0.4776100     1.4268170
  O       -0.4218140    -1.1955390    -1.0036730
  C        1.0482220     0.8316920    -0.1707940
  C        2.2874800    -0.0227220     0.0684980
  H        1.0171730     1.2397620    -1.1841120
  H        0.9625940     1.6512470     0.5461620
  H        3.1798380     0.5981340    -0.0356250
  H        2.2752130    -0.4464600     1.0748860
  H        2.3400010    -0.8366100    -0.6566250
  H       -2.2225040     0.9541210     0.3179500
units angstrom
no_reorient  #important for SAPT in psi4, default
symmetry c1  #important for SAPT in psi4, default
}

set PROPERTIES_ORIGIN ["COM"]
properties('MP2/aug-cc-pvtz', properties = ['dipole'])
--------------------------------------------------------------------------

    Molecular point group: c1
  Charge       = 0
  Multiplicity = 1
  Basis Set: AUG-CC-PVTZ
    Blend: AUG-CC-PVTZ
  Basis Set: (AUG-CC-PVTZ AUX)
    Blend: AUG-CC-PVTZ-JKFIT

    Orbital Energies [Eh]
    ---------------------

    Doubly Occupied:

       1A    -92.230541     2A    -20.631961     3A    -20.572677
       4A    -20.569022     5A    -11.295474     6A    -11.252793
       7A     -9.194586     8A     -6.880029     9A     -6.878490
      10A     -6.878311    11A     -1.489129    12A     -1.381381
      13A     -1.355385    14A     -1.099330    15A     -0.945222
      16A     -0.834052    17A     -0.742623    18A     -0.710149
      19A     -0.687103    20A     -0.660432    21A     -0.633634
      22A     -0.595478    23A     -0.570353    24A     -0.556166
      25A     -0.541805    26A     -0.521282    27A     -0.507025
      28A     -0.487389    29A     -0.476997

  @DF-RHF Final Energy:  -701.43975018054425

   => Energetics <=

    Nuclear Repulsion Energy =            355.2656931669565097
    One-Electron Energy =               -1671.0532469376048539
    Two-Electron Energy =                 614.3478035901041494
    Total Energy =                       -701.4397501805442516
  Basis Set: (AUG-CC-PVTZ AUX)
    Blend: AUG-CC-PVTZ-RI
    Molecular point group: c1

    Geometry (in Angstrom), charge = 0, multiplicity = 1:

       Center              X                  Y                   Z               Mass
    ------------   -----------------  -----------------  -----------------  -----------------
         S           -0.348620988642    -0.132122082536     0.018117362302    31.972071174400
         O           -1.501703488642     1.040428417464    -0.395651537698    15.994914619570
         O           -0.567718988642    -0.454205082536     1.429161362302    15.994914619570
         O           -0.348979988642    -1.172134082536    -1.001328637698    15.994914619570
         C            1.121056011358     0.855096917464    -0.168449637698    12.000000000000
         C            2.360314011358     0.000682917464     0.070842362302    12.000000000000
         H            1.090007011358     1.263166917464    -1.181767637698     1.007825032230
         H            1.035428011358     1.674651917464     0.548506362302     1.007825032230
         H            3.252672011358     0.621538917464    -0.033280637698     1.007825032230
         H            2.348047011358    -0.423055082536     1.077230362302     1.007825032230
         H            2.412835011358    -0.813205082536    -0.654280637698     1.007825032230
         H           -2.149669988642     0.977525917464     0.320294362302     1.007825032230

  Basis Set: AUG-CC-PVTZ
    Blend: AUG-CC-PVTZ
  Basis Set: (AUG-CC-PVTZ AUX)
    Blend: AUG-CC-PVTZ-JKFIT
	 Reference Energy          =    -701.4397501805442516 [Eh]
	 Singles Energy            =      -0.0000000000000000 [Eh]
	 Same-Spin Energy          =      -0.3555769947068900 [Eh]
	 Opposite-Spin Energy      =      -1.0642385316478120 [Eh]
	 Correlation Energy        =      -1.4198155263547019 [Eh]
	 Total Energy              =    -702.8595657068989340 [Eh]

	 ================> DF-SCS-MP2 Energies <==================
	-----------------------------------------------------------
	 SCS Same-Spin Scale       =       0.3333333333333333 [-]
	 SCS Opposite-Spin Scale   =       1.2000000000000000 [-]
	 SCS Same-Spin Energy      =      -0.1185256649022967 [Eh]
	 SCS Opposite-Spin Energy  =      -1.2770862379773744 [Eh]
	 SCS Correlation Energy    =      -1.3956119028796710 [Eh]
	 SCS Total Energy          =    -702.8353620834238882 [Eh]
	-----------------------------------------------------------

  Dipole Moment: [D]
     X:     1.8070      Y:     2.7972      Z:     0.2932     Total:     3.3430

*** Psi4 exiting successfully. Buy a developer a beer!
