                               Psi4 1.3.2 release

  ==> Input File <==

--------------------------------------------------------------------------
#psi4
#
memory 32 gb

molecule  {
0 1
  S       -0.4214780    -0.1554040     0.0158080
  O       -1.5405550     0.9822230    -0.3857470
  O       -0.5980237    -0.4509819     1.4385187
  O       -0.4220170    -1.1957040    -1.0033910
  C        1.0482880     0.8316110    -0.1712040
  C        2.2874680    -0.0228060     0.0685240
  H        1.0172350     1.2390840    -1.1847640
  H        0.9628170     1.6516560     0.5452270
  H        3.1798800     0.5979390    -0.0357570
  H        2.2751200    -0.4461820     1.0750660
  H        2.3399770    -0.8369630    -0.6562920
  H       -2.2229620     0.9537130     0.3175410
units angstrom
no_reorient  #important for SAPT in psi4, default
symmetry c1  #important for SAPT in psi4, default
}

set PROPERTIES_ORIGIN ["COM"]
properties('MP2/aug-cc-pvtz', properties = ['dipole'])
--------------------------------------------------------------------------

    Molecular point group: c1
  Charge       = 0
  Multiplicity = 1
  Basis Set: AUG-CC-PVTZ
    Blend: AUG-CC-PVTZ
  Basis Set: (AUG-CC-PVTZ AUX)
    Blend: AUG-CC-PVTZ-JKFIT

    Orbital Energies [Eh]
    ---------------------

    Doubly Occupied:

       1A    -92.228314     2A    -20.637585     3A    -20.568638
       4A    -20.566818     5A    -11.290258     6A    -11.249371
       7A     -9.192391     8A     -6.877986     9A     -6.876418
      10A     -6.876149    11A     -1.496772    12A     -1.387217
      13A     -1.354350    14A     -1.095100    15A     -0.943905
      16A     -0.838042    17A     -0.748423    18A     -0.712293
      19A     -0.688109    20A     -0.658324    21A     -0.631695
      22A     -0.597227    23A     -0.569780    24A     -0.555578
      25A     -0.538746    26A     -0.522604    27A     -0.505527
      28A     -0.484992    29A     -0.473985

  @DF-RHF Final Energy:  -701.44381403302043

   => Energetics <=

    Nuclear Repulsion Energy =            357.2680421786776606
    One-Electron Energy =               -1675.0905204240491457
    Two-Electron Energy =                 616.3786642123510546
    Total Energy =                       -701.4438140330204305
  Basis Set: (AUG-CC-PVTZ AUX)
    Blend: AUG-CC-PVTZ-RI
    Molecular point group: c1

    Geometry (in Angstrom), charge = 0, multiplicity = 1:

       Center              X                  Y                   Z               Mass
    ------------   -----------------  -----------------  -----------------  -----------------
         S           -0.359736476612    -0.130795870569     0.014675374471    31.972071174400
         O           -1.478813476612     1.006831129431    -0.386879625529    15.994914619570
         O           -0.536282176612    -0.426373770569     1.437386074471    15.994914619570
         O           -0.360275476612    -1.171095870569    -1.004523625529    15.994914619570
         C            1.110029523388     0.856219129431    -0.172336625529    12.000000000000
         C            2.349209523388     0.001802129431     0.067391374471    12.000000000000
         H            1.078976523388     1.263692129431    -1.185896625529     1.007825032230
         H            1.024558523388     1.676264129431     0.544094374471     1.007825032230
         H            3.241621523388     0.622547129431    -0.036889625529     1.007825032230
         H            2.336861523388    -0.421573870569     1.073933374471     1.007825032230
         H            2.401718523388    -0.812354870569    -0.657424625529     1.007825032230
         H           -2.161220476612     0.978321129431     0.316408374471     1.007825032230

  Basis Set: AUG-CC-PVTZ
    Blend: AUG-CC-PVTZ
  Basis Set: (AUG-CC-PVTZ AUX)
    Blend: AUG-CC-PVTZ-JKFIT
	 Reference Energy          =    -701.4438140330204305 [Eh]
	 Singles Energy            =      -0.0000000000000000 [Eh]
	 Same-Spin Energy          =      -0.3551374165537240 [Eh]
	 Opposite-Spin Energy      =      -1.0624398520330884 [Eh]
	 Correlation Energy        =      -1.4175772685868124 [Eh]
	 Total Energy              =    -702.8613913016072274 [Eh]

	 ================> DF-SCS-MP2 Energies <==================
	-----------------------------------------------------------
	 SCS Same-Spin Scale       =       0.3333333333333333 [-]
	 SCS Opposite-Spin Scale   =       1.2000000000000000 [-]
	 SCS Same-Spin Energy      =      -0.1183791388512413 [Eh]
	 SCS Opposite-Spin Energy  =      -1.2749278224397060 [Eh]
	 SCS Correlation Energy    =      -1.3933069612909474 [Eh]
	 SCS Total Energy          =    -702.8371209943113627 [Eh]
	-----------------------------------------------------------

  Dipole Moment: [D]
     X:     1.4055      Y:     2.9369      Z:     0.2175     Total:     3.2631

*** Psi4 exiting successfully. Buy a developer a beer!
