                               Psi4 1.4a3.dev225

  ==> Input File <==

--------------------------------------------------------------------------
#psi4
#
memory 32 gb

molecule  {
0 1
  S       -0.4214550    -0.1555270     0.0157730
  O       -1.5405390     0.9824510    -0.3857960
  O       -0.6405530    -0.4776100     1.4268170
  O       -0.4218140    -1.1955390    -1.0036730
  C        1.0894988     0.8594187    -0.1760339
  C        2.2874800    -0.0227220     0.0684980
  H        1.0171730     1.2397620    -1.1841120
  H        0.9625940     1.6512470     0.5461620
  H        3.1798380     0.5981340    -0.0356250
  H        2.2752130    -0.4464600     1.0748860
  H        2.3400010    -0.8366100    -0.6566250
  H       -2.2225040     0.9541210     0.3179500
units angstrom
no_reorient  #important for SAPT in psi4, default
symmetry c1  #important for SAPT in psi4, default
}

set PROPERTIES_ORIGIN ["COM"]
properties('MP2/aug-cc-pvtz', properties = ['dipole'])
--------------------------------------------------------------------------

    Molecular point group: c1
  Charge       = 0
  Multiplicity = 1
  Basis Set: AUG-CC-PVTZ
    Blend: AUG-CC-PVTZ
  Basis Set: (AUG-CC-PVTZ AUX)
    Blend: AUG-CC-PVTZ-JKFIT

    Orbital Energies [Eh]
    ---------------------

    Doubly Occupied:

       1A    -92.225597     2A    -20.635419     3A    -20.567580
       4A    -20.564304     5A    -11.294572     6A    -11.249795
       7A     -9.189622     8A     -6.875164     9A     -6.873523
      10A     -6.873303    11A     -1.494265    12A     -1.384994
      13A     -1.351432    14A     -1.096506    15A     -0.940709
      16A     -0.840443    17A     -0.745085    18A     -0.709948
      19A     -0.687891    20A     -0.661591    21A     -0.631784
      22A     -0.596928    23A     -0.571281    24A     -0.562446
      25A     -0.542290    26A     -0.520858    27A     -0.504312
      28A     -0.483396    29A     -0.465705

  @DF-RHF Final Energy:  -701.44291556740723

   => Energetics <=

    Nuclear Repulsion Energy =            356.1233249742372777
    One-Electron Energy =               -1672.8509886527456274
    Two-Electron Energy =                 615.2847481111011803
    Total Energy =                       -701.4429155674072263
  Basis Set: (AUG-CC-PVTZ AUX)
    Blend: AUG-CC-PVTZ-RI
    Molecular point group: c1

    Geometry (in Angstrom), charge = 0, multiplicity = 1:

       Center              X                  Y                   Z               Mass
    ------------   -----------------  -----------------  -----------------  -----------------
         S           -0.358067253527    -0.130119753023     0.016915062012    31.972071174400
         O           -1.477151253527     1.007858246977    -0.384653937988    15.994914619570
         O           -0.577165253527    -0.452202753023     1.427959062012    15.994914619570
         O           -0.358426253527    -1.170131753023    -1.002530937988    15.994914619570
         C            1.152886546473     0.884825946977    -0.174891837988    12.000000000000
         C            2.350867746473     0.002685246977     0.069640062012    12.000000000000
         H            1.080560746473     1.265169246977    -1.182969937988     1.007825032230
         H            1.025981746473     1.676654246977     0.547304062012     1.007825032230
         H            3.243225746473     0.623541246977    -0.034482937988     1.007825032230
         H            2.338600746473    -0.421052753023     1.076028062012     1.007825032230
         H            2.403388746473    -0.811202753023    -0.655482937988     1.007825032230
         H           -2.159116253527     0.979528246977     0.319092062012     1.007825032230

  Basis Set: AUG-CC-PVTZ
    Blend: AUG-CC-PVTZ
  Basis Set: (AUG-CC-PVTZ AUX)
    Blend: AUG-CC-PVTZ-JKFIT
	 Reference Energy          =    -701.4429155674072263 [Eh]
	 Singles Energy            =      -0.0000000000000000 [Eh]
	 Same-Spin Energy          =      -0.3550049048756131 [Eh]
	 Opposite-Spin Energy      =      -1.0623440051041739 [Eh]
	 Correlation Energy        =      -1.4173489099797871 [Eh]
	 Total Energy              =    -702.8602644773869770 [Eh]

	 ================> DF-SCS-MP2 Energies <==================
	-----------------------------------------------------------
	 SCS Same-Spin Scale       =       0.3333333333333333 [-]
	 SCS Opposite-Spin Scale   =       1.2000000000000000 [-]
	 SCS Same-Spin Energy      =      -0.1183349682918710 [Eh]
	 SCS Opposite-Spin Energy  =      -1.2748128061250086 [Eh]
	 SCS Correlation Energy    =      -1.3931477744168796 [Eh]
	 SCS Total Energy          =    -702.8360633418241150 [Eh]
	-----------------------------------------------------------

  Dipole Moment: [D]
     X:     1.5334      Y:     2.9870      Z:     0.2431     Total:     3.3664

*** Psi4 exiting successfully. Buy a developer a beer!
