                               Psi4 1.3.2 release

  ==> Input File <==

--------------------------------------------------------------------------
#psi4
#
memory 32 gb

molecule  {
0 1
  S       -0.4064935    -0.1486104    -0.0077319
  O       -1.5405550     0.9822230    -0.3857470
  O       -0.6402970    -0.4772220     1.4269040
  O       -0.4220170    -1.1957040    -1.0033910
  C        1.0482880     0.8316110    -0.1712040
  C        2.2874680    -0.0228060     0.0685240
  H        1.0172350     1.2390840    -1.1847640
  H        0.9628170     1.6516560     0.5452270
  H        3.1798800     0.5979390    -0.0357570
  H        2.2751200    -0.4461820     1.0750660
  H        2.3399770    -0.8369630    -0.6562920
  H       -2.2229620     0.9537130     0.3175410
units angstrom
no_reorient  #important for SAPT in psi4, default
symmetry c1  #important for SAPT in psi4, default
}

set PROPERTIES_ORIGIN ["COM"]
properties('MP2/aug-cc-pvtz', properties = ['dipole'])
--------------------------------------------------------------------------

    Molecular point group: c1
  Charge       = 0
  Multiplicity = 1
  Basis Set: AUG-CC-PVTZ
    Blend: AUG-CC-PVTZ
  Basis Set: (AUG-CC-PVTZ AUX)
    Blend: AUG-CC-PVTZ-JKFIT

    Orbital Energies [Eh]
    ---------------------

    Doubly Occupied:

       1A    -92.228472     2A    -20.635097     3A    -20.568063
       4A    -20.561621     5A    -11.294737     6A    -11.252812
       7A     -9.192703     8A     -6.878266     9A     -6.876625
      10A     -6.876482    11A     -1.493469    12A     -1.386698
      13A     -1.342524    14A     -1.102960    15A     -0.949068
      16A     -0.839107    17A     -0.749145    18A     -0.710926
      19A     -0.688652    20A     -0.659658    21A     -0.627642
      22A     -0.599185    23A     -0.568561    24A     -0.557801
      25A     -0.541862    26A     -0.519146    27A     -0.502521
      28A     -0.480873    29A     -0.476203

  @DF-RHF Final Energy:  -701.44243277469229

   => Energetics <=

    Nuclear Repulsion Energy =            357.1439066453886539
    One-Electron Energy =               -1674.8509259536988338
    Two-Electron Energy =                 616.2645865336179440
    Total Energy =                       -701.4424327746922927
  Basis Set: (AUG-CC-PVTZ AUX)
    Blend: AUG-CC-PVTZ-RI
    Molecular point group: c1

    Geometry (in Angstrom), charge = 0, multiplicity = 1:

       Center              X                  Y                   Z               Mass
    ------------   -----------------  -----------------  -----------------  -----------------
         S           -0.342960471355    -0.122161399978    -0.000333949406    31.972071174400
         O           -1.477021971355     1.008672000022    -0.378349049406    15.994914619570
         O           -0.576763971355    -0.450772999978     1.434301950594    15.994914619570
         O           -0.358483971355    -1.169254999978    -0.995993049406    15.994914619570
         C            1.111821028645     0.858060000022    -0.163806049406    12.000000000000
         C            2.351001028645     0.003643000022     0.075921950594    12.000000000000
         H            1.080768028645     1.265533000022    -1.177366049406     1.007825032230
         H            1.026350028645     1.678105000022     0.552624950594     1.007825032230
         H            3.243413028645     0.624388000022    -0.028359049406     1.007825032230
         H            2.338653028645    -0.419732999978     1.082463950594     1.007825032230
         H            2.403510028645    -0.810513999978    -0.648894049406     1.007825032230
         H           -2.159428971355     0.980162000022     0.324938950594     1.007825032230

  Basis Set: AUG-CC-PVTZ
    Blend: AUG-CC-PVTZ
  Basis Set: (AUG-CC-PVTZ AUX)
    Blend: AUG-CC-PVTZ-JKFIT
	 Reference Energy          =    -701.4424327746922927 [Eh]
	 Singles Energy            =      -0.0000000000000000 [Eh]
	 Same-Spin Energy          =      -0.3552604668162619 [Eh]
	 Opposite-Spin Energy      =      -1.0624713383665263 [Eh]
	 Correlation Energy        =      -1.4177318051827883 [Eh]
	 Total Energy              =    -702.8601645798751179 [Eh]

	 ================> DF-SCS-MP2 Energies <==================
	-----------------------------------------------------------
	 SCS Same-Spin Scale       =       0.3333333333333333 [-]
	 SCS Opposite-Spin Scale   =       1.2000000000000000 [-]
	 SCS Same-Spin Energy      =      -0.1184201556054206 [Eh]
	 SCS Opposite-Spin Energy  =      -1.2749656060398316 [Eh]
	 SCS Correlation Energy    =      -1.3933857616452521 [Eh]
	 SCS Total Energy          =    -702.8358185363375696 [Eh]
	-----------------------------------------------------------

  Dipole Moment: [D]
     X:     1.6842      Y:     3.0497      Z:     0.0126     Total:     3.4838

*** Psi4 exiting successfully. Buy a developer a beer!
