                               Psi4 1.3.2 release

  ==> Input File <==

--------------------------------------------------------------------------
#psi4
#
memory 32 gb

molecule  {
0 1
  S       -0.4214780    -0.1554040     0.0158080
  O       -1.5405550     0.9822230    -0.3857470
  O       -0.6448048    -0.5264654     1.4140494
  O       -0.4220170    -1.1957040    -1.0033910
  C        1.0482880     0.8316110    -0.1712040
  C        2.2874680    -0.0228060     0.0685240
  H        1.0172350     1.2390840    -1.1847640
  H        0.9628170     1.6516560     0.5452270
  H        3.1798800     0.5979390    -0.0357570
  H        2.2751200    -0.4461820     1.0750660
  H        2.3399770    -0.8369630    -0.6562920
  H       -2.2229620     0.9537130     0.3175410
units angstrom
no_reorient  #important for SAPT in psi4, default
symmetry c1  #important for SAPT in psi4, default
}

set PROPERTIES_ORIGIN ["COM"]
properties('MP2/aug-cc-pvtz', properties = ['dipole'])
--------------------------------------------------------------------------

    Molecular point group: c1
  Charge       = 0
  Multiplicity = 1
  Basis Set: AUG-CC-PVTZ
    Blend: AUG-CC-PVTZ
  Basis Set: (AUG-CC-PVTZ AUX)
    Blend: AUG-CC-PVTZ-JKFIT

    Orbital Energies [Eh]
    ---------------------

    Doubly Occupied:

       1A    -92.227421     2A    -20.637813     3A    -20.567768
       4A    -20.561282     5A    -11.294238     6A    -11.251252
       7A     -9.191619     8A     -6.877203     9A     -6.875588
      10A     -6.875408    11A     -1.495843    12A     -1.387158
      13A     -1.349441    14A     -1.098379    15A     -0.945947
      16A     -0.838491    17A     -0.748352    18A     -0.712275
      19A     -0.687386    20A     -0.659716    21A     -0.631033
      22A     -0.597474    23A     -0.569968    24A     -0.557148
      25A     -0.540313    26A     -0.521932    27A     -0.501928
      28A     -0.482510    29A     -0.475109

  @DF-RHF Final Energy:  -701.44464275162466

   => Energetics <=

    Nuclear Repulsion Energy =            357.0448797507553991
    One-Electron Energy =               -1674.6590476286783087
    Two-Electron Energy =                 616.1695251262982538
    Total Energy =                       -701.4446427516246558
  Basis Set: (AUG-CC-PVTZ AUX)
    Blend: AUG-CC-PVTZ-RI
    Molecular point group: c1

    Geometry (in Angstrom), charge = 0, multiplicity = 1:

       Center              X                  Y                   Z               Mass
    ------------   -----------------  -----------------  -----------------  -----------------
         S           -0.352934348532    -0.119820317731     0.018233292361    31.972071174400
         O           -1.472011348532     1.017806682269    -0.383321707639    15.994914619570
         O           -0.576261148532    -0.490881717731     1.416474692361    15.994914619570
         O           -0.353473348532    -1.160120317731    -1.000965707639    15.994914619570
         C            1.116831651468     0.867194682269    -0.168778707639    12.000000000000
         C            2.356011651468     0.012777682269     0.070949292361    12.000000000000
         H            1.085778651468     1.274667682269    -1.182338707639     1.007825032230
         H            1.031360651468     1.687239682269     0.547652292361     1.007825032230
         H            3.248423651468     0.633522682269    -0.033331707639     1.007825032230
         H            2.343663651468    -0.410598317731     1.077491292361     1.007825032230
         H            2.408520651468    -0.801379317731    -0.653866707639     1.007825032230
         H           -2.154418348532     0.989296682269     0.319966292361     1.007825032230

  Basis Set: AUG-CC-PVTZ
    Blend: AUG-CC-PVTZ
  Basis Set: (AUG-CC-PVTZ AUX)
    Blend: AUG-CC-PVTZ-JKFIT
	 Reference Energy          =    -701.4446427516246558 [Eh]
	 Singles Energy            =      -0.0000000000000000 [Eh]
	 Same-Spin Energy          =      -0.3549427123389284 [Eh]
	 Opposite-Spin Energy      =      -1.0619817449891333 [Eh]
	 Correlation Energy        =      -1.4169244573280617 [Eh]
	 Total Energy              =    -702.8615672089526925 [Eh]

	 ================> DF-SCS-MP2 Energies <==================
	-----------------------------------------------------------
	 SCS Same-Spin Scale       =       0.3333333333333333 [-]
	 SCS Opposite-Spin Scale   =       1.2000000000000000 [-]
	 SCS Same-Spin Energy      =      -0.1183142374463095 [Eh]
	 SCS Opposite-Spin Energy  =      -1.2743780939869600 [Eh]
	 SCS Correlation Energy    =      -1.3926923314332695 [Eh]
	 SCS Total Energy          =    -702.8373350830579511 [Eh]
	-----------------------------------------------------------

  Dipole Moment: [D]
     X:     1.5527      Y:     3.1339      Z:     0.2768     Total:     3.5084

*** Psi4 exiting successfully. Buy a developer a beer!
