                               Psi4 1.3.2 release

  ==> Input File <==

--------------------------------------------------------------------------
#psi4
#
memory 32 gb

molecule  {
0 1
  S       -0.4214780    -0.1554040     0.0158080
  O       -1.5405550     0.9822230    -0.3857470
  O       -0.6402970    -0.4772220     1.4269040
  O       -0.4220170    -1.1957040    -1.0033910
  C        1.2134046     0.9424943    -0.1922133
  C        2.2874680    -0.0228060     0.0685240
  H        1.0172350     1.2390840    -1.1847640
  H        0.9628170     1.6516560     0.5452270
  H        3.1798800     0.5979390    -0.0357570
  H        2.2751200    -0.4461820     1.0750660
  H        2.3399770    -0.8369630    -0.6562920
  H       -2.2229620     0.9537130     0.3175410
units angstrom
no_reorient  #important for SAPT in psi4, default
symmetry c1  #important for SAPT in psi4, default
}

set PROPERTIES_ORIGIN ["COM"]
properties('MP2/aug-cc-pvtz', properties = ['dipole'])
--------------------------------------------------------------------------

    Molecular point group: c1
  Charge       = 0
  Multiplicity = 1
  Basis Set: AUG-CC-PVTZ
    Blend: AUG-CC-PVTZ
  Basis Set: (AUG-CC-PVTZ AUX)
    Blend: AUG-CC-PVTZ-JKFIT

    Orbital Energies [Eh]
    ---------------------

    Doubly Occupied:

       1A    -92.213646     2A    -20.631163     3A    -20.563691
       4A    -20.560483     5A    -11.304385     6A    -11.250460
       7A     -9.178332     8A     -6.863591     9A     -6.862004
      10A     -6.861577    11A     -1.487303    12A     -1.380197
      13A     -1.346508    14A     -1.099707    15A     -0.929609
      16A     -0.845952    17A     -0.736622    18A     -0.702402
      19A     -0.691428    20A     -0.665520    21A     -0.628825
      22A     -0.600628    23A     -0.588492    24A     -0.561463
      25A     -0.549506    26A     -0.516884    27A     -0.501465
      28A     -0.480127    29A     -0.431936

  @DF-RHF Final Energy:  -701.42045580437173

   => Energetics <=

    Nuclear Repulsion Energy =            353.2897788374061747
    One-Electron Energy =               -1667.3526561779988242
    Two-Electron Energy =                 612.6424215362209225
    Total Energy =                       -701.4204558043717270
  Basis Set: (AUG-CC-PVTZ AUX)
    Blend: AUG-CC-PVTZ-RI
    Molecular point group: c1

    Geometry (in Angstrom), charge = 0, multiplicity = 1:

       Center              X                  Y                   Z               Mass
    ------------   -----------------  -----------------  -----------------  -----------------
         S           -0.371601901156    -0.139076418412     0.018656035805    31.972071174400
         O           -1.490678901156     0.998550581588    -0.382898964195    15.994914619570
         O           -0.590420901156    -0.460894418412     1.429752035805    15.994914619570
         O           -0.372140901156    -1.179376418412    -1.000542964195    15.994914619570
         C            1.263280698844     0.958821881588    -0.189365264195    12.000000000000
         C            2.337344098844    -0.006478418412     0.071372035805    12.000000000000
         H            1.067111098844     1.255411581588    -1.181915964195     1.007825032230
         H            1.012693098844     1.667983581588     0.548075035805     1.007825032230
         H            3.229756098844     0.614266581588    -0.032908964195     1.007825032230
         H            2.324996098844    -0.429854418412     1.077914035805     1.007825032230
         H            2.389853098844    -0.820635418412    -0.653443964195     1.007825032230
         H           -2.173085901156     0.970040581588     0.320389035805     1.007825032230

  Basis Set: AUG-CC-PVTZ
    Blend: AUG-CC-PVTZ
  Basis Set: (AUG-CC-PVTZ AUX)
    Blend: AUG-CC-PVTZ-JKFIT
	 Reference Energy          =    -701.4204558043717270 [Eh]
	 Singles Energy            =      -0.0000000000000000 [Eh]
	 Same-Spin Energy          =      -0.3557915283855998 [Eh]
	 Opposite-Spin Energy      =      -1.0643242832718838 [Eh]
	 Correlation Energy        =      -1.4201158116574835 [Eh]
	 Total Energy              =    -702.8405716160292513 [Eh]

	 ================> DF-SCS-MP2 Energies <==================
	-----------------------------------------------------------
	 SCS Same-Spin Scale       =       0.3333333333333333 [-]
	 SCS Opposite-Spin Scale   =       1.2000000000000000 [-]
	 SCS Same-Spin Energy      =      -0.1185971761285333 [Eh]
	 SCS Opposite-Spin Energy  =      -1.2771891399262605 [Eh]
	 SCS Correlation Energy    =      -1.3957863160547936 [Eh]
	 SCS Total Energy          =    -702.8162421204265229 [Eh]
	-----------------------------------------------------------

  Dipole Moment: [D]
     X:     1.6204      Y:     2.9551      Z:     0.2489     Total:     3.3794

*** Psi4 exiting successfully. Buy a developer a beer!
