                               Psi4 1.3.2 release

  ==> Input File <==

--------------------------------------------------------------------------
#psi4
#
memory 32 gb

molecule  {
0 1
  S       -0.4214780    -0.1554040     0.0158080
  O       -1.5405550     0.9822230    -0.3857470
  O       -0.6529989    -0.6235367     1.3832474
  O       -0.4220170    -1.1957040    -1.0033910
  C        1.0482880     0.8316110    -0.1712040
  C        2.2874680    -0.0228060     0.0685240
  H        1.0172350     1.2390840    -1.1847640
  H        0.9628170     1.6516560     0.5452270
  H        3.1798800     0.5979390    -0.0357570
  H        2.2751200    -0.4461820     1.0750660
  H        2.3399770    -0.8369630    -0.6562920
  H       -2.2229620     0.9537130     0.3175410
units angstrom
no_reorient  #important for SAPT in psi4, default
symmetry c1  #important for SAPT in psi4, default
}

set PROPERTIES_ORIGIN ["COM"]
properties('MP2/aug-cc-pvtz', properties = ['dipole'])
--------------------------------------------------------------------------

    Molecular point group: c1
  Charge       = 0
  Multiplicity = 1
  Basis Set: AUG-CC-PVTZ
    Blend: AUG-CC-PVTZ
  Basis Set: (AUG-CC-PVTZ AUX)
    Blend: AUG-CC-PVTZ-JKFIT

    Orbital Energies [Eh]
    ---------------------

    Doubly Occupied:

       1A    -92.226212     2A    -20.641226     3A    -20.566863
       4A    -20.554013     5A    -11.296964     6A    -11.252101
       7A     -9.190600     8A     -6.876147     9A     -6.874558
      10A     -6.874358    11A     -1.495187    12A     -1.389595
      13A     -1.342781    14A     -1.100437    15A     -0.947598
      16A     -0.839285    17A     -0.749191    18A     -0.712578
      19A     -0.686345    20A     -0.660543    21A     -0.630199
      22A     -0.597668    23A     -0.570463    24A     -0.558363
      25A     -0.541021    26A     -0.522109    27A     -0.497175
      28A     -0.480477    29A     -0.472517

  @DF-RHF Final Energy:  -701.44275060262248

   => Energetics <=

    Nuclear Repulsion Energy =            356.9114857621624424
    One-Electron Energy =               -1674.4153182214049593
    Two-Electron Energy =                 616.0610818566199214
    Total Energy =                       -701.4427506026224819
  Basis Set: (AUG-CC-PVTZ AUX)
    Blend: AUG-CC-PVTZ-RI
    Molecular point group: c1

    Geometry (in Angstrom), charge = 0, multiplicity = 1:

       Center              X                  Y                   Z               Mass
    ------------   -----------------  -----------------  -----------------  -----------------
         S           -0.351742899043    -0.105705826719     0.022712005968    31.972071174400
         O           -1.470819899043     1.031921173281    -0.378842994032    15.994914619570
         O           -0.583263799043    -0.573838526719     1.390151405968    15.994914619570
         O           -0.352281899043    -1.146005826719    -0.996486994032    15.994914619570
         C            1.118023100957     0.881309173281    -0.164299994032    12.000000000000
         C            2.357203100957     0.026892173281     0.075428005968    12.000000000000
         H            1.086970100957     1.288782173281    -1.177859994032     1.007825032230
         H            1.032552100957     1.701354173281     0.552131005968     1.007825032230
         H            3.249615100957     0.647637173281    -0.028852994032     1.007825032230
         H            2.344855100957    -0.396483826719     1.081970005968     1.007825032230
         H            2.409712100957    -0.787264826719    -0.649387994032     1.007825032230
         H           -2.153226899043     1.003411173281     0.324445005968     1.007825032230

  Basis Set: AUG-CC-PVTZ
    Blend: AUG-CC-PVTZ
  Basis Set: (AUG-CC-PVTZ AUX)
    Blend: AUG-CC-PVTZ-JKFIT
	 Reference Energy          =    -701.4427506026224819 [Eh]
	 Singles Energy            =      -0.0000000000000000 [Eh]
	 Same-Spin Energy          =      -0.3548982413762852 [Eh]
	 Opposite-Spin Energy      =      -1.0618532781570451 [Eh]
	 Correlation Energy        =      -1.4167515195333302 [Eh]
	 Total Energy              =    -702.8595021221558454 [Eh]

	 ================> DF-SCS-MP2 Energies <==================
	-----------------------------------------------------------
	 SCS Same-Spin Scale       =       0.3333333333333333 [-]
	 SCS Opposite-Spin Scale   =       1.2000000000000000 [-]
	 SCS Same-Spin Energy      =      -0.1182994137920950 [Eh]
	 SCS Opposite-Spin Energy  =      -1.2742239337884540 [Eh]
	 SCS Correlation Energy    =      -1.3925233475805490 [Eh]
	 SCS Total Energy          =    -702.8352739502030317 [Eh]
	-----------------------------------------------------------

  Dipole Moment: [D]
     X:     1.5818      Y:     3.3833      Z:     0.3669     Total:     3.7528

*** Psi4 exiting successfully. Buy a developer a beer!
