                               Psi4 1.4a3.dev225

  ==> Input File <==

--------------------------------------------------------------------------
#psi4
#
memory 32 gb

molecule  {
0 1
  S       -0.4214550    -0.1555270     0.0157730
  O       -1.5405390     0.9824510    -0.3857960
  O       -0.6405530    -0.4776100     1.4268170
  O       -0.4218140    -1.1955390    -1.0036730
  C        1.0482220     0.8316920    -0.1707940
  C        2.2874800    -0.0227220     0.0684980
  H        1.0171730     1.2397620    -1.1841120
  H        0.9625940     1.6512470     0.5461620
  H        3.1798380     0.5981340    -0.0356250
  H        2.2752130    -0.4464600     1.0748860
  H        2.3400010    -0.8366100    -0.6566250
  H       -2.2364163     0.9535431     0.3323067
units angstrom
no_reorient  #important for SAPT in psi4, default
symmetry c1  #important for SAPT in psi4, default
}

set PROPERTIES_ORIGIN ["COM"]
properties('MP2/aug-cc-pvtz', properties = ['dipole'])
--------------------------------------------------------------------------

    Molecular point group: c1
  Charge       = 0
  Multiplicity = 1
  Basis Set: AUG-CC-PVTZ
    Blend: AUG-CC-PVTZ
  Basis Set: (AUG-CC-PVTZ AUX)
    Blend: AUG-CC-PVTZ-JKFIT

    Orbital Energies [Eh]
    ---------------------

    Doubly Occupied:

       1A    -92.227563     2A    -20.637193     3A    -20.567763
       4A    -20.564517     5A    -11.292632     6A    -11.250654
       7A     -9.191688     8A     -6.877281     9A     -6.875679
      10A     -6.875476    11A     -1.494611    12A     -1.382556
      13A     -1.352120    14A     -1.096957    15A     -0.943958
      16A     -0.836408    17A     -0.744843    18A     -0.711252
      19A     -0.687553    20A     -0.658469    21A     -0.630605
      22A     -0.596754    23A     -0.569310    24A     -0.556093
      25A     -0.539825    26A     -0.521247    27A     -0.503805
      28A     -0.483729    29A     -0.474783

  @DF-RHF Final Energy:  -701.44297797907086

   => Energetics <=

    Nuclear Repulsion Energy =            356.9983659193392782
    One-Electron Energy =               -1674.5920361008934378
    Two-Electron Energy =                 616.1506922024833557
    Total Energy =                       -701.4429779790708608
  Basis Set: (AUG-CC-PVTZ AUX)
    Blend: AUG-CC-PVTZ-RI
    Molecular point group: c1

    Geometry (in Angstrom), charge = 0, multiplicity = 1:

       Center              X                  Y                   Z               Mass
    ------------   -----------------  -----------------  -----------------  -----------------
         S           -0.353437023251    -0.127089831080     0.016211923883    31.972071174400
         O           -1.472521023251     1.010888168920    -0.385357076117    15.994914619570
         O           -0.572535023251    -0.449172831080     1.427255923883    15.994914619570
         O           -0.353796023251    -1.167101831080    -1.003234076117    15.994914619570
         C            1.116239976749     0.860129168920    -0.170355076117    12.000000000000
         C            2.355497976749     0.005715168920     0.068936923883    12.000000000000
         H            1.085190976749     1.268199168920    -1.183673076117     1.007825032230
         H            1.030611976749     1.679684168920     0.546600923883     1.007825032230
         H            3.247855976749     0.626571168920    -0.035186076117     1.007825032230
         H            2.343230976749    -0.418022831080     1.075324923883     1.007825032230
         H            2.408018976749    -0.808172831080    -0.656186076117     1.007825032230
         H           -2.168398323251     0.981980268920     0.332745623883     1.007825032230

  Basis Set: AUG-CC-PVTZ
    Blend: AUG-CC-PVTZ
  Basis Set: (AUG-CC-PVTZ AUX)
    Blend: AUG-CC-PVTZ-JKFIT
	 Reference Energy          =    -701.4429779790708608 [Eh]
	 Singles Energy            =      -0.0000000000000000 [Eh]
	 Same-Spin Energy          =      -0.3552624593433615 [Eh]
	 Opposite-Spin Energy      =      -1.0627247545265239 [Eh]
	 Correlation Energy        =      -1.4179872138698855 [Eh]
	 Total Energy              =    -702.8609651929407391 [Eh]

	 ================> DF-SCS-MP2 Energies <==================
	-----------------------------------------------------------
	 SCS Same-Spin Scale       =       0.3333333333333333 [-]
	 SCS Opposite-Spin Scale   =       1.2000000000000000 [-]
	 SCS Same-Spin Energy      =      -0.1184208197811205 [Eh]
	 SCS Opposite-Spin Energy  =      -1.2752697054318287 [Eh]
	 SCS Correlation Energy    =      -1.3936905252129492 [Eh]
	 SCS Total Energy          =    -702.8366685042838071 [Eh]
	-----------------------------------------------------------

  Dipole Moment: [D]
     X:     1.5107      Y:     3.0133      Z:     0.2554     Total:     3.3805

*** Psi4 exiting successfully. Buy a developer a beer!
