                               Psi4 1.3.2 release

  ==> Input File <==

--------------------------------------------------------------------------
#psi4
#
memory 32 gb

molecule  {
0 1
  S       -0.4214780    -0.1554040     0.0158080
  O       -1.5405550     0.9822230    -0.3857470
  O       -0.6552459    -0.4992075     1.5233051
  O       -0.4220170    -1.1957040    -1.0033910
  C        1.0482880     0.8316110    -0.1712040
  C        2.2874680    -0.0228060     0.0685240
  H        1.0172350     1.2390840    -1.1847640
  H        0.9628170     1.6516560     0.5452270
  H        3.1798800     0.5979390    -0.0357570
  H        2.2751200    -0.4461820     1.0750660
  H        2.3399770    -0.8369630    -0.6562920
  H       -2.2229620     0.9537130     0.3175410
units angstrom
no_reorient  #important for SAPT in psi4, default
symmetry c1  #important for SAPT in psi4, default
}

set PROPERTIES_ORIGIN ["COM"]
properties('MP2/aug-cc-pvtz', properties = ['dipole'])
--------------------------------------------------------------------------

    Molecular point group: c1
  Charge       = 0
  Multiplicity = 1
  Basis Set: AUG-CC-PVTZ
    Blend: AUG-CC-PVTZ
  Basis Set: (AUG-CC-PVTZ AUX)
    Blend: AUG-CC-PVTZ-JKFIT

    Orbital Energies [Eh]
    ---------------------

    Doubly Occupied:

       1A    -92.234312     2A    -20.643493     3A    -20.572641
       4A    -20.566714     5A    -11.298521     6A    -11.252926
       7A     -9.197926     8A     -6.883353     9A     -6.881717
      10A     -6.881207    11A     -1.484871    12A     -1.386752
      13A     -1.316846    14A     -1.101421    15A     -0.950438
      16A     -0.843342    17A     -0.751439    18A     -0.709214
      19A     -0.686287    20A     -0.658369    21A     -0.622413
      22A     -0.599582    23A     -0.565799    24A     -0.558069
      25A     -0.541394    26A     -0.516000    27A     -0.496970
      28A     -0.476453    29A     -0.472008

  @DF-RHF Final Energy:  -701.42546823680902

   => Energetics <=

    Nuclear Repulsion Energy =            352.7706100189745371
    One-Electron Energy =               -1666.0912008943034834
    Two-Electron Energy =                 611.8951226385198652
    Total Energy =                       -701.4254682368090243
  Basis Set: (AUG-CC-PVTZ AUX)
    Blend: AUG-CC-PVTZ-RI
    Molecular point group: c1

    Geometry (in Angstrom), charge = 0, multiplicity = 1:

       Center              X                  Y                   Z               Mass
    ------------   -----------------  -----------------  -----------------  -----------------
         S           -0.351416177743    -0.123783707368     0.002347148923    31.972071174400
         O           -1.470493177743     1.013843292632    -0.399207851077    15.994914619570
         O           -0.585184077743    -0.467587207368     1.509844248923    15.994914619570
         O           -0.351955177743    -1.164083707368    -1.016851851077    15.994914619570
         C            1.118349822257     0.863231292632    -0.184664851077    12.000000000000
         C            2.357529822257     0.008814292632     0.055063148923    12.000000000000
         H            1.087296822257     1.270704292632    -1.198224851077     1.007825032230
         H            1.032878822257     1.683276292632     0.531766148923     1.007825032230
         H            3.249941822257     0.629559292632    -0.049217851077     1.007825032230
         H            2.345181822257    -0.414561707368     1.061605148923     1.007825032230
         H            2.410038822257    -0.805342707368    -0.669752851077     1.007825032230
         H           -2.152900177743     0.985333292632     0.304080148923     1.007825032230

  Basis Set: AUG-CC-PVTZ
    Blend: AUG-CC-PVTZ
  Basis Set: (AUG-CC-PVTZ AUX)
    Blend: AUG-CC-PVTZ-JKFIT
	 Reference Energy          =    -701.4254682368090243 [Eh]
	 Singles Energy            =      -0.0000000000000000 [Eh]
	 Same-Spin Energy          =      -0.3568250688748319 [Eh]
	 Opposite-Spin Energy      =      -1.0672059890292442 [Eh]
	 Correlation Energy        =      -1.4240310579040760 [Eh]
	 Total Energy              =    -702.8494992947131550 [Eh]

	 ================> DF-SCS-MP2 Energies <==================
	-----------------------------------------------------------
	 SCS Same-Spin Scale       =       0.3333333333333333 [-]
	 SCS Opposite-Spin Scale   =       1.2000000000000000 [-]
	 SCS Same-Spin Energy      =      -0.1189416896249440 [Eh]
	 SCS Opposite-Spin Energy  =      -1.2806471868350930 [Eh]
	 SCS Correlation Energy    =      -1.3995888764600370 [Eh]
	 SCS Total Energy          =    -702.8250571132690538 [Eh]
	-----------------------------------------------------------

  Dipole Moment: [D]
     X:     1.6477      Y:     3.1520      Z:    -0.2779     Total:     3.5676

*** Psi4 exiting successfully. Buy a developer a beer!
