                               Psi4 1.4a3.dev225

  ==> Input File <==

--------------------------------------------------------------------------
#psi4
#
memory 32 gb

molecule  {
0 1
  S       -0.4214550    -0.1555270     0.0157730
  O       -1.5541384     0.9962800    -0.3906760
  O       -0.6405530    -0.4776100     1.4268170
  O       -0.4218140    -1.1955390    -1.0036730
  C        1.0482220     0.8316920    -0.1707940
  C        2.2874800    -0.0227220     0.0684980
  H        1.0171730     1.2397620    -1.1841120
  H        0.9625940     1.6512470     0.5461620
  H        3.1798380     0.5981340    -0.0356250
  H        2.2752130    -0.4464600     1.0748860
  H        2.3400010    -0.8366100    -0.6566250
  H       -2.2225040     0.9541210     0.3179500
units angstrom
no_reorient  #important for SAPT in psi4, default
symmetry c1  #important for SAPT in psi4, default
}

set PROPERTIES_ORIGIN ["COM"]
properties('MP2/aug-cc-pvtz', properties = ['dipole'])
--------------------------------------------------------------------------

    Molecular point group: c1
  Charge       = 0
  Multiplicity = 1
  Basis Set: AUG-CC-PVTZ
    Blend: AUG-CC-PVTZ
  Basis Set: (AUG-CC-PVTZ AUX)
    Blend: AUG-CC-PVTZ-JKFIT

    Orbital Energies [Eh]
    ---------------------

    Doubly Occupied:

       1A    -92.229056     2A    -20.634386     3A    -20.569956
       4A    -20.566525     5A    -11.293916     6A    -11.251623
       7A     -9.193131     8A     -6.878662     9A     -6.877087
      10A     -6.876894    11A     -1.493019    12A     -1.384268
      13A     -1.353630    14A     -1.098136    15A     -0.945111
      16A     -0.836338    17A     -0.745960    18A     -0.711191
      19A     -0.687477    20A     -0.659741    21A     -0.632245
      22A     -0.596573    23A     -0.569988    24A     -0.556473
      25A     -0.540746    26A     -0.521622    27A     -0.505352
      28A     -0.485441    29A     -0.475948

  @DF-RHF Final Energy:  -701.44292074100326

   => Energetics <=

    Nuclear Repulsion Energy =            356.3725570891988355
    One-Electron Energy =               -1673.2899666623488883
    Two-Electron Energy =                 615.4744888321467897
    Total Energy =                       -701.4429207410032632
  Basis Set: (AUG-CC-PVTZ AUX)
    Blend: AUG-CC-PVTZ-RI
    Molecular point group: c1

    Geometry (in Angstrom), charge = 0, multiplicity = 1:

       Center              X                  Y                   Z               Mass
    ------------   -----------------  -----------------  -----------------  -----------------
         S           -0.351587085867    -0.129105908401     0.017053024411    31.972071174400
         O           -1.484270485867     1.022701091599    -0.389395975589    15.994914619570
         O           -0.570685085867    -0.451188908401     1.428097024411    15.994914619570
         O           -0.351946085867    -1.169117908401    -1.002392975589    15.994914619570
         C            1.118089914133     0.858113091599    -0.169513975589    12.000000000000
         C            2.357347914133     0.003699091599     0.069778024411    12.000000000000
         H            1.087040914133     1.266183091599    -1.182831975589     1.007825032230
         H            1.032461914133     1.677668091599     0.547442024411     1.007825032230
         H            3.249705914133     0.624555091599    -0.034344975589     1.007825032230
         H            2.345080914133    -0.420038908401     1.076166024411     1.007825032230
         H            2.409868914133    -0.810188908401    -0.655344975589     1.007825032230
         H           -2.152636085867     0.980542091599     0.319230024411     1.007825032230

  Basis Set: AUG-CC-PVTZ
    Blend: AUG-CC-PVTZ
  Basis Set: (AUG-CC-PVTZ AUX)
    Blend: AUG-CC-PVTZ-JKFIT
	 Reference Energy          =    -701.4429207410032632 [Eh]
	 Singles Energy            =      -0.0000000000000000 [Eh]
	 Same-Spin Energy          =      -0.3552287384708167 [Eh]
	 Opposite-Spin Energy      =      -1.0629657524844929 [Eh]
	 Correlation Energy        =      -1.4181944909553095 [Eh]
	 Total Energy              =    -702.8611152319585926 [Eh]

	 ================> DF-SCS-MP2 Energies <==================
	-----------------------------------------------------------
	 SCS Same-Spin Scale       =       0.3333333333333333 [-]
	 SCS Opposite-Spin Scale   =       1.2000000000000000 [-]
	 SCS Same-Spin Energy      =      -0.1184095794902722 [Eh]
	 SCS Opposite-Spin Energy  =      -1.2755589029813914 [Eh]
	 SCS Correlation Energy    =      -1.3939684824716636 [Eh]
	 SCS Total Energy          =    -702.8368892234749410 [Eh]
	-----------------------------------------------------------

  Dipole Moment: [D]
     X:     1.6471      Y:     2.9221      Z:     0.2608     Total:     3.3644

*** Psi4 exiting successfully. Buy a developer a beer!
