                               Psi4 1.3.2 release

  ==> Input File <==

--------------------------------------------------------------------------
#psi4
#
memory 32 gb

molecule  {
0 1
  S       -0.4214780    -0.1554040     0.0158080
  O       -1.5405550     0.9822230    -0.3857470
  O       -0.7653130    -0.5534644     1.3818116
  O       -0.4220170    -1.1957040    -1.0033910
  C        1.0482880     0.8316110    -0.1712040
  C        2.2874680    -0.0228060     0.0685240
  H        1.0172350     1.2390840    -1.1847640
  H        0.9628170     1.6516560     0.5452270
  H        3.1798800     0.5979390    -0.0357570
  H        2.2751200    -0.4461820     1.0750660
  H        2.3399770    -0.8369630    -0.6562920
  H       -2.2229620     0.9537130     0.3175410
units angstrom
no_reorient  #important for SAPT in psi4, default
symmetry c1  #important for SAPT in psi4, default
}

set PROPERTIES_ORIGIN ["COM"]
properties('MP2/aug-cc-pvtz', properties = ['dipole'])
--------------------------------------------------------------------------

    Molecular point group: c1
  Charge       = 0
  Multiplicity = 1
  Basis Set: AUG-CC-PVTZ
    Blend: AUG-CC-PVTZ
  Basis Set: (AUG-CC-PVTZ AUX)
    Blend: AUG-CC-PVTZ-JKFIT

    Orbital Energies [Eh]
    ---------------------

    Doubly Occupied:

       1A    -92.226681     2A    -20.631384     3A    -20.565984
       4A    -20.558516     5A    -11.300229     6A    -11.254880
       7A     -9.191024     8A     -6.876623     9A     -6.874916
      10A     -6.874836    11A     -1.494676    12A     -1.382237
      13A     -1.346129    14A     -1.103468    15A     -0.948572
      16A     -0.838329    17A     -0.746559    18A     -0.711202
      19A     -0.687602    20A     -0.661669    21A     -0.630130
      22A     -0.597877    23A     -0.570202    24A     -0.557722
      25A     -0.543782    26A     -0.518823    27A     -0.499417
      28A     -0.483510    29A     -0.474485

  @DF-RHF Final Energy:  -701.44331166941163

   => Energetics <=

    Nuclear Repulsion Energy =            356.8472637250314392
    One-Electron Energy =               -1674.2782171958590425
    Two-Electron Energy =                 615.9876418014160890
    Total Energy =                       -701.4433116694116279
  Basis Set: (AUG-CC-PVTZ AUX)
    Blend: AUG-CC-PVTZ-RI
    Molecular point group: c1

    Geometry (in Angstrom), charge = 0, multiplicity = 1:

       Center              X                  Y                   Z               Mass
    ------------   -----------------  -----------------  -----------------  -----------------
         S           -0.335412054036    -0.115894573017     0.022920776080    31.972071174400
         O           -1.454489054036     1.021732426983    -0.378634223920    15.994914619570
         O           -0.679247054036    -0.513954973017     1.388924376080    15.994914619570
         O           -0.335951054036    -1.156194573017    -0.996278223920    15.994914619570
         C            1.134353945964     0.871120426983    -0.164091223920    12.000000000000
         C            2.373533945964     0.016703426983     0.075636776080    12.000000000000
         H            1.103300945964     1.278593426983    -1.177651223920     1.007825032230
         H            1.048882945964     1.691165426983     0.552339776080     1.007825032230
         H            3.265945945964     0.637448426983    -0.028644223920     1.007825032230
         H            2.361185945964    -0.406672573017     1.082178776080     1.007825032230
         H            2.426042945964    -0.797453573017    -0.649179223920     1.007825032230
         H           -2.136896054036     0.993222426983     0.324653776080     1.007825032230

  Basis Set: AUG-CC-PVTZ
    Blend: AUG-CC-PVTZ
  Basis Set: (AUG-CC-PVTZ AUX)
    Blend: AUG-CC-PVTZ-JKFIT
	 Reference Energy          =    -701.4433116694116279 [Eh]
	 Singles Energy            =      -0.0000000000000000 [Eh]
	 Same-Spin Energy          =      -0.3547838998754530 [Eh]
	 Opposite-Spin Energy      =      -1.0615686205426458 [Eh]
	 Correlation Energy        =      -1.4163525204180987 [Eh]
	 Total Energy              =    -702.8596641898296866 [Eh]

	 ================> DF-SCS-MP2 Energies <==================
	-----------------------------------------------------------
	 SCS Same-Spin Scale       =       0.3333333333333333 [-]
	 SCS Opposite-Spin Scale   =       1.2000000000000000 [-]
	 SCS Same-Spin Energy      =      -0.1182612999584843 [Eh]
	 SCS Opposite-Spin Energy  =      -1.2738823446511749 [Eh]
	 SCS Correlation Energy    =      -1.3921436446096593 [Eh]
	 SCS Total Energy          =    -702.8354553140212602 [Eh]
	-----------------------------------------------------------

  Dipole Moment: [D]
     X:     1.9194      Y:     3.2062      Z:     0.3215     Total:     3.7506

*** Psi4 exiting successfully. Buy a developer a beer!
