                               Psi4 1.3.2 release

  ==> Input File <==

--------------------------------------------------------------------------
#psi4
#
memory 32 gb

molecule  {
0 1
  S       -0.3775459    -0.2299062    -0.0734125
  O       -1.5405550     0.9822230    -0.3857470
  O       -0.6402970    -0.4772220     1.4269040
  O       -0.4220170    -1.1957040    -1.0033910
  C        1.0482880     0.8316110    -0.1712040
  C        2.2874680    -0.0228060     0.0685240
  H        1.0172350     1.2390840    -1.1847640
  H        0.9628170     1.6516560     0.5452270
  H        3.1798800     0.5979390    -0.0357570
  H        2.2751200    -0.4461820     1.0750660
  H        2.3399770    -0.8369630    -0.6562920
  H       -2.2229620     0.9537130     0.3175410
units angstrom
no_reorient  #important for SAPT in psi4, default
symmetry c1  #important for SAPT in psi4, default
}

set PROPERTIES_ORIGIN ["COM"]
properties('MP2/aug-cc-pvtz', properties = ['dipole'])
--------------------------------------------------------------------------

    Molecular point group: c1
  Charge       = 0
  Multiplicity = 1
  Basis Set: AUG-CC-PVTZ
    Blend: AUG-CC-PVTZ
  Basis Set: (AUG-CC-PVTZ AUX)
    Blend: AUG-CC-PVTZ-JKFIT

    Orbital Energies [Eh]
    ---------------------

    Doubly Occupied:

       1A    -92.222836     2A    -20.612857     3A    -20.595082
       4A    -20.550078     5A    -11.294788     6A    -11.253372
       7A     -9.190177     8A     -6.875508     9A     -6.874608
      10A     -6.873200    11A     -1.531379    12A     -1.387869
      13A     -1.316778    14A     -1.100537    15A     -0.942076
      16A     -0.832388    17A     -0.748414    18A     -0.717077
      19A     -0.694299    20A     -0.654816    21A     -0.638461
      22A     -0.601066    23A     -0.570933    24A     -0.550481
      25A     -0.542723    26A     -0.532903    27A     -0.507428
      28A     -0.474597    29A     -0.462315

  @DF-RHF Final Energy:  -701.41527673962048

   => Energetics <=

    Nuclear Repulsion Energy =            357.3767681550211819
    One-Electron Energy =               -1675.2859980227435699
    Two-Electron Energy =                 616.4939531281019072
    Total Energy =                       -701.4152767396204808
  Basis Set: (AUG-CC-PVTZ AUX)
    Blend: AUG-CC-PVTZ-RI
    Molecular point group: c1

    Geometry (in Angstrom), charge = 0, multiplicity = 1:

       Center              X                  Y                   Z               Mass
    ------------   -----------------  -----------------  -----------------  -----------------
         S           -0.322426353618    -0.179828962358    -0.046924795399    31.972071174400
         O           -1.485435453618     1.032300237642    -0.359259295399    15.994914619570
         O           -0.585177453618    -0.427144762358     1.453391704601    15.994914619570
         O           -0.366897453618    -1.145626762358    -0.976903295399    15.994914619570
         C            1.103407546382     0.881688237642    -0.144716295399    12.000000000000
         C            2.342587546382     0.027271237642     0.095011704601    12.000000000000
         H            1.072354546382     1.289161237642    -1.158276295399     1.007825032230
         H            1.017936546382     1.701733237642     0.571714704601     1.007825032230
         H            3.234999546382     0.648016237642    -0.009269295399     1.007825032230
         H            2.330239546382    -0.396104762358     1.101553704601     1.007825032230
         H            2.395096546382    -0.786885762358    -0.629804295399     1.007825032230
         H           -2.167842453618     1.003790237642     0.344028704601     1.007825032230

  Basis Set: AUG-CC-PVTZ
    Blend: AUG-CC-PVTZ
  Basis Set: (AUG-CC-PVTZ AUX)
    Blend: AUG-CC-PVTZ-JKFIT
	 Reference Energy          =    -701.4152767396204808 [Eh]
	 Singles Energy            =      -0.0000000000000000 [Eh]
	 Same-Spin Energy          =      -0.3543424554392540 [Eh]
	 Opposite-Spin Energy      =      -1.0619949042992938 [Eh]
	 Correlation Energy        =      -1.4163373597385478 [Eh]
	 Total Energy              =    -702.8316140993590579 [Eh]

	 ================> DF-SCS-MP2 Energies <==================
	-----------------------------------------------------------
	 SCS Same-Spin Scale       =       0.3333333333333333 [-]
	 SCS Opposite-Spin Scale   =       1.2000000000000000 [-]
	 SCS Same-Spin Energy      =      -0.1181141518130847 [Eh]
	 SCS Opposite-Spin Energy  =      -1.2743938851591525 [Eh]
	 SCS Correlation Energy    =      -1.3925080369722371 [Eh]
	 SCS Total Energy          =    -702.8077847765927118 [Eh]
	-----------------------------------------------------------

  Dipole Moment: [D]
     X:     2.0637      Y:     2.2851      Z:    -0.6320     Total:     3.1433

*** Psi4 exiting successfully. Buy a developer a beer!
