                               Psi4 1.4a3.dev225

  ==> Input File <==

--------------------------------------------------------------------------
#psi4
#
memory 32 gb

molecule  {
0 1
  S       -0.4214550    -0.1555270     0.0157730
  O       -1.5269396     0.9686220    -0.3809160
  O       -0.6405530    -0.4776100     1.4268170
  O       -0.4218140    -1.1955390    -1.0036730
  C        1.0482220     0.8316920    -0.1707940
  C        2.2874800    -0.0227220     0.0684980
  H        1.0171730     1.2397620    -1.1841120
  H        0.9625940     1.6512470     0.5461620
  H        3.1798380     0.5981340    -0.0356250
  H        2.2752130    -0.4464600     1.0748860
  H        2.3400010    -0.8366100    -0.6566250
  H       -2.2225040     0.9541210     0.3179500
units angstrom
no_reorient  #important for SAPT in psi4, default
symmetry c1  #important for SAPT in psi4, default
}

set PROPERTIES_ORIGIN ["COM"]
properties('MP2/aug-cc-pvtz', properties = ['dipole'])
--------------------------------------------------------------------------

    Molecular point group: c1
  Charge       = 0
  Multiplicity = 1
  Basis Set: AUG-CC-PVTZ
    Blend: AUG-CC-PVTZ
  Basis Set: (AUG-CC-PVTZ AUX)
    Blend: AUG-CC-PVTZ-JKFIT

    Orbital Energies [Eh]
    ---------------------

    Doubly Occupied:

       1A    -92.226809     2A    -20.637674     3A    -20.566248
       4A    -20.563070     5A    -11.291749     6A    -11.249993
       7A     -9.191007     8A     -6.876678     9A     -6.875022
      10A     -6.874808    11A     -1.499810    12A     -1.387425
      13A     -1.351216    14A     -1.096482    15A     -0.945106
      16A     -0.839991    17A     -0.749567    18A     -0.713085
      19A     -0.688562    20A     -0.658853    21A     -0.630513
      22A     -0.597949    23A     -0.569378    24A     -0.556451
      25A     -0.539264    26A     -0.521847    27A     -0.502975
      28A     -0.482743    29A     -0.474179

  @DF-RHF Final Energy:  -701.44572509049556

   => Energetics <=

    Nuclear Repulsion Energy =            357.8931243545172265
    One-Electron Energy =               -1676.3607879206624602
    Two-Electron Energy =                 617.0219384756497902
    Total Energy =                       -701.4457250904955572
  Basis Set: (AUG-CC-PVTZ AUX)
    Blend: AUG-CC-PVTZ-RI
    Molecular point group: c1

    Geometry (in Angstrom), charge = 0, multiplicity = 1:

       Center              X                  Y                   Z               Mass
    ------------   -----------------  -----------------  -----------------  -----------------
         S           -0.355541882167    -0.125084342888     0.015633887835    31.972071174400
         O           -1.461026482167     0.999064657112    -0.381055112165    15.994914619570
         O           -0.574639882167    -0.447167342888     1.426677887835    15.994914619570
         O           -0.355900882167    -1.165096342888    -1.003812112165    15.994914619570
         C            1.114135117833     0.862134657112    -0.170933112165    12.000000000000
         C            2.353393117833     0.007720657112     0.068358887835    12.000000000000
         H            1.083086117833     1.270204657112    -1.184251112165     1.007825032230
         H            1.028507117833     1.681689657112     0.546022887835     1.007825032230
         H            3.245751117833     0.628576657112    -0.035764112165     1.007825032230
         H            2.341126117833    -0.416017342888     1.074746887835     1.007825032230
         H            2.405914117833    -0.806167342888    -0.656764112165     1.007825032230
         H           -2.156590882167     0.984563657112     0.317810887835     1.007825032230

  Basis Set: AUG-CC-PVTZ
    Blend: AUG-CC-PVTZ
  Basis Set: (AUG-CC-PVTZ AUX)
    Blend: AUG-CC-PVTZ-JKFIT
	 Reference Energy          =    -701.4457250904955572 [Eh]
	 Singles Energy            =      -0.0000000000000000 [Eh]
	 Same-Spin Energy          =      -0.3548102226090220 [Eh]
	 Opposite-Spin Energy      =      -1.0613632389179724 [Eh]
	 Correlation Energy        =      -1.4161734615269943 [Eh]
	 Total Energy              =    -702.8618985520225806 [Eh]

	 ================> DF-SCS-MP2 Energies <==================
	-----------------------------------------------------------
	 SCS Same-Spin Scale       =       0.3333333333333333 [-]
	 SCS Opposite-Spin Scale   =       1.2000000000000000 [-]
	 SCS Same-Spin Energy      =      -0.1182700742030073 [Eh]
	 SCS Opposite-Spin Energy  =      -1.2736358867015667 [Eh]
	 SCS Correlation Energy    =      -1.3919059609045741 [Eh]
	 SCS Total Energy          =    -702.8376310514000807 [Eh]
	-----------------------------------------------------------

  Dipole Moment: [D]
     X:     1.4288      Y:     3.0913      Z:     0.2174     Total:     3.4124

*** Psi4 exiting successfully. Buy a developer a beer!
