                               Psi4 1.3.2 release

  ==> Input File <==

--------------------------------------------------------------------------
#psi4
#
memory 32 gb

molecule  {
0 1
  S       -0.4214780    -0.1554040     0.0158080
  O       -1.5405550     0.9822230    -0.3857470
  O       -0.6701949    -0.5211929     1.6197062
  O       -0.4220170    -1.1957040    -1.0033910
  C        1.0482880     0.8316110    -0.1712040
  C        2.2874680    -0.0228060     0.0685240
  H        1.0172350     1.2390840    -1.1847640
  H        0.9628170     1.6516560     0.5452270
  H        3.1798800     0.5979390    -0.0357570
  H        2.2751200    -0.4461820     1.0750660
  H        2.3399770    -0.8369630    -0.6562920
  H       -2.2229620     0.9537130     0.3175410
units angstrom
no_reorient  #important for SAPT in psi4, default
symmetry c1  #important for SAPT in psi4, default
}

set PROPERTIES_ORIGIN ["COM"]
properties('MP2/aug-cc-pvtz', properties = ['dipole'])
--------------------------------------------------------------------------

    Molecular point group: c1
  Charge       = 0
  Multiplicity = 1
  Basis Set: AUG-CC-PVTZ
    Blend: AUG-CC-PVTZ
  Basis Set: (AUG-CC-PVTZ AUX)
    Blend: AUG-CC-PVTZ-JKFIT

    Orbital Energies [Eh]
    ---------------------

    Doubly Occupied:

       1A    -92.234804     2A    -20.649210     3A    -20.578149
       4A    -20.567338     5A    -11.302588     6A    -11.254604
       7A     -9.199462     8A     -6.884530     9A     -6.882984
      10A     -6.882254    11A     -1.481622    12A     -1.389625
      13A     -1.279000    14A     -1.104738    15A     -0.955036
      16A     -0.847683    17A     -0.755513    18A     -0.708296
      19A     -0.686324    20A     -0.658209    21A     -0.617406
      22A     -0.599568    23A     -0.565332    24A     -0.556995
      25A     -0.542372    26A     -0.514389    27A     -0.487557
      28A     -0.469192    29A     -0.466076

  @DF-RHF Final Energy:  -701.39796025481928

   => Energetics <=

    Nuclear Repulsion Energy =            348.8141316674529548
    One-Electron Energy =               -1658.1824659385049472
    Two-Electron Energy =                 607.9703740162326540
    Total Energy =                       -701.3979602548192815
  Basis Set: (AUG-CC-PVTZ AUX)
    Blend: AUG-CC-PVTZ-RI
    Molecular point group: c1

    Geometry (in Angstrom), charge = 0, multiplicity = 1:

       Center              X                  Y                   Z               Mass
    ------------   -----------------  -----------------  -----------------  -----------------
         S           -0.349242543249    -0.120586956829    -0.011669892772    31.972071174400
         O           -1.468319543249     1.017040043171    -0.413224892772    15.994914619570
         O           -0.597959443249    -0.486375856829     1.592228307228    15.994914619570
         O           -0.349781543249    -1.160886956829    -1.030868892772    15.994914619570
         C            1.120523456751     0.866428043171    -0.198681892772    12.000000000000
         C            2.359703456751     0.012011043171     0.041046107228    12.000000000000
         H            1.089470456751     1.273901043171    -1.212241892772     1.007825032230
         H            1.035052456751     1.686473043171     0.517749107228     1.007825032230
         H            3.252115456751     0.632756043171    -0.063234892772     1.007825032230
         H            2.347355456751    -0.411364956829     1.047588107228     1.007825032230
         H            2.412212456751    -0.802145956829    -0.683769892772     1.007825032230
         H           -2.150726543249     0.988530043171     0.290063107228     1.007825032230

  Basis Set: AUG-CC-PVTZ
    Blend: AUG-CC-PVTZ
  Basis Set: (AUG-CC-PVTZ AUX)
    Blend: AUG-CC-PVTZ-JKFIT
	 Reference Energy          =    -701.3979602548192815 [Eh]
	 Singles Energy            =      -0.0000000000000000 [Eh]
	 Same-Spin Energy          =      -0.3574358474975503 [Eh]
	 Opposite-Spin Energy      =      -1.0705436872233787 [Eh]
	 Correlation Energy        =      -1.4279795347209290 [Eh]
	 Total Energy              =    -702.8259397895402572 [Eh]

	 ================> DF-SCS-MP2 Energies <==================
	-----------------------------------------------------------
	 SCS Same-Spin Scale       =       0.3333333333333333 [-]
	 SCS Opposite-Spin Scale   =       1.2000000000000000 [-]
	 SCS Same-Spin Energy      =      -0.1191452824991834 [Eh]
	 SCS Opposite-Spin Energy  =      -1.2846524246680544 [Eh]
	 SCS Correlation Energy    =      -1.4037977071672378 [Eh]
	 SCS Total Energy          =    -702.8017579619864819 [Eh]
	-----------------------------------------------------------

  Dipole Moment: [D]
     X:     1.7646      Y:     3.2998      Z:    -0.8187     Total:     3.8305

*** Psi4 exiting successfully. Buy a developer a beer!
