                               Psi4 1.3.2 release

  ==> Input File <==

--------------------------------------------------------------------------
#psi4
#
memory 32 gb

molecule  {
0 1
  S       -0.4214780    -0.1554040     0.0158080
  O       -1.5818188     0.9431864    -0.3772355
  O       -0.6402970    -0.4772220     1.4269040
  O       -0.4220170    -1.1957040    -1.0033910
  C        1.0482880     0.8316110    -0.1712040
  C        2.2874680    -0.0228060     0.0685240
  H        1.0172350     1.2390840    -1.1847640
  H        0.9628170     1.6516560     0.5452270
  H        3.1798800     0.5979390    -0.0357570
  H        2.2751200    -0.4461820     1.0750660
  H        2.3399770    -0.8369630    -0.6562920
  H       -2.2229620     0.9537130     0.3175410
units angstrom
no_reorient  #important for SAPT in psi4, default
symmetry c1  #important for SAPT in psi4, default
}

set PROPERTIES_ORIGIN ["COM"]
properties('MP2/aug-cc-pvtz', properties = ['dipole'])
--------------------------------------------------------------------------

    Molecular point group: c1
  Charge       = 0
  Multiplicity = 1
  Basis Set: AUG-CC-PVTZ
    Blend: AUG-CC-PVTZ
  Basis Set: (AUG-CC-PVTZ AUX)
    Blend: AUG-CC-PVTZ-JKFIT

    Orbital Energies [Eh]
    ---------------------

    Doubly Occupied:

       1A    -92.228582     2A    -20.631517     3A    -20.566439
       4A    -20.564030     5A    -11.295340     6A    -11.252457
       7A     -9.192577     8A     -6.878178     9A     -6.876570
      10A     -6.876368    11A     -1.497765    12A     -1.389522
      13A     -1.351632    14A     -1.099204    15A     -0.947817
      16A     -0.843341    17A     -0.753633    18A     -0.711431
      19A     -0.687748    20A     -0.660671    21A     -0.630077
      22A     -0.598912    23A     -0.569486    24A     -0.558363
      25A     -0.541443    26A     -0.520146    27A     -0.503910
      28A     -0.483716    29A     -0.475758

  @DF-RHF Final Energy:  -701.44590776041480

   => Energetics <=

    Nuclear Repulsion Energy =            357.1809117007289842
    One-Electron Energy =               -1674.8803736418119570
    Two-Electron Energy =                 616.2535541806681749
    Total Energy =                       -701.4459077604147978
  Basis Set: (AUG-CC-PVTZ AUX)
    Blend: AUG-CC-PVTZ-RI
    Molecular point group: c1

    Geometry (in Angstrom), charge = 0, multiplicity = 1:

       Center              X                  Y                   Z               Mass
    ------------   -----------------  -----------------  -----------------  -----------------
         S           -0.347589903453    -0.121304420518     0.015126590109    31.972071174400
         O           -1.507930703453     0.977285979482    -0.377916909891    15.994914619570
         O           -0.566408903453    -0.443122420518     1.426222590109    15.994914619570
         O           -0.348128903453    -1.161604420518    -1.004072409891    15.994914619570
         C            1.122176096547     0.865710579482    -0.171885409891    12.000000000000
         C            2.361356096547     0.011293579482     0.067842590109    12.000000000000
         H            1.091123096547     1.273183579482    -1.185445409891     1.007825032230
         H            1.036705096547     1.685755579482     0.544545590109     1.007825032230
         H            3.253768096547     0.632038579482    -0.036438409891     1.007825032230
         H            2.349008096547    -0.412082420518     1.074384590109     1.007825032230
         H            2.413865096547    -0.802863420518    -0.656973409891     1.007825032230
         H           -2.149073903453     0.987812579482     0.316859590109     1.007825032230

  Basis Set: AUG-CC-PVTZ
    Blend: AUG-CC-PVTZ
  Basis Set: (AUG-CC-PVTZ AUX)
    Blend: AUG-CC-PVTZ-JKFIT
	 Reference Energy          =    -701.4459077604147978 [Eh]
	 Singles Energy            =      -0.0000000000000000 [Eh]
	 Same-Spin Energy          =      -0.3544006699902906 [Eh]
	 Opposite-Spin Energy      =      -1.0607791505851940 [Eh]
	 Correlation Energy        =      -1.4151798205754846 [Eh]
	 Total Energy              =    -702.8610875809903291 [Eh]

	 ================> DF-SCS-MP2 Energies <==================
	-----------------------------------------------------------
	 SCS Same-Spin Scale       =       0.3333333333333333 [-]
	 SCS Opposite-Spin Scale   =       1.2000000000000000 [-]
	 SCS Same-Spin Energy      =      -0.1181335566634302 [Eh]
	 SCS Opposite-Spin Energy  =      -1.2729349807022328 [Eh]
	 SCS Correlation Energy    =      -1.3910685373656630 [Eh]
	 SCS Total Energy          =    -702.8369762977804385 [Eh]
	-----------------------------------------------------------

  Dipole Moment: [D]
     X:     1.6733      Y:     3.0728      Z:     0.2308     Total:     3.5065

*** Psi4 exiting successfully. Buy a developer a beer!
