                               Psi4 1.3.2 release

  ==> Input File <==

--------------------------------------------------------------------------
#psi4
#
memory 32 gb

molecule  {
0 1
  S       -0.3918545    -0.1414723    -0.0313869
  O       -1.5405550     0.9822230    -0.3857470
  O       -0.6402970    -0.4772220     1.4269040
  O       -0.4220170    -1.1957040    -1.0033910
  C        1.0482880     0.8316110    -0.1712040
  C        2.2874680    -0.0228060     0.0685240
  H        1.0172350     1.2390840    -1.1847640
  H        0.9628170     1.6516560     0.5452270
  H        3.1798800     0.5979390    -0.0357570
  H        2.2751200    -0.4461820     1.0750660
  H        2.3399770    -0.8369630    -0.6562920
  H       -2.2229620     0.9537130     0.3175410
units angstrom
no_reorient  #important for SAPT in psi4, default
symmetry c1  #important for SAPT in psi4, default
}

set PROPERTIES_ORIGIN ["COM"]
properties('MP2/aug-cc-pvtz', properties = ['dipole'])
--------------------------------------------------------------------------

    Molecular point group: c1
  Charge       = 0
  Multiplicity = 1
  Basis Set: AUG-CC-PVTZ
    Blend: AUG-CC-PVTZ
  Basis Set: (AUG-CC-PVTZ AUX)
    Blend: AUG-CC-PVTZ-JKFIT

    Orbital Energies [Eh]
    ---------------------

    Doubly Occupied:

       1A    -92.228662     2A    -20.634202     3A    -20.571279
       4A    -20.555147     5A    -11.296558     6A    -11.254805
       7A     -9.193187     8A     -6.878693     9A     -6.877150
      10A     -6.876840    11A     -1.492487    12A     -1.389484
      13A     -1.329091    14A     -1.108693    15A     -0.952997
      16A     -0.840149    17A     -0.750849    18A     -0.710298
      19A     -0.689977    20A     -0.659921    21A     -0.624421
      22A     -0.601114    23A     -0.568366    24A     -0.558373
      25A     -0.543702    26A     -0.518616    27A     -0.501476
      28A     -0.476869    29A     -0.473025

  @DF-RHF Final Energy:  -701.43792451493414

   => Energetics <=

    Nuclear Repulsion Energy =            357.1562865069016652
    One-Electron Energy =               -1674.8755574755946327
    Two-Electron Energy =                 616.2813464537587151
    Total Energy =                       -701.4379245149341386
  Basis Set: (AUG-CC-PVTZ AUX)
    Blend: AUG-CC-PVTZ-RI
    Molecular point group: c1

    Geometry (in Angstrom), charge = 0, multiplicity = 1:

       Center              X                  Y                   Z               Mass
    ------------   -----------------  -----------------  -----------------  -----------------
         S           -0.332576227081    -0.117097954793    -0.017113736162    31.972071174400
         O           -1.481276727081     1.006597345207    -0.371473836162    15.994914619570
         O           -0.581018727081    -0.452847654793     1.441177163838    15.994914619570
         O           -0.362738727081    -1.171329654793    -0.989117836162    15.994914619570
         C            1.107566272919     0.855985345207    -0.156930836162    12.000000000000
         C            2.346746272919     0.001568345207     0.082797163838    12.000000000000
         H            1.076513272919     1.263458345207    -1.170490836162     1.007825032230
         H            1.022095272919     1.676030345207     0.559500163838     1.007825032230
         H            3.239158272919     0.622313345207    -0.021483836162     1.007825032230
         H            2.334398272919    -0.421807654793     1.089339163838     1.007825032230
         H            2.399255272919    -0.812588654793    -0.642018836162     1.007825032230
         H           -2.163683727081     0.978087345207     0.331814163838     1.007825032230

  Basis Set: AUG-CC-PVTZ
    Blend: AUG-CC-PVTZ
  Basis Set: (AUG-CC-PVTZ AUX)
    Blend: AUG-CC-PVTZ-JKFIT
	 Reference Energy          =    -701.4379245149341386 [Eh]
	 Singles Energy            =      -0.0000000000000000 [Eh]
	 Same-Spin Energy          =      -0.3555039484957409 [Eh]
	 Opposite-Spin Energy      =      -1.0628385908336333 [Eh]
	 Correlation Energy        =      -1.4183425393293743 [Eh]
	 Total Energy              =    -702.8562670542635260 [Eh]

	 ================> DF-SCS-MP2 Energies <==================
	-----------------------------------------------------------
	 SCS Same-Spin Scale       =       0.3333333333333333 [-]
	 SCS Opposite-Spin Scale   =       1.2000000000000000 [-]
	 SCS Same-Spin Energy      =      -0.1185013161652470 [Eh]
	 SCS Opposite-Spin Energy  =      -1.2754063090003600 [Eh]
	 SCS Correlation Energy    =      -1.3939076251656071 [Eh]
	 SCS Total Energy          =    -702.8318321400997775 [Eh]
	-----------------------------------------------------------

  Dipole Moment: [D]
     X:     1.8296      Y:     3.0962      Z:    -0.2151     Total:     3.6027

*** Psi4 exiting successfully. Buy a developer a beer!
