                               Psi4 1.3.2 release

  ==> Input File <==

--------------------------------------------------------------------------
#psi4
#
memory 32 gb

molecule  {
0 1
  S       -0.4214780    -0.1554040     0.0158080
  O       -1.5405550     0.9822230    -0.3857470
  O       -0.6251977    -0.3273814     1.4551004
  O       -0.4220170    -1.1957040    -1.0033910
  C        1.0482880     0.8316110    -0.1712040
  C        2.2874680    -0.0228060     0.0685240
  H        1.0172350     1.2390840    -1.1847640
  H        0.9628170     1.6516560     0.5452270
  H        3.1798800     0.5979390    -0.0357570
  H        2.2751200    -0.4461820     1.0750660
  H        2.3399770    -0.8369630    -0.6562920
  H       -2.2229620     0.9537130     0.3175410
units angstrom
no_reorient  #important for SAPT in psi4, default
symmetry c1  #important for SAPT in psi4, default
}

set PROPERTIES_ORIGIN ["COM"]
properties('MP2/aug-cc-pvtz', properties = ['dipole'])
--------------------------------------------------------------------------

    Molecular point group: c1
  Charge       = 0
  Multiplicity = 1
  Basis Set: AUG-CC-PVTZ
    Blend: AUG-CC-PVTZ
  Basis Set: (AUG-CC-PVTZ AUX)
    Blend: AUG-CC-PVTZ-JKFIT

    Orbital Energies [Eh]
    ---------------------

    Doubly Occupied:

       1A    -92.229292     2A    -20.630485     3A    -20.574700
       4A    -20.568444     5A    -11.288534     6A    -11.249436
       7A     -9.193274     8A     -6.878902     9A     -6.877335
      10A     -6.876992    11A     -1.497510    12A     -1.383143
      13A     -1.359378    14A     -1.093932    15A     -0.942433
      16A     -0.837127    17A     -0.746548    18A     -0.711316
      19A     -0.689563    20A     -0.657943    21A     -0.631856
      22A     -0.596509    23A     -0.568902    24A     -0.554767
      25A     -0.539353    26A     -0.521112    27A     -0.509750
      28A     -0.488146    29A     -0.472799

  @DF-RHF Final Energy:  -701.44035164684897

   => Energetics <=

    Nuclear Repulsion Energy =            357.5022148052577222
    One-Electron Energy =               -1675.5461698137426083
    Two-Electron Energy =                 616.6036033616358054
    Total Energy =                       -701.4403516468489670
  Basis Set: (AUG-CC-PVTZ AUX)
    Blend: AUG-CC-PVTZ-RI
    Molecular point group: c1

    Geometry (in Angstrom), charge = 0, multiplicity = 1:

       Center              X                  Y                   Z               Mass
    ------------   -----------------  -----------------  -----------------  -----------------
         S           -0.355785286314    -0.148767795806     0.012264339947    31.972071174400
         O           -1.474862286314     0.988859204194    -0.389290660053    15.994914619570
         O           -0.559504986314    -0.320745195806     1.451556739947    15.994914619570
         O           -0.356324286314    -1.189067795806    -1.006934660053    15.994914619570
         C            1.113980713686     0.838247204194    -0.174747660053    12.000000000000
         C            2.353160713686    -0.016169795806     0.064980339947    12.000000000000
         H            1.082927713686     1.245720204194    -1.188307660053     1.007825032230
         H            1.028509713686     1.658292204194     0.541683339947     1.007825032230
         H            3.245572713686     0.604575204194    -0.039300660053     1.007825032230
         H            2.340812713686    -0.439545795806     1.071522339947     1.007825032230
         H            2.405669713686    -0.830326795806    -0.659835660053     1.007825032230
         H           -2.157269286314     0.960349204194     0.313997339947     1.007825032230

  Basis Set: AUG-CC-PVTZ
    Blend: AUG-CC-PVTZ
  Basis Set: (AUG-CC-PVTZ AUX)
    Blend: AUG-CC-PVTZ-JKFIT
	 Reference Energy          =    -701.4403516468489670 [Eh]
	 Singles Energy            =      -0.0000000000000000 [Eh]
	 Same-Spin Energy          =      -0.3553663765628617 [Eh]
	 Opposite-Spin Energy      =      -1.0629503791023325 [Eh]
	 Correlation Energy        =      -1.4183167556651943 [Eh]
	 Total Energy              =    -702.8586684025141267 [Eh]

	 ================> DF-SCS-MP2 Energies <==================
	-----------------------------------------------------------
	 SCS Same-Spin Scale       =       0.3333333333333333 [-]
	 SCS Opposite-Spin Scale   =       1.2000000000000000 [-]
	 SCS Same-Spin Energy      =      -0.1184554588542872 [Eh]
	 SCS Opposite-Spin Energy  =      -1.2755404549227989 [Eh]
	 SCS Correlation Energy    =      -1.3939959137770861 [Eh]
	 SCS Total Energy          =    -702.8343475606260427 [Eh]
	-----------------------------------------------------------

  Dipole Moment: [D]
     X:     1.4858      Y:     2.6204      Z:     0.1439     Total:     3.0157

*** Psi4 exiting successfully. Buy a developer a beer!
