                               Psi4 1.3.2 release

  ==> Input File <==

--------------------------------------------------------------------------
#psi4
#
memory 32 gb

molecule  {
0 1
  S       -0.4214780    -0.1554040     0.0158080
  O       -1.4979277     1.0198736    -0.3937693
  O       -0.6402970    -0.4772220     1.4269040
  O       -0.4220170    -1.1957040    -1.0033910
  C        1.0482880     0.8316110    -0.1712040
  C        2.2874680    -0.0228060     0.0685240
  H        1.0172350     1.2390840    -1.1847640
  H        0.9628170     1.6516560     0.5452270
  H        3.1798800     0.5979390    -0.0357570
  H        2.2751200    -0.4461820     1.0750660
  H        2.3399770    -0.8369630    -0.6562920
  H       -2.2229620     0.9537130     0.3175410
units angstrom
no_reorient  #important for SAPT in psi4, default
symmetry c1  #important for SAPT in psi4, default
}

set PROPERTIES_ORIGIN ["COM"]
properties('MP2/aug-cc-pvtz', properties = ['dipole'])
--------------------------------------------------------------------------

    Molecular point group: c1
  Charge       = 0
  Multiplicity = 1
  Basis Set: AUG-CC-PVTZ
    Blend: AUG-CC-PVTZ
  Basis Set: (AUG-CC-PVTZ AUX)
    Blend: AUG-CC-PVTZ-JKFIT

    Orbital Energies [Eh]
    ---------------------

    Doubly Occupied:

       1A    -92.227389     2A    -20.640451     3A    -20.569726
       4A    -20.565620     5A    -11.290296     6A    -11.249111
       7A     -9.191633     8A     -6.877239     9A     -6.875613
      10A     -6.875404    11A     -1.494896    12A     -1.382533
      13A     -1.353220    14A     -1.095320    15A     -0.942360
      16A     -0.833651    17A     -0.741486    18A     -0.712478
      19A     -0.688150    20A     -0.657703    21A     -0.632320
      22A     -0.595771    23A     -0.569818    24A     -0.554469
      25A     -0.538508    26A     -0.523391    27A     -0.504443
      28A     -0.484522    29A     -0.474234

  @DF-RHF Final Energy:  -701.44019071738012

   => Energetics <=

    Nuclear Repulsion Energy =            357.1096975668519349
    One-Electron Energy =               -1674.8162671924178539
    Two-Electron Energy =                 616.2663789081857431
    Total Energy =                       -701.4401907173801192
  Basis Set: (AUG-CC-PVTZ AUX)
    Blend: AUG-CC-PVTZ-RI
    Molecular point group: c1

    Geometry (in Angstrom), charge = 0, multiplicity = 1:

       Center              X                  Y                   Z               Mass
    ------------   -----------------  -----------------  -----------------  -----------------
         S           -0.359787949393    -0.132454995354     0.017530659813    31.972071174400
         O           -1.436237649393     1.042822604646    -0.392046640187    15.994914619570
         O           -0.578606949393    -0.454272995354     1.428626659813    15.994914619570
         O           -0.360326949393    -1.172754995354    -1.001668340187    15.994914619570
         C            1.109978050607     0.854560004646    -0.169481340187    12.000000000000
         C            2.349158050607     0.000143004646     0.070246659813    12.000000000000
         H            1.078925050607     1.262033004646    -1.183041340187     1.007825032230
         H            1.024507050607     1.674605004646     0.546949659813     1.007825032230
         H            3.241570050607     0.620888004646    -0.034034340187     1.007825032230
         H            2.336810050607    -0.423232995354     1.076788659813     1.007825032230
         H            2.401667050607    -0.814013995354    -0.654569340187     1.007825032230
         H           -2.161271949393     0.976662004646     0.319263659813     1.007825032230

  Basis Set: AUG-CC-PVTZ
    Blend: AUG-CC-PVTZ
  Basis Set: (AUG-CC-PVTZ AUX)
    Blend: AUG-CC-PVTZ-JKFIT
	 Reference Energy          =    -701.4401907173801192 [Eh]
	 Singles Energy            =      -0.0000000000000000 [Eh]
	 Same-Spin Energy          =      -0.3557039118286372 [Eh]
	 Opposite-Spin Energy      =      -1.0637154332235790 [Eh]
	 Correlation Energy        =      -1.4194193450522161 [Eh]
	 Total Energy              =    -702.8596100624323526 [Eh]

	 ================> DF-SCS-MP2 Energies <==================
	-----------------------------------------------------------
	 SCS Same-Spin Scale       =       0.3333333333333333 [-]
	 SCS Opposite-Spin Scale   =       1.2000000000000000 [-]
	 SCS Same-Spin Energy      =      -0.1185679706095457 [Eh]
	 SCS Opposite-Spin Energy  =      -1.2764585198682947 [Eh]
	 SCS Correlation Energy    =      -1.3950264904778404 [Eh]
	 SCS Total Energy          =    -702.8352172078579088 [Eh]
	-----------------------------------------------------------

  Dipole Moment: [D]
     X:     1.4014      Y:     2.9453      Z:     0.2430     Total:     3.2707

*** Psi4 exiting successfully. Buy a developer a beer!
