                               Psi4 1.3.2 release

  ==> Input File <==

--------------------------------------------------------------------------
#psi4
#
memory 32 gb

molecule  {
0 1
  S       -0.4214780    -0.1554040     0.0158080
  O       -1.4045410     0.8439544    -0.3369415
  O       -0.6402970    -0.4772220     1.4269040
  O       -0.4220170    -1.1957040    -1.0033910
  C        1.0482880     0.8316110    -0.1712040
  C        2.2874680    -0.0228060     0.0685240
  H        1.0172350     1.2390840    -1.1847640
  H        0.9628170     1.6516560     0.5452270
  H        3.1798800     0.5979390    -0.0357570
  H        2.2751200    -0.4461820     1.0750660
  H        2.3399770    -0.8369630    -0.6562920
  H       -2.2229620     0.9537130     0.3175410
units angstrom
no_reorient  #important for SAPT in psi4, default
symmetry c1  #important for SAPT in psi4, default
}

set PROPERTIES_ORIGIN ["COM"]
properties('MP2/aug-cc-pvtz', properties = ['dipole'])
--------------------------------------------------------------------------

    Molecular point group: c1
  Charge       = 0
  Multiplicity = 1
  Basis Set: AUG-CC-PVTZ
    Blend: AUG-CC-PVTZ
  Basis Set: (AUG-CC-PVTZ AUX)
    Blend: AUG-CC-PVTZ-JKFIT

    Orbital Energies [Eh]
    ---------------------

    Doubly Occupied:

       1A    -92.211387     2A    -20.652258     3A    -20.548237
       4A    -20.545362     5A    -11.280468     6A    -11.241547
       7A     -9.178131     8A     -6.864935     9A     -6.862030
      10A     -6.861719    11A     -1.557780    12A     -1.390487
      13A     -1.339429    14A     -1.088116    15A     -0.947526
      16A     -0.860924    17A     -0.755901    18A     -0.730723
      19A     -0.707055    20A     -0.653874    21A     -0.625019
      22A     -0.596307    23A     -0.563507    24A     -0.552000
      25A     -0.531638    26A     -0.518673    27A     -0.490272
      28A     -0.469005    29A     -0.462224

  @DF-RHF Final Energy:  -701.42637228862532

   => Energetics <=

    Nuclear Repulsion Energy =            365.4996204061942535
    One-Electron Energy =               -1691.6789174384905436
    Two-Electron Energy =                 624.7529247436709738
    Total Energy =                       -701.4263722886253163
  Basis Set: (AUG-CC-PVTZ AUX)
    Blend: AUG-CC-PVTZ-RI
    Molecular point group: c1

    Geometry (in Angstrom), charge = 0, multiplicity = 1:

       Center              X                  Y                   Z               Mass
    ------------   -----------------  -----------------  -----------------  -----------------
         S           -0.373366687267    -0.106875756514     0.009267708021    31.972071174400
         O           -1.356429687267     0.892482643486    -0.343481791979    15.994914619570
         O           -0.592185687267    -0.428693756514     1.420363708021    15.994914619570
         O           -0.373905687267    -1.147175756514    -1.009931291979    15.994914619570
         C            1.096399312733     0.880139243486    -0.177744291979    12.000000000000
         C            2.335579312733     0.025722243486     0.061983708021    12.000000000000
         H            1.065346312733     1.287612243486    -1.191304291979     1.007825032230
         H            1.010928312733     1.700184243486     0.538686708021     1.007825032230
         H            3.227991312733     0.646467243486    -0.042297291979     1.007825032230
         H            2.323231312733    -0.397653756514     1.068525708021     1.007825032230
         H            2.388088312733    -0.788434756514    -0.662832291979     1.007825032230
         H           -2.174850687267     1.002241243486     0.311000708021     1.007825032230

  Basis Set: AUG-CC-PVTZ
    Blend: AUG-CC-PVTZ
  Basis Set: (AUG-CC-PVTZ AUX)
    Blend: AUG-CC-PVTZ-JKFIT
	 Reference Energy          =    -701.4263722886253163 [Eh]
	 Singles Energy            =      -0.0000000000000000 [Eh]
	 Same-Spin Energy          =      -0.3536116916952644 [Eh]
	 Opposite-Spin Energy      =      -1.0555132433003187 [Eh]
	 Correlation Energy        =      -1.4091249349955830 [Eh]
	 Total Energy              =    -702.8354972236209051 [Eh]

	 ================> DF-SCS-MP2 Energies <==================
	-----------------------------------------------------------
	 SCS Same-Spin Scale       =       0.3333333333333333 [-]
	 SCS Opposite-Spin Scale   =       1.2000000000000000 [-]
	 SCS Same-Spin Energy      =      -0.1178705638984215 [Eh]
	 SCS Opposite-Spin Energy  =      -1.2666158919603825 [Eh]
	 SCS Correlation Energy    =      -1.3844864558588039 [Eh]
	 SCS Total Energy          =    -702.8108587444841078 [Eh]
	-----------------------------------------------------------

  Dipole Moment: [D]
     X:     0.3671      Y:     3.8964      Z:     0.0187     Total:     3.9137

*** Psi4 exiting successfully. Buy a developer a beer!
