                               Psi4 1.3.2 release

  ==> Input File <==

--------------------------------------------------------------------------
#psi4
#
memory 32 gb

molecule  {
0 1
  S       -0.3479222    -0.2523539     0.0409315
  O       -1.5405550     0.9822230    -0.3857470
  O       -0.6402970    -0.4772220     1.4269040
  O       -0.4220170    -1.1957040    -1.0033910
  C        1.0482880     0.8316110    -0.1712040
  C        2.2874680    -0.0228060     0.0685240
  H        1.0172350     1.2390840    -1.1847640
  H        0.9628170     1.6516560     0.5452270
  H        3.1798800     0.5979390    -0.0357570
  H        2.2751200    -0.4461820     1.0750660
  H        2.3399770    -0.8369630    -0.6562920
  H       -2.2229620     0.9537130     0.3175410
units angstrom
no_reorient  #important for SAPT in psi4, default
symmetry c1  #important for SAPT in psi4, default
}

set PROPERTIES_ORIGIN ["COM"]
properties('MP2/aug-cc-pvtz', properties = ['dipole'])
--------------------------------------------------------------------------

    Molecular point group: c1
  Charge       = 0
  Multiplicity = 1
  Basis Set: AUG-CC-PVTZ
    Blend: AUG-CC-PVTZ
  Basis Set: (AUG-CC-PVTZ AUX)
    Blend: AUG-CC-PVTZ-JKFIT

    Orbital Energies [Eh]
    ---------------------

    Doubly Occupied:

       1A    -92.227029     2A    -20.595985     3A    -20.582342
       4A    -20.579778     5A    -11.295931     6A    -11.254887
       7A     -9.192599     8A     -6.877998     9A     -6.876769
      10A     -6.876193    11A     -1.504773    12A     -1.388604
      13A     -1.342756    14A     -1.102883    15A     -0.938569
      16A     -0.826835    17A     -0.732819    18A     -0.710226
      19A     -0.692745    20A     -0.654682    21A     -0.636602
      22A     -0.593327    23A     -0.572496    24A     -0.550623
      25A     -0.543966    26A     -0.521554    27A     -0.514505
      28A     -0.497651    29A     -0.474547

  @DF-RHF Final Energy:  -701.42836555058898

   => Energetics <=

    Nuclear Repulsion Energy =            357.1763522931481702
    One-Electron Energy =               -1674.8900848252983451
    Two-Electron Energy =                 616.2853669815610829
    Total Energy =                       -701.4283655505889783
  Basis Set: (AUG-CC-PVTZ AUX)
    Blend: AUG-CC-PVTZ-RI
    Molecular point group: c1

    Geometry (in Angstrom), charge = 0, multiplicity = 1:

       Center              X                  Y                   Z               Mass
    ------------   -----------------  -----------------  -----------------  -----------------
         S           -0.301412641129    -0.195752345117     0.034185664832    31.972071174400
         O           -1.494045441129     1.038824554883    -0.392492835168    15.994914619570
         O           -0.593787441129    -0.420620445117     1.420158164832    15.994914619570
         O           -0.375507441129    -1.139102445117    -1.010136835168    15.994914619570
         C            1.094797558871     0.888212554883    -0.177949835168    12.000000000000
         C            2.333977558871     0.033795554883     0.061778164832    12.000000000000
         H            1.063744558871     1.295685554883    -1.191509835168     1.007825032230
         H            1.009326558871     1.708257554883     0.538481164832     1.007825032230
         H            3.226389558871     0.654540554883    -0.042502835168     1.007825032230
         H            2.321629558871    -0.389580445117     1.068320164832     1.007825032230
         H            2.386486558871    -0.780361445117    -0.663037835168     1.007825032230
         H           -2.176452441129     1.010314554883     0.310795164832     1.007825032230

  Basis Set: AUG-CC-PVTZ
    Blend: AUG-CC-PVTZ
  Basis Set: (AUG-CC-PVTZ AUX)
    Blend: AUG-CC-PVTZ-JKFIT
	 Reference Energy          =    -701.4283655505889783 [Eh]
	 Singles Energy            =      -0.0000000000000000 [Eh]
	 Same-Spin Energy          =      -0.3553799948124586 [Eh]
	 Opposite-Spin Energy      =      -1.0643576240130548 [Eh]
	 Correlation Energy        =      -1.4197376188255135 [Eh]
	 Total Energy              =    -702.8481031694144576 [Eh]

	 ================> DF-SCS-MP2 Energies <==================
	-----------------------------------------------------------
	 SCS Same-Spin Scale       =       0.3333333333333333 [-]
	 SCS Opposite-Spin Scale   =       1.2000000000000000 [-]
	 SCS Same-Spin Energy      =      -0.1184599982708195 [Eh]
	 SCS Opposite-Spin Energy  =      -1.2772291488156657 [Eh]
	 SCS Correlation Energy    =      -1.3956891470864852 [Eh]
	 SCS Total Energy          =    -702.8240546976754786 [Eh]
	-----------------------------------------------------------

  Dipole Moment: [D]
     X:     2.3457      Y:     2.0373      Z:     0.4306     Total:     3.1366

*** Psi4 exiting successfully. Buy a developer a beer!
