                               Psi4 1.3.2 release

  ==> Input File <==

--------------------------------------------------------------------------
#psi4
#
memory 32 gb

molecule  {
0 1
  S       -0.4878733    -0.0536455    -0.0102266
  O       -1.5405550     0.9822230    -0.3857470
  O       -0.6402970    -0.4772220     1.4269040
  O       -0.4220170    -1.1957040    -1.0033910
  C        1.0482880     0.8316110    -0.1712040
  C        2.2874680    -0.0228060     0.0685240
  H        1.0172350     1.2390840    -1.1847640
  H        0.9628170     1.6516560     0.5452270
  H        3.1798800     0.5979390    -0.0357570
  H        2.2751200    -0.4461820     1.0750660
  H        2.3399770    -0.8369630    -0.6562920
  H       -2.2229620     0.9537130     0.3175410
units angstrom
no_reorient  #important for SAPT in psi4, default
symmetry c1  #important for SAPT in psi4, default
}

set PROPERTIES_ORIGIN ["COM"]
properties('MP2/aug-cc-pvtz', properties = ['dipole'])
--------------------------------------------------------------------------

    Molecular point group: c1
  Charge       = 0
  Multiplicity = 1
  Basis Set: AUG-CC-PVTZ
    Blend: AUG-CC-PVTZ
  Basis Set: (AUG-CC-PVTZ AUX)
    Blend: AUG-CC-PVTZ-JKFIT

    Orbital Energies [Eh]
    ---------------------

    Doubly Occupied:

       1A    -92.228410     2A    -20.673003     3A    -20.557209
       4A    -20.547593     5A    -11.292262     6A    -11.248000
       7A     -9.192904     8A     -6.878760     9A     -6.876840
      10A     -6.876225    11A     -1.537419    12A     -1.384121
      13A     -1.311792    14A     -1.094141    15A     -0.958510
      16A     -0.863296    17A     -0.767582    18A     -0.727233
      19A     -0.699351    20A     -0.661278    21A     -0.626644
      22A     -0.592643    23A     -0.568752    24A     -0.556911
      25A     -0.535012    26A     -0.516000    27A     -0.482471
      28A     -0.465194    29A     -0.457799

  @DF-RHF Final Energy:  -701.42740746921515

   => Energetics <=

    Nuclear Repulsion Energy =            357.0060995482639896
    One-Electron Energy =               -1674.5123040140701960
    Two-Electron Energy =                 616.0787969965909951
    Total Energy =                       -701.4274074692151544
  Basis Set: (AUG-CC-PVTZ AUX)
    Blend: AUG-CC-PVTZ-RI
    Molecular point group: c1

    Geometry (in Angstrom), charge = 0, multiplicity = 1:

       Center              X                  Y                   Z               Mass
    ------------   -----------------  -----------------  -----------------  -----------------
         S           -0.400687619535    -0.054797596500    -0.002103576716    31.972071174400
         O           -1.453369319535     0.981070903500    -0.377623976716    15.994914619570
         O           -0.553111319535    -0.478374096500     1.435027023284    15.994914619570
         O           -0.334831319535    -1.196856096500    -0.995267976716    15.994914619570
         C            1.135473680465     0.830458903500    -0.163080976716    12.000000000000
         C            2.374653680465    -0.023958096500     0.076647023284    12.000000000000
         H            1.104420680465     1.237931903500    -1.176640976716     1.007825032230
         H            1.050002680465     1.650503903500     0.553350023284     1.007825032230
         H            3.267065680465     0.596786903500    -0.027633976716     1.007825032230
         H            2.362305680465    -0.447334096500     1.083189023284     1.007825032230
         H            2.427162680465    -0.838115096500    -0.648168976716     1.007825032230
         H           -2.135776319535     0.952560903500     0.325664023284     1.007825032230

  Basis Set: AUG-CC-PVTZ
    Blend: AUG-CC-PVTZ
  Basis Set: (AUG-CC-PVTZ AUX)
    Blend: AUG-CC-PVTZ-JKFIT
	 Reference Energy          =    -701.4274074692151544 [Eh]
	 Singles Energy            =      -0.0000000000000000 [Eh]
	 Same-Spin Energy          =      -0.3554671627763664 [Eh]
	 Opposite-Spin Energy      =      -1.0619336054565851 [Eh]
	 Correlation Energy        =      -1.4174007682329515 [Eh]
	 Total Energy              =    -702.8448082374480919 [Eh]

	 ================> DF-SCS-MP2 Energies <==================
	-----------------------------------------------------------
	 SCS Same-Spin Scale       =       0.3333333333333333 [-]
	 SCS Opposite-Spin Scale   =       1.2000000000000000 [-]
	 SCS Same-Spin Energy      =      -0.1184890542587888 [Eh]
	 SCS Opposite-Spin Energy  =      -1.2743203265479022 [Eh]
	 SCS Correlation Energy    =      -1.3928093808066910 [Eh]
	 SCS Total Energy          =    -702.8202168500218932 [Eh]
	-----------------------------------------------------------

  Dipole Moment: [D]
     X:     0.8249      Y:     4.0006      Z:     0.0549     Total:     4.0851

*** Psi4 exiting successfully. Buy a developer a beer!
