                               Psi4 1.3.2 release

  ==> Input File <==

--------------------------------------------------------------------------
#psi4
#
memory 32 gb

molecule  {
0 1
  S       -0.4214780    -0.1554040     0.0158080
  O       -1.5300851     0.9827217    -0.4124855
  O       -0.6402970    -0.4772220     1.4269040
  O       -0.4220170    -1.1957040    -1.0033910
  C        1.0482880     0.8316110    -0.1712040
  C        2.2874680    -0.0228060     0.0685240
  H        1.0172350     1.2390840    -1.1847640
  H        0.9628170     1.6516560     0.5452270
  H        3.1798800     0.5979390    -0.0357570
  H        2.2751200    -0.4461820     1.0750660
  H        2.3399770    -0.8369630    -0.6562920
  H       -2.2229620     0.9537130     0.3175410
units angstrom
no_reorient  #important for SAPT in psi4, default
symmetry c1  #important for SAPT in psi4, default
}

set PROPERTIES_ORIGIN ["COM"]
properties('MP2/aug-cc-pvtz', properties = ['dipole'])
--------------------------------------------------------------------------

    Molecular point group: c1
  Charge       = 0
  Multiplicity = 1
  Basis Set: AUG-CC-PVTZ
    Blend: AUG-CC-PVTZ
  Basis Set: (AUG-CC-PVTZ AUX)
    Blend: AUG-CC-PVTZ-JKFIT

    Orbital Energies [Eh]
    ---------------------

    Doubly Occupied:

       1A    -92.227416     2A    -20.638969     3A    -20.569718
       4A    -20.563483     5A    -11.292048     6A    -11.250253
       7A     -9.191619     8A     -6.877210     9A     -6.875615
      10A     -6.875396    11A     -1.495021    12A     -1.382650
      13A     -1.352670    14A     -1.096530    15A     -0.943246
      16A     -0.835207    17A     -0.743938    18A     -0.712221
      19A     -0.687276    20A     -0.658772    21A     -0.631297
      22A     -0.596770    23A     -0.569681    24A     -0.555559
      25A     -0.539580    26A     -0.522180    27A     -0.503858
      28A     -0.483935    29A     -0.474708

  @DF-RHF Final Energy:  -701.44204721369499

   => Energetics <=

    Nuclear Repulsion Energy =            357.0474691263013369
    One-Electron Energy =               -1674.6853779159766873
    Two-Electron Energy =                 616.1958615759803024
    Total Energy =                       -701.4420472136949911
  Basis Set: (AUG-CC-PVTZ AUX)
    Blend: AUG-CC-PVTZ-RI
    Molecular point group: c1

    Geometry (in Angstrom), charge = 0, multiplicity = 1:

       Center              X                  Y                   Z               Mass
    ------------   -----------------  -----------------  -----------------  -----------------
         S           -0.355112156103    -0.127052985093     0.020252057761    31.972071174400
         O           -1.463719256103     1.011072714907    -0.408041442239    15.994914619570
         O           -0.573931156103    -0.448870985093     1.431348057761    15.994914619570
         O           -0.355651156103    -1.167352985093    -0.998946942239    15.994914619570
         C            1.114653843897     0.859962014907    -0.166759942239    12.000000000000
         C            2.353833843897     0.005545014907     0.072968057761    12.000000000000
         H            1.083600843897     1.267435014907    -1.180319942239     1.007825032230
         H            1.029182843897     1.680007014907     0.549671057761     1.007825032230
         H            3.246245843897     0.626290014907    -0.031312942239     1.007825032230
         H            2.341485843897    -0.417830985093     1.079510057761     1.007825032230
         H            2.406342843897    -0.808611985093    -0.651847942239     1.007825032230
         H           -2.156596156103     0.982064014907     0.321985057761     1.007825032230

  Basis Set: AUG-CC-PVTZ
    Blend: AUG-CC-PVTZ
  Basis Set: (AUG-CC-PVTZ AUX)
    Blend: AUG-CC-PVTZ-JKFIT
	 Reference Energy          =    -701.4420472136949911 [Eh]
	 Singles Energy            =      -0.0000000000000000 [Eh]
	 Same-Spin Energy          =      -0.3554552856895788 [Eh]
	 Opposite-Spin Energy      =      -1.0631427430440759 [Eh]
	 Correlation Energy        =      -1.4185980287336548 [Eh]
	 Total Energy              =    -702.8606452424286317 [Eh]

	 ================> DF-SCS-MP2 Energies <==================
	-----------------------------------------------------------
	 SCS Same-Spin Scale       =       0.3333333333333333 [-]
	 SCS Opposite-Spin Scale   =       1.2000000000000000 [-]
	 SCS Same-Spin Energy      =      -0.1184850952298596 [Eh]
	 SCS Opposite-Spin Energy  =      -1.2757712916528909 [Eh]
	 SCS Correlation Energy    =      -1.3942563868827507 [Eh]
	 SCS Total Energy          =    -702.8363036005777076 [Eh]
	-----------------------------------------------------------

  Dipole Moment: [D]
     X:     1.4923      Y:     3.0223      Z:     0.2899     Total:     3.3831

*** Psi4 exiting successfully. Buy a developer a beer!
