                               Psi4 1.3.2 release

  ==> Input File <==

--------------------------------------------------------------------------
#psi4
#
memory 32 gb

molecule  {
0 1
  S       -0.4214780    -0.1554040     0.0158080
  O       -1.6085620     1.0513573    -0.4101497
  O       -0.6402970    -0.4772220     1.4269040
  O       -0.4220170    -1.1957040    -1.0033910
  C        1.0482880     0.8316110    -0.1712040
  C        2.2874680    -0.0228060     0.0685240
  H        1.0172350     1.2390840    -1.1847640
  H        0.9628170     1.6516560     0.5452270
  H        3.1798800     0.5979390    -0.0357570
  H        2.2751200    -0.4461820     1.0750660
  H        2.3399770    -0.8369630    -0.6562920
  H       -2.2229620     0.9537130     0.3175410
units angstrom
no_reorient  #important for SAPT in psi4, default
symmetry c1  #important for SAPT in psi4, default
}

set PROPERTIES_ORIGIN ["COM"]
properties('MP2/aug-cc-pvtz', properties = ['dipole'])
--------------------------------------------------------------------------

    Molecular point group: c1
  Charge       = 0
  Multiplicity = 1
  Basis Set: AUG-CC-PVTZ
    Blend: AUG-CC-PVTZ
  Basis Set: (AUG-CC-PVTZ AUX)
    Blend: AUG-CC-PVTZ-JKFIT

    Orbital Energies [Eh]
    ---------------------

    Doubly Occupied:

       1A    -92.232687     2A    -20.628046     3A    -20.577072
       4A    -20.572990     5A    -11.297952     6A    -11.254648
       7A     -9.196777     8A     -6.882096     9A     -6.880583
      10A     -6.880425    11A     -1.484593    12A     -1.375820
      13A     -1.358158    14A     -1.101232    15A     -0.945596
      16A     -0.831176    17A     -0.736045    18A     -0.709015
      19A     -0.687071    20A     -0.661647    21A     -0.636016
      22A     -0.593841    23A     -0.570883    24A     -0.555033
      25A     -0.543445    26A     -0.520513    27A     -0.509570
      28A     -0.490461    29A     -0.478125

  @DF-RHF Final Energy:  -701.43288928032700

   => Energetics <=

    Nuclear Repulsion Energy =            353.4885880588515761
    One-Electron Energy =               -1667.4599255944613105
    Two-Electron Energy =                 612.5384482552827876
    Total Energy =                       -701.4328892803270037
  Basis Set: (AUG-CC-PVTZ AUX)
    Blend: AUG-CC-PVTZ-RI
    Molecular point group: c1

    Geometry (in Angstrom), charge = 0, multiplicity = 1:

       Center              X                  Y                   Z               Mass
    ------------   -----------------  -----------------  -----------------  -----------------
         S           -0.343701352913    -0.137032830416     0.019912424645    31.972071174400
         O           -1.530785352913     1.069728469584    -0.406045275355    15.994914619570
         O           -0.562520352913    -0.458850830416     1.431008424645    15.994914619570
         O           -0.344240352913    -1.177332830416    -0.999286575355    15.994914619570
         C            1.126064647087     0.849982169584    -0.167099575355    12.000000000000
         C            2.365244647087    -0.004434830416     0.072628424645    12.000000000000
         H            1.095011647087     1.257455169584    -1.180659575355     1.007825032230
         H            1.040593647087     1.670027169584     0.549331424645     1.007825032230
         H            3.257656647087     0.616310169584    -0.031652575355     1.007825032230
         H            2.352896647087    -0.427810830416     1.079170424645     1.007825032230
         H            2.417753647087    -0.818591830416    -0.652187575355     1.007825032230
         H           -2.145185352913     0.972084169584     0.321645424645     1.007825032230

  Basis Set: AUG-CC-PVTZ
    Blend: AUG-CC-PVTZ
  Basis Set: (AUG-CC-PVTZ AUX)
    Blend: AUG-CC-PVTZ-JKFIT
	 Reference Energy          =    -701.4328892803270037 [Eh]
	 Singles Energy            =      -0.0000000000000000 [Eh]
	 Same-Spin Energy          =      -0.3562136796137220 [Eh]
	 Opposite-Spin Energy      =      -1.0664740814223785 [Eh]
	 Correlation Energy        =      -1.4226877610361006 [Eh]
	 Total Energy              =    -702.8555770413630626 [Eh]

	 ================> DF-SCS-MP2 Energies <==================
	-----------------------------------------------------------
	 SCS Same-Spin Scale       =       0.3333333333333333 [-]
	 SCS Opposite-Spin Scale   =       1.2000000000000000 [-]
	 SCS Same-Spin Energy      =      -0.1187378932045740 [Eh]
	 SCS Opposite-Spin Energy  =      -1.2797688977068542 [Eh]
	 SCS Correlation Energy    =      -1.3985067909114282 [Eh]
	 SCS Total Energy          =    -702.8313960712384869 [Eh]
	-----------------------------------------------------------

  Dipole Moment: [D]
     X:     2.0652      Y:     2.5934      Z:     0.3456     Total:     3.3332

*** Psi4 exiting successfully. Buy a developer a beer!
