                               Psi4 1.3.2 release

  ==> Input File <==

--------------------------------------------------------------------------
#psi4
#
memory 32 gb

molecule  {
0 1
  S       -0.4214780    -0.1554040     0.0158080
  O       -1.5405550     0.9822230    -0.3857470
  O       -0.6402970    -0.4772220     1.4269040
  O       -0.4220170    -1.1957040    -1.0033910
  C        1.0482880     0.8316110    -0.1712040
  C        2.2874680    -0.0228060     0.0685240
  H        1.0172350     1.2390840    -1.1847640
  H        0.9628170     1.6516560     0.5452270
  H        3.1798800     0.5979390    -0.0357570
  H        2.2751200    -0.4461820     1.0750660
  H        2.3399770    -0.8369630    -0.6562920
  H       -2.3621776     0.9478968     0.4610164
units angstrom
no_reorient  #important for SAPT in psi4, default
symmetry c1  #important for SAPT in psi4, default
}

set PROPERTIES_ORIGIN ["COM"]
properties('MP2/aug-cc-pvtz', properties = ['dipole'])
--------------------------------------------------------------------------

    Molecular point group: c1
  Charge       = 0
  Multiplicity = 1
  Basis Set: AUG-CC-PVTZ
    Blend: AUG-CC-PVTZ
  Basis Set: (AUG-CC-PVTZ AUX)
    Blend: AUG-CC-PVTZ-JKFIT

    Orbital Energies [Eh]
    ---------------------

    Doubly Occupied:

       1A    -92.223883     2A    -20.643884     3A    -20.564663
       4A    -20.561796     5A    -11.290733     6A    -11.249175
       7A     -9.188025     8A     -6.873572     9A     -6.872047
      10A     -6.871849    11A     -1.484858    12A     -1.358079
      13A     -1.349017    14A     -1.094002    15A     -0.936304
      16A     -0.825231    17A     -0.722733    18A     -0.700784
      19A     -0.684309    20A     -0.650084    21A     -0.621020
      22A     -0.591866    23A     -0.566089    24A     -0.551894
      25A     -0.538112    26A     -0.516476    27A     -0.500284
      28A     -0.480115    29A     -0.471833

  @DF-RHF Final Energy:  -701.40986662843272

   => Energetics <=

    Nuclear Repulsion Energy =            355.9928967535492461
    One-Electron Energy =               -1672.8400901977245212
    Two-Electron Energy =                 615.4373268157424945
    Total Energy =                       -701.4098666284327237
  Basis Set: (AUG-CC-PVTZ AUX)
    Blend: AUG-CC-PVTZ-RI
    Molecular point group: c1

    Geometry (in Angstrom), charge = 0, multiplicity = 1:

       Center              X                  Y                   Z               Mass
    ------------   -----------------  -----------------  -----------------  -----------------
         S           -0.352314341660    -0.126927185982     0.015049707432    31.972071174400
         O           -1.471391341660     1.010699814018    -0.386505292568    15.994914619570
         O           -0.571133341660    -0.448745185982     1.426145707432    15.994914619570
         O           -0.352853341660    -1.167227185982    -1.004149292568    15.994914619570
         C            1.117451658340     0.860087814018    -0.171962292568    12.000000000000
         C            2.356631658340     0.005670814018     0.067765707432    12.000000000000
         H            1.086398658340     1.267560814018    -1.185522292568     1.007825032230
         H            1.031980658340     1.680132814018     0.544468707432     1.007825032230
         H            3.249043658340     0.626415814018    -0.036515292568     1.007825032230
         H            2.344283658340    -0.417705185982     1.074307707432     1.007825032230
         H            2.409140658340    -0.808486185982    -0.657050292568     1.007825032230
         H           -2.293013941660     0.976373614018     0.460258107432     1.007825032230

  Basis Set: AUG-CC-PVTZ
    Blend: AUG-CC-PVTZ
  Basis Set: (AUG-CC-PVTZ AUX)
    Blend: AUG-CC-PVTZ-JKFIT
	 Reference Energy          =    -701.4098666284327237 [Eh]
	 Singles Energy            =      -0.0000000000000000 [Eh]
	 Same-Spin Energy          =      -0.3574282498743179 [Eh]
	 Opposite-Spin Energy      =      -1.0682536340129465 [Eh]
	 Correlation Energy        =      -1.4256818838872642 [Eh]
	 Total Energy              =    -702.8355485123199742 [Eh]

	 ================> DF-SCS-MP2 Energies <==================
	-----------------------------------------------------------
	 SCS Same-Spin Scale       =       0.3333333333333333 [-]
	 SCS Opposite-Spin Scale   =       1.2000000000000000 [-]
	 SCS Same-Spin Energy      =      -0.1191427499581059 [Eh]
	 SCS Opposite-Spin Energy  =      -1.2819043608155358 [Eh]
	 SCS Correlation Energy    =      -1.4010471107736417 [Eh]
	 SCS Total Energy          =    -702.8109137392063985 [Eh]
	-----------------------------------------------------------

  Dipole Moment: [D]
     X:     1.2654      Y:     3.0664      Z:     0.4108     Total:     3.3426

*** Psi4 exiting successfully. Buy a developer a beer!
