                               Psi4 1.3.2 release

  ==> Input File <==

--------------------------------------------------------------------------
#psi4
#
memory 32 gb

molecule  {
0 1
  O       -0.4923450     1.3632740     0.0047680
  N       -1.7507560    -0.5313030    -0.0074470
  C        0.6724550    -0.7636660     0.0116250
  C        1.9661690     0.0374190    -0.0092300
  C       -0.5559540     0.1347490     0.0021540
  H        0.6261720    -1.4037350     0.9017330
  H        0.6181110    -1.4376660    -0.8525020
  H        2.8306620    -0.6317880     0.0008820
  H        2.0167960     0.6624200    -0.9023730
  H        2.0226490     0.6976010     0.8577070
  H       -1.8142910    -1.5376440    -0.0092160
  H       -2.6006770     0.0133827    -0.2595373
units angstrom
no_reorient  #important for SAPT in psi4, default
symmetry c1  #important for SAPT in psi4, default
}

set PROPERTIES_ORIGIN ["COM"]
properties('MP2/aug-cc-pvtz', properties = ['dipole'])
--------------------------------------------------------------------------

    Molecular point group: c1
  Charge       = 0
  Multiplicity = 1
  Basis Set: AUG-CC-PVTZ
    Blend: AUG-CC-PVTZ
  Basis Set: (AUG-CC-PVTZ AUX)
    Blend: AUG-CC-PVTZ-JKFIT

    Orbital Energies [Eh]
    ---------------------

    Doubly Occupied:

       1A    -20.519296     2A    -15.587612     3A    -11.352785
       4A    -11.243856     5A    -11.216026     6A     -1.372312
       7A     -1.205570     8A     -1.049947     9A     -0.890610
      10A     -0.780484    11A     -0.711433    12A     -0.667664
      13A     -0.636859    14A     -0.598533    15A     -0.547593
      16A     -0.524747    17A     -0.516027    18A     -0.492974
      19A     -0.424299    20A     -0.412954

  @DF-RHF Final Energy:  -247.10689316904393

   => Energetics <=

    Nuclear Repulsion Energy =            178.3863400853094276
    One-Electron Energy =                -689.4832951569919715
    Two-Electron Energy =                 263.9900619026386153
    Total Energy =                       -247.1068931690439285
  Basis Set: (AUG-CC-PVTZ AUX)
    Blend: AUG-CC-PVTZ-RI
    Molecular point group: c1

    Geometry (in Angstrom), charge = 0, multiplicity = 1:

       Center              X                  Y                   Z               Mass
    ------------   -----------------  -----------------  -----------------  -----------------
         O           -0.442099509203     1.313971174015     0.008036812936    15.994914619570
         N           -1.700510509203    -0.580605825985    -0.004178187064    14.003074004430
         C            0.722700490797    -0.812968825985     0.014893812936    12.000000000000
         C            2.016414490797    -0.011883825985    -0.005961187064    12.000000000000
         C           -0.505708509203     0.085446174015     0.005422812936    12.000000000000
         H            0.676417490797    -1.453037825985     0.905001812936     1.007825032230
         H            0.668356490797    -1.486968825985    -0.849233187064     1.007825032230
         H            2.880907490797    -0.681090825985     0.004150812936     1.007825032230
         H            2.067041490797     0.613117174015    -0.899104187064     1.007825032230
         H            2.072894490797     0.648298174015     0.860975812936     1.007825032230
         H           -1.764045509203    -1.586946825985    -0.005947187064     1.007825032230
         H           -2.550431509203    -0.035920125985    -0.256268487064     1.007825032230

  Basis Set: AUG-CC-PVTZ
    Blend: AUG-CC-PVTZ
  Basis Set: (AUG-CC-PVTZ AUX)
    Blend: AUG-CC-PVTZ-JKFIT
	 Reference Energy          =    -247.1068931690439285 [Eh]
	 Singles Energy            =      -0.0000000000000000 [Eh]
	 Same-Spin Energy          =      -0.2474498352754140 [Eh]
	 Opposite-Spin Energy      =      -0.8112362208457751 [Eh]
	 Correlation Energy        =      -1.0586860561211890 [Eh]
	 Total Energy              =    -248.1655792251651178 [Eh]

	 ================> DF-SCS-MP2 Energies <==================
	-----------------------------------------------------------
	 SCS Same-Spin Scale       =       0.3333333333333333 [-]
	 SCS Opposite-Spin Scale   =       1.2000000000000000 [-]
	 SCS Same-Spin Energy      =      -0.0824832784251380 [Eh]
	 SCS Opposite-Spin Energy  =      -0.9734834650149300 [Eh]
	 SCS Correlation Energy    =      -1.0559667434400679 [Eh]
	 SCS Total Energy          =    -248.1628599124840093 [Eh]
	-----------------------------------------------------------

  Dipole Moment: [D]
     X:    -0.8208      Y:    -3.5596      Z:    -0.3600     Total:     3.6707

*** Psi4 exiting successfully. Buy a developer a beer!
