                               Psi4 1.3.2 release

  ==> Input File <==

--------------------------------------------------------------------------
#psi4
#
memory 32 gb

molecule  {
0 1
  O       -0.4923450     1.3632740     0.0047680
  N       -1.7507560    -0.5313030    -0.0074470
  C        0.6720560    -0.7637233     0.0616234
  C        1.9661690     0.0374190    -0.0092300
  C       -0.5559540     0.1347490     0.0021540
  H        0.6261720    -1.4037350     0.9017330
  H        0.6181110    -1.4376660    -0.8525020
  H        2.8306620    -0.6317880     0.0008820
  H        2.0167960     0.6624200    -0.9023730
  H        2.0226490     0.6976010     0.8577070
  H       -1.8142910    -1.5376440    -0.0092160
  H       -2.6020670     0.0127290    -0.0095420
units angstrom
no_reorient  #important for SAPT in psi4, default
symmetry c1  #important for SAPT in psi4, default
}

set PROPERTIES_ORIGIN ["COM"]
properties('MP2/aug-cc-pvtz', properties = ['dipole'])
--------------------------------------------------------------------------

    Molecular point group: c1
  Charge       = 0
  Multiplicity = 1
  Basis Set: AUG-CC-PVTZ
    Blend: AUG-CC-PVTZ
  Basis Set: (AUG-CC-PVTZ AUX)
    Blend: AUG-CC-PVTZ-JKFIT

    Orbital Energies [Eh]
    ---------------------

    Doubly Occupied:

       1A    -20.518661     2A    -15.585598     3A    -11.352965
       4A    -11.244002     5A    -11.216211     6A     -1.372265
       7A     -1.208497     8A     -1.050187     9A     -0.892173
      10A     -0.782142    11A     -0.718370    12A     -0.670561
      13A     -0.635997    14A     -0.598617    15A     -0.548154
      16A     -0.525449    17A     -0.518977    18A     -0.489145
      19A     -0.423354    20A     -0.413200

  @DF-RHF Final Energy:  -247.10688488907599

   => Energetics <=

    Nuclear Repulsion Energy =            178.4993346563975649
    One-Electron Energy =                -689.6833883724982570
    Two-Electron Energy =                 264.0771688270247637
    Total Energy =                       -247.1068848890759568
  Basis Set: (AUG-CC-PVTZ AUX)
    Blend: AUG-CC-PVTZ-RI
    Molecular point group: c1

    Geometry (in Angstrom), charge = 0, multiplicity = 1:

       Center              X                  Y                   Z               Mass
    ------------   -----------------  -----------------  -----------------  -----------------
         O           -0.442014791302     1.313989604738    -0.003625063718    15.994914619570
         N           -1.700425791302    -0.580587395262    -0.015840063718    14.003074004430
         C            0.722386208698    -0.813007695262     0.053230336282    12.000000000000
         C            2.016499208698    -0.011865395262    -0.017623063718    12.000000000000
         C           -0.505623791302     0.085464604738    -0.006239063718    12.000000000000
         H            0.676502208698    -1.453019395262     0.893339936282     1.007825032230
         H            0.668441208698    -1.486950395262    -0.860895063718     1.007825032230
         H            2.880992208698    -0.681072395262    -0.007511063718     1.007825032230
         H            2.067126208698     0.613135604738    -0.910766063718     1.007825032230
         H            2.072979208698     0.648316604738     0.849313936282     1.007825032230
         H           -1.763960791302    -1.586928395262    -0.017609063718     1.007825032230
         H           -2.551736791302    -0.036555395262    -0.017935063718     1.007825032230

  Basis Set: AUG-CC-PVTZ
    Blend: AUG-CC-PVTZ
  Basis Set: (AUG-CC-PVTZ AUX)
    Blend: AUG-CC-PVTZ-JKFIT
	 Reference Energy          =    -247.1068848890759853 [Eh]
	 Singles Energy            =      -0.0000000000000000 [Eh]
	 Same-Spin Energy          =      -0.2472920828382825 [Eh]
	 Opposite-Spin Energy      =      -0.8108271491527548 [Eh]
	 Correlation Energy        =      -1.0581192319910373 [Eh]
	 Total Energy              =    -248.1650041210670281 [Eh]

	 ================> DF-SCS-MP2 Energies <==================
	-----------------------------------------------------------
	 SCS Same-Spin Scale       =       0.3333333333333333 [-]
	 SCS Opposite-Spin Scale   =       1.2000000000000000 [-]
	 SCS Same-Spin Energy      =      -0.0824306942794275 [Eh]
	 SCS Opposite-Spin Energy  =      -0.9729925789833057 [Eh]
	 SCS Correlation Energy    =      -1.0554232732627331 [Eh]
	 SCS Total Energy          =    -248.1623081623387179 [Eh]
	-----------------------------------------------------------

  Dipole Moment: [D]
     X:    -0.8606      Y:    -3.5626      Z:     0.0304     Total:     3.6652

*** Psi4 exiting successfully. Buy a developer a beer!
