                               Psi4 1.3.2 release

  ==> Input File <==

--------------------------------------------------------------------------
#psi4
#
memory 32 gb

molecule  {
0 1
  O       -0.4923450     1.3632740     0.0047680
  N       -1.7507560    -0.5313030    -0.0074470
  C        0.6724550    -0.7636660     0.0116250
  C        1.9661690     0.0374190    -0.0092300
  C       -0.5559540     0.1347490     0.0021540
  H        0.6261720    -1.4037350     0.9017330
  H        0.6181110    -1.4376660    -0.8525020
  H        2.8306620    -0.6317880     0.0008820
  H        2.0167960     0.6624200    -0.9023730
  H        2.0226490     0.6976010     0.8577070
  H       -1.8142910    -1.5376440    -0.0092160
  H       -2.6015110     0.0129905    -0.1095401
units angstrom
no_reorient  #important for SAPT in psi4, default
symmetry c1  #important for SAPT in psi4, default
}

set PROPERTIES_ORIGIN ["COM"]
properties('MP2/aug-cc-pvtz', properties = ['dipole'])
--------------------------------------------------------------------------

    Molecular point group: c1
  Charge       = 0
  Multiplicity = 1
  Basis Set: AUG-CC-PVTZ
    Blend: AUG-CC-PVTZ
  Basis Set: (AUG-CC-PVTZ AUX)
    Blend: AUG-CC-PVTZ-JKFIT

    Orbital Energies [Eh]
    ---------------------

    Doubly Occupied:

       1A    -20.518686     2A    -15.585913     3A    -11.352756
       4A    -11.243785     5A    -11.215971     6A     -1.372216
       7A     -1.207999     8A     -1.050238     9A     -0.891829
      10A     -0.781399    11A     -0.716689    12A     -0.669477
      13A     -0.636955    14A     -0.598585    15A     -0.547598
      16A     -0.525638    17A     -0.515923    18A     -0.493026
      19A     -0.423584    20A     -0.413140

  @DF-RHF Final Energy:  -247.10918445198277

   => Energetics <=

    Nuclear Repulsion Energy =            178.4981693460623546
    One-Electron Energy =                -689.6918923201722009
    Two-Electron Energy =                 264.0845385221271044
    Total Energy =                       -247.1091844519827418
  Basis Set: (AUG-CC-PVTZ AUX)
    Blend: AUG-CC-PVTZ-RI
    Molecular point group: c1

    Geometry (in Angstrom), charge = 0, multiplicity = 1:

       Center              X                  Y                   Z               Mass
    ------------   -----------------  -----------------  -----------------  -----------------
         O           -0.442088003464     1.313976584748     0.005967473941    15.994914619570
         N           -1.700499003464    -0.580600415252    -0.006247526059    14.003074004430
         C            0.722711996536    -0.812963415252     0.012824473941    12.000000000000
         C            2.016425996536    -0.011878415252    -0.008030526059    12.000000000000
         C           -0.505697003464     0.085451584748     0.003353473941    12.000000000000
         H            0.676428996536    -1.453032415252     0.902932473941     1.007825032230
         H            0.668367996536    -1.486963415252    -0.851302526059     1.007825032230
         H            2.880918996536    -0.681085415252     0.002081473941     1.007825032230
         H            2.067052996536     0.613122584748    -0.901173526059     1.007825032230
         H            2.072905996536     0.648303584748     0.858906473941     1.007825032230
         H           -1.764034003464    -1.586941415252    -0.008016526059     1.007825032230
         H           -2.551254003464    -0.036306915252    -0.108340626059     1.007825032230

  Basis Set: AUG-CC-PVTZ
    Blend: AUG-CC-PVTZ
  Basis Set: (AUG-CC-PVTZ AUX)
    Blend: AUG-CC-PVTZ-JKFIT
	 Reference Energy          =    -247.1091844519827703 [Eh]
	 Singles Energy            =      -0.0000000000000000 [Eh]
	 Same-Spin Energy          =      -0.2472959834945053 [Eh]
	 Opposite-Spin Energy      =      -0.8107866859422995 [Eh]
	 Correlation Energy        =      -1.0580826694368048 [Eh]
	 Total Energy              =    -248.1672671214195702 [Eh]

	 ================> DF-SCS-MP2 Energies <==================
	-----------------------------------------------------------
	 SCS Same-Spin Scale       =       0.3333333333333333 [-]
	 SCS Opposite-Spin Scale   =       1.2000000000000000 [-]
	 SCS Same-Spin Energy      =      -0.0824319944981684 [Eh]
	 SCS Opposite-Spin Energy  =      -0.9729440231307593 [Eh]
	 SCS Correlation Energy    =      -1.0553760176289277 [Eh]
	 SCS Total Energy          =    -248.1645604696117005 [Eh]
	-----------------------------------------------------------

  Dipole Moment: [D]
     X:    -0.8533      Y:    -3.5668      Z:    -0.1484     Total:     3.6704

*** Psi4 exiting successfully. Buy a developer a beer!
