                               Psi4 1.3.2 release

  ==> Input File <==

--------------------------------------------------------------------------
#psi4
#
memory 32 gb

molecule  {
0 1
  O       -0.4923450     1.3632740     0.0047680
  N       -1.7507560    -0.5313030    -0.0074470
  C        0.6724550    -0.7636660     0.0116250
  C        1.9661690     0.0374190    -0.0092300
  C       -0.5559540     0.1347490     0.0021540
  H        0.6261720    -1.4037350     0.9017330
  H        0.6181110    -1.4376660    -0.8525020
  H        2.8306620    -0.6317880     0.0008820
  H        2.0167960     0.6624200    -0.9023730
  H        2.0226490     0.6976010     0.8577070
  H       -1.8142910    -1.5376440    -0.0092160
  H       -2.6012330     0.0131212    -0.1595392
units angstrom
no_reorient  #important for SAPT in psi4, default
symmetry c1  #important for SAPT in psi4, default
}

set PROPERTIES_ORIGIN ["COM"]
properties('MP2/aug-cc-pvtz', properties = ['dipole'])
--------------------------------------------------------------------------

    Molecular point group: c1
  Charge       = 0
  Multiplicity = 1
  Basis Set: AUG-CC-PVTZ
    Blend: AUG-CC-PVTZ
  Basis Set: (AUG-CC-PVTZ AUX)
    Blend: AUG-CC-PVTZ-JKFIT

    Orbital Energies [Eh]
    ---------------------

    Doubly Occupied:

       1A    -20.518836     2A    -15.586324     3A    -11.352763
       4A    -11.243801     5A    -11.215985     6A     -1.372239
       7A     -1.207398     8A     -1.050166     9A     -0.891523
      10A     -0.781165    11A     -0.715381    12A     -0.669078
      13A     -0.636940    14A     -0.598582    15A     -0.547581
      16A     -0.525441    17A     -0.515948    18A     -0.493013
      19A     -0.423763    20A     -0.413088

  @DF-RHF Final Energy:  -247.10871920145343

   => Energetics <=

    Nuclear Repulsion Energy =            178.4709793861689491
    One-Electron Energy =                -689.6413669384626246
    Two-Electron Energy =                 264.0616683508402502
    Total Energy =                       -247.1087192014534253
  Basis Set: (AUG-CC-PVTZ AUX)
    Blend: AUG-CC-PVTZ-RI
    Molecular point group: c1

    Geometry (in Angstrom), charge = 0, multiplicity = 1:

       Center              X                  Y                   Z               Mass
    ------------   -----------------  -----------------  -----------------  -----------------
         O           -0.442091838710     1.313974781630     0.006657254066    15.994914619570
         N           -1.700502838710    -0.580602218370    -0.005557745934    14.003074004430
         C            0.722708161290    -0.812965218370     0.013514254066    12.000000000000
         C            2.016422161290    -0.011880218370    -0.007340745934    12.000000000000
         C           -0.505700838710     0.085449781630     0.004043254066    12.000000000000
         H            0.676425161290    -1.453034218370     0.903622254066     1.007825032230
         H            0.668364161290    -1.486965218370    -0.850612745934     1.007825032230
         H            2.880915161290    -0.681087218370     0.002771254066     1.007825032230
         H            2.067049161290     0.613120781630    -0.900483745934     1.007825032230
         H            2.072902161290     0.648301781630     0.859596254066     1.007825032230
         H           -1.764037838710    -1.586943218370    -0.007326745934     1.007825032230
         H           -2.550979838710    -0.036178018370    -0.157649945934     1.007825032230

  Basis Set: AUG-CC-PVTZ
    Blend: AUG-CC-PVTZ
  Basis Set: (AUG-CC-PVTZ AUX)
    Blend: AUG-CC-PVTZ-JKFIT
	 Reference Energy          =    -247.1087192014534253 [Eh]
	 Singles Energy            =      -0.0000000000000000 [Eh]
	 Same-Spin Energy          =      -0.2473327190703641 [Eh]
	 Opposite-Spin Energy      =      -0.8108925786332071 [Eh]
	 Correlation Energy        =      -1.0582252977035713 [Eh]
	 Total Energy              =    -248.1669444991569833 [Eh]

	 ================> DF-SCS-MP2 Energies <==================
	-----------------------------------------------------------
	 SCS Same-Spin Scale       =       0.3333333333333333 [-]
	 SCS Opposite-Spin Scale   =       1.2000000000000000 [-]
	 SCS Same-Spin Energy      =      -0.0824442396901214 [Eh]
	 SCS Opposite-Spin Energy  =      -0.9730710943598484 [Eh]
	 SCS Correlation Energy    =      -1.0555153340499697 [Eh]
	 SCS Total Energy          =    -248.1642345355033967 [Eh]
	-----------------------------------------------------------

  Dipole Moment: [D]
     X:    -0.8453      Y:    -3.5650      Z:    -0.2198     Total:     3.6704

*** Psi4 exiting successfully. Buy a developer a beer!
