                               Psi4 1.3.2 release

  ==> Input File <==

--------------------------------------------------------------------------
#psi4
#
memory 32 gb

molecule  {
0 1
  O       -0.4923450     1.3632740     0.0047680
  N       -1.7507560    -0.5313030    -0.0074470
  C        0.6700609    -0.7640100     0.3116153
  C        1.9661690     0.0374190    -0.0092300
  C       -0.5559540     0.1347490     0.0021540
  H        0.6261720    -1.4037350     0.9017330
  H        0.6181110    -1.4376660    -0.8525020
  H        2.8306620    -0.6317880     0.0008820
  H        2.0167960     0.6624200    -0.9023730
  H        2.0226490     0.6976010     0.8577070
  H       -1.8142910    -1.5376440    -0.0092160
  H       -2.6020670     0.0127290    -0.0095420
units angstrom
no_reorient  #important for SAPT in psi4, default
symmetry c1  #important for SAPT in psi4, default
}

set PROPERTIES_ORIGIN ["COM"]
properties('MP2/aug-cc-pvtz', properties = ['dipole'])
--------------------------------------------------------------------------

    Molecular point group: c1
  Charge       = 0
  Multiplicity = 1
  Basis Set: AUG-CC-PVTZ
    Blend: AUG-CC-PVTZ
  Basis Set: (AUG-CC-PVTZ AUX)
    Blend: AUG-CC-PVTZ-JKFIT

    Orbital Energies [Eh]
    ---------------------

    Doubly Occupied:

       1A    -20.521236     2A    -15.585644     3A    -11.360320
       4A    -11.253992     5A    -11.223606     6A     -1.374159
       7A     -1.208744     8A     -1.051515     9A     -0.897626
      10A     -0.799982    11A     -0.731807    12A     -0.682347
      13A     -0.617286    14A     -0.600257    15A     -0.562284
      16A     -0.548144    17A     -0.513140    18A     -0.443256
      19A     -0.418584    20A     -0.411066

  @DF-RHF Final Energy:  -247.01091186340881

   => Energetics <=

    Nuclear Repulsion Energy =            178.0136386263790769
    One-Electron Energy =                -688.4391151379221583
    Two-Electron Energy =                 263.4145646481342737
    Total Energy =                       -247.0109118634088077
  Basis Set: (AUG-CC-PVTZ AUX)
    Blend: AUG-CC-PVTZ-RI
    Molecular point group: c1

    Geometry (in Angstrom), charge = 0, multiplicity = 1:

       Center              X                  Y                   Z               Mass
    ------------   -----------------  -----------------  -----------------  -----------------
         O           -0.441687066536     1.314036699465    -0.044689941239    15.994914619570
         N           -1.700098066536    -0.580540300535    -0.056904941239    14.003074004430
         C            0.720718833464    -0.813247300535     0.262157358761    12.000000000000
         C            2.016826933464    -0.011818300535    -0.058687941239    12.000000000000
         C           -0.505296066536     0.085511699465    -0.047303941239    12.000000000000
         H            0.676829933464    -1.452972300535     0.852275058761     1.007825032230
         H            0.668768933464    -1.486903300535    -0.901959941239     1.007825032230
         H            2.881319933464    -0.681025300535    -0.048575941239     1.007825032230
         H            2.067453933464     0.613182699465    -0.951830941239     1.007825032230
         H            2.073306933464     0.648363699465     0.808249058761     1.007825032230
         H           -1.763633066536    -1.586881300535    -0.058673941239     1.007825032230
         H           -2.551409066536    -0.036508300535    -0.058999941239     1.007825032230

  Basis Set: AUG-CC-PVTZ
    Blend: AUG-CC-PVTZ
  Basis Set: (AUG-CC-PVTZ AUX)
    Blend: AUG-CC-PVTZ-JKFIT
	 Reference Energy          =    -247.0109118634088077 [Eh]
	 Singles Energy            =      -0.0000000000000000 [Eh]
	 Same-Spin Energy          =      -0.2484297641244399 [Eh]
	 Opposite-Spin Energy      =      -0.8153219984006933 [Eh]
	 Correlation Energy        =      -1.0637517625251331 [Eh]
	 Total Energy              =    -248.0746636259339368 [Eh]

	 ================> DF-SCS-MP2 Energies <==================
	-----------------------------------------------------------
	 SCS Same-Spin Scale       =       0.3333333333333333 [-]
	 SCS Opposite-Spin Scale   =       1.2000000000000000 [-]
	 SCS Same-Spin Energy      =      -0.0828099213748133 [Eh]
	 SCS Opposite-Spin Energy  =      -0.9783863980808319 [Eh]
	 SCS Correlation Energy    =      -1.0611963194556453 [Eh]
	 SCS Total Energy          =    -248.0721081828644401 [Eh]
	-----------------------------------------------------------

  Dipole Moment: [D]
     X:    -0.8427      Y:    -3.4096      Z:     0.1832     Total:     3.5170

*** Psi4 exiting successfully. Buy a developer a beer!
