                               Psi4 1.3.2 release

  ==> Input File <==

--------------------------------------------------------------------------
#psi4
#
memory 32 gb

molecule  {
0 1
  O       -0.4923450     1.3632740     0.0047680
  N       -1.7507560    -0.5313030    -0.0074470
  C        0.6716570    -0.7637807     0.1116218
  C        1.9661690     0.0374190    -0.0092300
  C       -0.5559540     0.1347490     0.0021540
  H        0.6261720    -1.4037350     0.9017330
  H        0.6181110    -1.4376660    -0.8525020
  H        2.8306620    -0.6317880     0.0008820
  H        2.0167960     0.6624200    -0.9023730
  H        2.0226490     0.6976010     0.8577070
  H       -1.8142910    -1.5376440    -0.0092160
  H       -2.6020670     0.0127290    -0.0095420
units angstrom
no_reorient  #important for SAPT in psi4, default
symmetry c1  #important for SAPT in psi4, default
}

set PROPERTIES_ORIGIN ["COM"]
properties('MP2/aug-cc-pvtz', properties = ['dipole'])
--------------------------------------------------------------------------

    Molecular point group: c1
  Charge       = 0
  Multiplicity = 1
  Basis Set: AUG-CC-PVTZ
    Blend: AUG-CC-PVTZ
  Basis Set: (AUG-CC-PVTZ AUX)
    Blend: AUG-CC-PVTZ-JKFIT

    Orbital Energies [Eh]
    ---------------------

    Doubly Occupied:

       1A    -20.518898     2A    -15.585606     3A    -11.353610
       4A    -11.244823     5A    -11.216898     6A     -1.372438
       7A     -1.208519     8A     -1.050176     9A     -0.892517
      10A     -0.783678    11A     -0.720030    12A     -0.672794
      13A     -0.633218    14A     -0.598786    15A     -0.549270
      16A     -0.528464    17A     -0.521700    18A     -0.480565
      19A     -0.423053    20A     -0.413205

  @DF-RHF Final Energy:  -247.09892912418997

   => Energetics <=

    Nuclear Repulsion Energy =            178.4525546482124412
    One-Electron Energy =                -689.5664710760277103
    Two-Electron Energy =                 264.0149873036253325
    Total Energy =                       -247.0989291241899650
  Basis Set: (AUG-CC-PVTZ AUX)
    Blend: AUG-CC-PVTZ-RI
    Molecular point group: c1

    Geometry (in Angstrom), charge = 0, multiplicity = 1:

       Center              X                  Y                   Z               Mass
    ------------   -----------------  -----------------  -----------------  -----------------
         O           -0.441949249634     1.313999033539    -0.011838042508    15.994914619570
         N           -1.700360249634    -0.580577966461    -0.024053042508    14.003074004430
         C            0.722052750366    -0.813055666461     0.095015757492    12.000000000000
         C            2.016564750366    -0.011855966461    -0.025836042508    12.000000000000
         C           -0.505558249634     0.085474033539    -0.014452042508    12.000000000000
         H            0.676567750366    -1.453009966461     0.885126957492     1.007825032230
         H            0.668506750366    -1.486940966461    -0.869108042508     1.007825032230
         H            2.881057750366    -0.681062966461    -0.015724042508     1.007825032230
         H            2.067191750366     0.613145033539    -0.918979042508     1.007825032230
         H            2.073044750366     0.648326033539     0.841100957492     1.007825032230
         H           -1.763895249634    -1.586918966461    -0.025822042508     1.007825032230
         H           -2.551671249634    -0.036545966461    -0.026148042508     1.007825032230

  Basis Set: AUG-CC-PVTZ
    Blend: AUG-CC-PVTZ
  Basis Set: (AUG-CC-PVTZ AUX)
    Blend: AUG-CC-PVTZ-JKFIT
	 Reference Energy          =    -247.0989291241899650 [Eh]
	 Singles Energy            =      -0.0000000000000000 [Eh]
	 Same-Spin Energy          =      -0.2473820182842601 [Eh]
	 Opposite-Spin Energy      =      -0.8112002940208787 [Eh]
	 Correlation Energy        =      -1.0585823123051388 [Eh]
	 Total Energy              =    -248.1575114364950991 [Eh]

	 ================> DF-SCS-MP2 Energies <==================
	-----------------------------------------------------------
	 SCS Same-Spin Scale       =       0.3333333333333333 [-]
	 SCS Opposite-Spin Scale   =       1.2000000000000000 [-]
	 SCS Same-Spin Energy      =      -0.0824606727614200 [Eh]
	 SCS Opposite-Spin Energy  =      -0.9734403528250544 [Eh]
	 SCS Correlation Energy    =      -1.0559010255864745 [Eh]
	 SCS Total Energy          =    -248.1548301497764442 [Eh]
	-----------------------------------------------------------

  Dipole Moment: [D]
     X:    -0.8595      Y:    -3.5473      Z:     0.0644     Total:     3.6505

*** Psi4 exiting successfully. Buy a developer a beer!
