                               Psi4 1.3.2 release

  ==> Input File <==

--------------------------------------------------------------------------
#psi4
#
memory 32 gb

molecule  {
0 1
  O       -0.4923450     1.3632740     0.0047680
  N       -1.7507560    -0.5313030    -0.0074470
  C        0.6724550    -0.7636660     0.0116250
  C        1.9661690     0.0374190    -0.0092300
  C       -0.5559540     0.1347490     0.0021540
  H        0.6261720    -1.4037350     0.9017330
  H        0.6181110    -1.4376660    -0.8525020
  H        2.8306620    -0.6317880     0.0008820
  H        2.0167960     0.6624200    -0.9023730
  H        2.0226490     0.6976010     0.8577070
  H       -1.8142910    -1.5376440    -0.0092160
  H       -2.6009550     0.0132520    -0.2095382
units angstrom
no_reorient  #important for SAPT in psi4, default
symmetry c1  #important for SAPT in psi4, default
}

set PROPERTIES_ORIGIN ["COM"]
properties('MP2/aug-cc-pvtz', properties = ['dipole'])
--------------------------------------------------------------------------

    Molecular point group: c1
  Charge       = 0
  Multiplicity = 1
  Basis Set: AUG-CC-PVTZ
    Blend: AUG-CC-PVTZ
  Basis Set: (AUG-CC-PVTZ AUX)
    Blend: AUG-CC-PVTZ-JKFIT

    Orbital Energies [Eh]
    ---------------------

    Doubly Occupied:

       1A    -20.519041     2A    -15.586893     3A    -11.352772
       4A    -11.243825     5A    -11.216003     6A     -1.372271
       7A     -1.206581     8A     -1.050068     9A     -0.891111
      10A     -0.780855    11A     -0.713607    12A     -0.668486
      13A     -0.636909    14A     -0.598568    15A     -0.547579
      16A     -0.525144    17A     -0.515983    18A     -0.492996
      19A     -0.424005    20A     -0.413025

  @DF-RHF Final Energy:  -247.10798045478924

   => Energetics <=

    Nuclear Repulsion Energy =            178.4334902029620480
    One-Electron Energy =                -689.5714951767058665
    Two-Electron Energy =                 264.0300245189545763
    Total Energy =                       -247.1079804547892422
  Basis Set: (AUG-CC-PVTZ AUX)
    Blend: AUG-CC-PVTZ-RI
    Molecular point group: c1

    Geometry (in Angstrom), charge = 0, multiplicity = 1:

       Center              X                  Y                   Z               Mass
    ------------   -----------------  -----------------  -----------------  -----------------
         O           -0.442095673957     1.313972977133     0.007347032811    15.994914619570
         N           -1.700506673957    -0.580604022867    -0.004867967189    14.003074004430
         C            0.722704326043    -0.812967022867     0.014204032811    12.000000000000
         C            2.016418326043    -0.011882022867    -0.006650967189    12.000000000000
         C           -0.505704673957     0.085447977133     0.004733032811    12.000000000000
         H            0.676421326043    -1.453036022867     0.904312032811     1.007825032230
         H            0.668360326043    -1.486967022867    -0.849922967189     1.007825032230
         H            2.880911326043    -0.681089022867     0.003461032811     1.007825032230
         H            2.067045326043     0.613118977133    -0.899793967189     1.007825032230
         H            2.072898326043     0.648299977133     0.860286032811     1.007825032230
         H           -1.764041673957    -1.586945022867    -0.006636967189     1.007825032230
         H           -2.550705673957    -0.036049022867    -0.206959167189     1.007825032230

  Basis Set: AUG-CC-PVTZ
    Blend: AUG-CC-PVTZ
  Basis Set: (AUG-CC-PVTZ AUX)
    Blend: AUG-CC-PVTZ-JKFIT
	 Reference Energy          =    -247.1079804547892422 [Eh]
	 Singles Energy            =      -0.0000000000000000 [Eh]
	 Same-Spin Energy          =      -0.2473840924864131 [Eh]
	 Opposite-Spin Energy      =      -0.8110421823601033 [Eh]
	 Correlation Energy        =      -1.0584262748465163 [Eh]
	 Total Energy              =    -248.1664067296357530 [Eh]

	 ================> DF-SCS-MP2 Energies <==================
	-----------------------------------------------------------
	 SCS Same-Spin Scale       =       0.3333333333333333 [-]
	 SCS Opposite-Spin Scale   =       1.2000000000000000 [-]
	 SCS Same-Spin Energy      =      -0.0824613641621377 [Eh]
	 SCS Opposite-Spin Energy  =      -0.9732506188321239 [Eh]
	 SCS Correlation Energy    =      -1.0557119829942616 [Eh]
	 SCS Total Energy          =    -248.1636924377835101 [Eh]
	-----------------------------------------------------------

  Dipole Moment: [D]
     X:    -0.8344      Y:    -3.5625      Z:    -0.2904     Total:     3.6705

*** Psi4 exiting successfully. Buy a developer a beer!
