                               Psi4 1.3.2 release

  ==> Input File <==

--------------------------------------------------------------------------
#psi4
#
memory 32 gb

molecule  {
0 1
  O       -0.4923450     1.3632740     0.0047680
  N       -1.7507560    -0.5313030    -0.0074470
  C        0.6708590    -0.7638953     0.2116185
  C        1.9661690     0.0374190    -0.0092300
  C       -0.5559540     0.1347490     0.0021540
  H        0.6261720    -1.4037350     0.9017330
  H        0.6181110    -1.4376660    -0.8525020
  H        2.8306620    -0.6317880     0.0008820
  H        2.0167960     0.6624200    -0.9023730
  H        2.0226490     0.6976010     0.8577070
  H       -1.8142910    -1.5376440    -0.0092160
  H       -2.6020670     0.0127290    -0.0095420
units angstrom
no_reorient  #important for SAPT in psi4, default
symmetry c1  #important for SAPT in psi4, default
}

set PROPERTIES_ORIGIN ["COM"]
properties('MP2/aug-cc-pvtz', properties = ['dipole'])
--------------------------------------------------------------------------

    Molecular point group: c1
  Charge       = 0
  Multiplicity = 1
  Basis Set: AUG-CC-PVTZ
    Blend: AUG-CC-PVTZ
  Basis Set: (AUG-CC-PVTZ AUX)
    Blend: AUG-CC-PVTZ-JKFIT

    Orbital Energies [Eh]
    ---------------------

    Doubly Occupied:

       1A    -20.519799     2A    -15.585622     3A    -11.356174
       4A    -11.248243     5A    -11.219510     6A     -1.373104
       7A     -1.208605     8A     -1.050515     9A     -0.894151
      10A     -0.789926    11A     -0.725639    12A     -0.678285
      13A     -0.625232    14A     -0.599470    15A     -0.553839
      16A     -0.540928    17A     -0.518454    18A     -0.460686
      19A     -0.421569    20A     -0.413040

  @DF-RHF Final Energy:  -247.06648549015443

   => Energetics <=

    Nuclear Repulsion Energy =            178.2822858843057645
    One-Electron Energy =                -689.1319594676833731
    Two-Electron Energy =                 263.7831880932231456
    Total Energy =                       -247.0664854901544345
  Basis Set: (AUG-CC-PVTZ AUX)
    Blend: AUG-CC-PVTZ-RI
    Molecular point group: c1

    Geometry (in Angstrom), charge = 0, multiplicity = 1:

       Center              X                  Y                   Z               Mass
    ------------   -----------------  -----------------  -----------------  -----------------
         O           -0.441818166298     1.314017858289    -0.028263983660    15.994914619570
         N           -1.700229166298    -0.580559141711    -0.040478983660    14.003074004430
         C            0.721385833702    -0.813151441711     0.178586516340    12.000000000000
         C            2.016695833702    -0.011837141711    -0.042261983660    12.000000000000
         C           -0.505427166298     0.085492858289    -0.030877983660    12.000000000000
         H            0.676698833702    -1.452991141711     0.868701016340     1.007825032230
         H            0.668637833702    -1.486922141711    -0.885533983660     1.007825032230
         H            2.881188833702    -0.681044141711    -0.032149983660     1.007825032230
         H            2.067322833702     0.613163858289    -0.935404983660     1.007825032230
         H            2.073175833702     0.648344858289     0.824675016340     1.007825032230
         H           -1.763764166298    -1.586900141711    -0.042247983660     1.007825032230
         H           -2.551540166298    -0.036527141711    -0.042573983660     1.007825032230

  Basis Set: AUG-CC-PVTZ
    Blend: AUG-CC-PVTZ
  Basis Set: (AUG-CC-PVTZ AUX)
    Blend: AUG-CC-PVTZ-JKFIT
	 Reference Energy          =    -247.0664854901544345 [Eh]
	 Singles Energy            =      -0.0000000000000000 [Eh]
	 Same-Spin Energy          =      -0.2477632024809956 [Eh]
	 Opposite-Spin Energy      =      -0.8127236822349948 [Eh]
	 Correlation Energy        =      -1.0604868847159905 [Eh]
	 Total Energy              =    -248.1269723748704337 [Eh]

	 ================> DF-SCS-MP2 Energies <==================
	-----------------------------------------------------------
	 SCS Same-Spin Scale       =       0.3333333333333333 [-]
	 SCS Opposite-Spin Scale   =       1.2000000000000000 [-]
	 SCS Same-Spin Energy      =      -0.0825877341603319 [Eh]
	 SCS Opposite-Spin Energy  =      -0.9752684186819938 [Eh]
	 SCS Correlation Energy    =      -1.0578561528423256 [Eh]
	 SCS Total Energy          =    -248.1243416429967681 [Eh]
	-----------------------------------------------------------

  Dipole Moment: [D]
     X:    -0.8529      Y:    -3.4913      Z:     0.1288     Total:     3.5963

*** Psi4 exiting successfully. Buy a developer a beer!
