                               Psi4 1.3.2 release

  ==> Input File <==

--------------------------------------------------------------------------
#psi4
#
memory 32 gb

molecule  {
0 1
  O       -0.4923450     1.3632740     0.0047680
  N       -1.7507560    -0.5313030    -0.0074470
  C        0.6724550    -0.7636660     0.0116250
  C        1.9661690     0.0374190    -0.0092300
  C       -0.5559540     0.1347490     0.0021540
  H        0.6261720    -1.4037350     0.9017330
  H        0.6181110    -1.4376660    -0.8525020
  H        2.8306620    -0.6317880     0.0008820
  H        2.0167960     0.6624200    -0.9023730
  H        2.0226490     0.6976010     0.8577070
  H       -1.8142910    -1.5376440    -0.0092160
  H       -2.6017890     0.0128597    -0.0595411
units angstrom
no_reorient  #important for SAPT in psi4, default
symmetry c1  #important for SAPT in psi4, default
}

set PROPERTIES_ORIGIN ["COM"]
properties('MP2/aug-cc-pvtz', properties = ['dipole'])
--------------------------------------------------------------------------

    Molecular point group: c1
  Charge       = 0
  Multiplicity = 1
  Basis Set: AUG-CC-PVTZ
    Blend: AUG-CC-PVTZ
  Basis Set: (AUG-CC-PVTZ AUX)
    Blend: AUG-CC-PVTZ-JKFIT

    Orbital Energies [Eh]
    ---------------------

    Doubly Occupied:

       1A    -20.518597     2A    -15.585667     3A    -11.352753
       4A    -11.243778     5A    -11.215961     6A     -1.372203
       7A     -1.208366     8A     -1.050282     9A     -0.892016
      10A     -0.781545    11A     -0.717487    12A     -0.669709
      13A     -0.636953    14A     -0.598585    15A     -0.547632
      16A     -0.525734    17A     -0.515909    18A     -0.493036
      19A     -0.423474    20A     -0.413177

  @DF-RHF Final Energy:  -247.10943673403071

   => Energetics <=

    Nuclear Repulsion Energy =            178.5145790717797638
    One-Electron Energy =                -689.7223099098406465
    Two-Electron Energy =                 264.0982941040301739
    Total Energy =                       -247.1094367340307372
  Basis Set: (AUG-CC-PVTZ AUX)
    Blend: AUG-CC-PVTZ-RI
    Molecular point group: c1

    Geometry (in Angstrom), charge = 0, multiplicity = 1:

       Center              X                  Y                   Z               Mass
    ------------   -----------------  -----------------  -----------------  -----------------
         O           -0.442084168217     1.313978389245     0.005277695196    15.994914619570
         N           -1.700495168217    -0.580598610755    -0.006937304804    14.003074004430
         C            0.722715831783    -0.812961610755     0.012134695196    12.000000000000
         C            2.016429831783    -0.011876610755    -0.008720304804    12.000000000000
         C           -0.505693168217     0.085453389245     0.002663695196    12.000000000000
         H            0.676432831783    -1.453030610755     0.902242695196     1.007825032230
         H            0.668371831783    -1.486961610755    -0.851992304804     1.007825032230
         H            2.880922831783    -0.681083610755     0.001391695196     1.007825032230
         H            2.067056831783     0.613124389245    -0.901863304804     1.007825032230
         H            2.072909831783     0.648305389245     0.858216695196     1.007825032230
         H           -1.764030168217    -1.586939610755    -0.008706304804     1.007825032230
         H           -2.551528168217    -0.036435910755    -0.059031404804     1.007825032230

  Basis Set: AUG-CC-PVTZ
    Blend: AUG-CC-PVTZ
  Basis Set: (AUG-CC-PVTZ AUX)
    Blend: AUG-CC-PVTZ-JKFIT
	 Reference Energy          =    -247.1094367340307087 [Eh]
	 Singles Energy            =      -0.0000000000000000 [Eh]
	 Same-Spin Energy          =      -0.2472740455964889 [Eh]
	 Opposite-Spin Energy      =      -0.8107238445084557 [Eh]
	 Correlation Energy        =      -1.0579978901049445 [Eh]
	 Total Energy              =    -248.1674346241356659 [Eh]

	 ================> DF-SCS-MP2 Energies <==================
	-----------------------------------------------------------
	 SCS Same-Spin Scale       =       0.3333333333333333 [-]
	 SCS Opposite-Spin Scale   =       1.2000000000000000 [-]
	 SCS Same-Spin Energy      =      -0.0824246818654963 [Eh]
	 SCS Opposite-Spin Energy  =      -0.9728686134101467 [Eh]
	 SCS Correlation Energy    =      -1.0552932952756431 [Eh]
	 SCS Total Energy          =    -248.1647300293063552 [Eh]
	-----------------------------------------------------------

  Dipole Moment: [D]
     X:    -0.8583      Y:    -3.5680      Z:    -0.0764     Total:     3.6705

*** Psi4 exiting successfully. Buy a developer a beer!
