                               Psi4 1.3.2 release

  ==> Input File <==

--------------------------------------------------------------------------
#psi4
#
memory 32 gb

molecule  {
0 1
  O       -0.4923450     1.3632740     0.0047680
  N       -1.7507560    -0.5313030    -0.0074470
  C        0.6724550    -0.7636660     0.0116250
  C        1.9661690     0.0374190    -0.0092300
  C       -0.5559540     0.1347490     0.0021540
  H        0.6261720    -1.4037350     0.9017330
  H        0.6181110    -1.4376660    -0.8525020
  H        2.8306620    -0.6317880     0.0008820
  H        2.0167960     0.6624200    -0.9023730
  H        2.0226490     0.6976010     0.8577070
  H       -1.8142910    -1.5376440    -0.0092160
  H       -2.6003990     0.0135135    -0.3095363
units angstrom
no_reorient  #important for SAPT in psi4, default
symmetry c1  #important for SAPT in psi4, default
}

set PROPERTIES_ORIGIN ["COM"]
properties('MP2/aug-cc-pvtz', properties = ['dipole'])
--------------------------------------------------------------------------

    Molecular point group: c1
  Charge       = 0
  Multiplicity = 1
  Basis Set: AUG-CC-PVTZ
    Blend: AUG-CC-PVTZ
  Basis Set: (AUG-CC-PVTZ AUX)
    Blend: AUG-CC-PVTZ-JKFIT

    Orbital Energies [Eh]
    ---------------------

    Doubly Occupied:

       1A    -20.519594     2A    -15.588471     3A    -11.352802
       4A    -11.243897     5A    -11.216052     6A     -1.372361
       7A     -1.204393     8A     -1.049808     9A     -0.890039
      10A     -0.780067    11A     -0.708950    12A     -0.666566
      13A     -0.636789    14A     -0.598464    15A     -0.547621
      16A     -0.524252    17A     -0.516080    18A     -0.492949
      19A     -0.424636    20A     -0.412880

  @DF-RHF Final Energy:  -247.10537593372652

   => Energetics <=

    Nuclear Repulsion Energy =            178.3302910120350475
    One-Electron Energy =                -689.3779942530156859
    Two-Electron Energy =                 263.9423273072541178
    Total Energy =                       -247.1053759337265205
  Basis Set: (AUG-CC-PVTZ AUX)
    Blend: AUG-CC-PVTZ-RI
    Molecular point group: c1

    Geometry (in Angstrom), charge = 0, multiplicity = 1:

       Center              X                  Y                   Z               Mass
    ------------   -----------------  -----------------  -----------------  -----------------
         O           -0.442103344450     1.313969369518     0.008726591681    15.994914619570
         N           -1.700514344450    -0.580607630482    -0.003488408319    14.003074004430
         C            0.722696655550    -0.812970630482     0.015583591681    12.000000000000
         C            2.016410655550    -0.011885630482    -0.005271408319    12.000000000000
         C           -0.505712344450     0.085444369518     0.006112591681    12.000000000000
         H            0.676413655550    -1.453039630482     0.905691591681     1.007825032230
         H            0.668352655550    -1.486970630482    -0.848543408319     1.007825032230
         H            2.880903655550    -0.681092630482     0.004840591681     1.007825032230
         H            2.067037655550     0.613115369518    -0.898414408319     1.007825032230
         H            2.072890655550     0.648296369518     0.861665591681     1.007825032230
         H           -1.764049344450    -1.586948630482    -0.005257408319     1.007825032230
         H           -2.550157344450    -0.035791130482    -0.305577708319     1.007825032230

  Basis Set: AUG-CC-PVTZ
    Blend: AUG-CC-PVTZ
  Basis Set: (AUG-CC-PVTZ AUX)
    Blend: AUG-CC-PVTZ-JKFIT
	 Reference Energy          =    -247.1053759337265205 [Eh]
	 Singles Energy            =      -0.0000000000000000 [Eh]
	 Same-Spin Energy          =      -0.2475295406548734 [Eh]
	 Opposite-Spin Energy      =      -0.8114753527585667 [Eh]
	 Correlation Energy        =      -1.0590048934134402 [Eh]
	 Total Energy              =    -248.1643808271399507 [Eh]

	 ================> DF-SCS-MP2 Energies <==================
	-----------------------------------------------------------
	 SCS Same-Spin Scale       =       0.3333333333333333 [-]
	 SCS Opposite-Spin Scale   =       1.2000000000000000 [-]
	 SCS Same-Spin Energy      =      -0.0825098468849578 [Eh]
	 SCS Opposite-Spin Energy  =      -0.9737704233102801 [Eh]
	 SCS Correlation Energy    =      -1.0562802701952378 [Eh]
	 SCS Total Energy          =    -248.1616562039217513 [Eh]
	-----------------------------------------------------------

  Dipole Moment: [D]
     X:    -0.8047      Y:    -3.5561      Z:    -0.4284     Total:     3.6711

*** Psi4 exiting successfully. Buy a developer a beer!
