                               Psi4 1.3.2 release

  ==> Input File <==

--------------------------------------------------------------------------
#psi4
#
memory 32 gb

molecule  {
0 1
  O       -0.4923450     1.3632740     0.0047680
  N       -1.7507560    -0.5313030    -0.0074470
  C        0.6704599    -0.7639526     0.2616169
  C        1.9661690     0.0374190    -0.0092300
  C       -0.5559540     0.1347490     0.0021540
  H        0.6261720    -1.4037350     0.9017330
  H        0.6181110    -1.4376660    -0.8525020
  H        2.8306620    -0.6317880     0.0008820
  H        2.0167960     0.6624200    -0.9023730
  H        2.0226490     0.6976010     0.8577070
  H       -1.8142910    -1.5376440    -0.0092160
  H       -2.6020670     0.0127290    -0.0095420
units angstrom
no_reorient  #important for SAPT in psi4, default
symmetry c1  #important for SAPT in psi4, default
}

set PROPERTIES_ORIGIN ["COM"]
properties('MP2/aug-cc-pvtz', properties = ['dipole'])
--------------------------------------------------------------------------

    Molecular point group: c1
  Charge       = 0
  Multiplicity = 1
  Basis Set: AUG-CC-PVTZ
    Blend: AUG-CC-PVTZ
  Basis Set: (AUG-CC-PVTZ AUX)
    Blend: AUG-CC-PVTZ-JKFIT

    Orbital Energies [Eh]
    ---------------------

    Doubly Occupied:

       1A    -20.520454     2A    -15.585632     3A    -11.358061
       4A    -11.250833     5A    -11.221389     6A     -1.373587
       7A     -1.208668     8A     -1.050917     9A     -0.895608
      10A     -0.794588    11A     -0.728851    12A     -0.680558
      13A     -0.621092    14A     -0.599900    15A     -0.557713
      16A     -0.545247    17A     -0.515946    18A     -0.451304
      19A     -0.420216    20A     -0.412556

  @DF-RHF Final Energy:  -247.04166281745401

   => Energetics <=

    Nuclear Repulsion Energy =            178.1599634444818605
    One-Electron Energy =                -688.8170163057418449
    Two-Electron Energy =                 263.6153900438059736
    Total Energy =                       -247.0416628174540392
  Basis Set: (AUG-CC-PVTZ AUX)
    Blend: AUG-CC-PVTZ-RI
    Molecular point group: c1

    Geometry (in Angstrom), charge = 0, multiplicity = 1:

       Center              X                  Y                   Z               Mass
    ------------   -----------------  -----------------  -----------------  -----------------
         O           -0.441752608204     1.314027270664    -0.036476962449    15.994914619570
         N           -1.700163608204    -0.580549729336    -0.048691962449    14.003074004430
         C            0.721052291796    -0.813199329336     0.220371937551    12.000000000000
         C            2.016761391796    -0.011827729336    -0.050474962449    12.000000000000
         C           -0.505361608204     0.085502270664    -0.039090962449    12.000000000000
         H            0.676764391796    -1.452981729336     0.860488037551     1.007825032230
         H            0.668703391796    -1.486912729336    -0.893746962449     1.007825032230
         H            2.881254391796    -0.681034729336    -0.040362962449     1.007825032230
         H            2.067388391796     0.613173270664    -0.943617962449     1.007825032230
         H            2.073241391796     0.648354270664     0.816462037551     1.007825032230
         H           -1.763698608204    -1.586890729336    -0.050460962449     1.007825032230
         H           -2.551474608204    -0.036517729336    -0.050786962449     1.007825032230

  Basis Set: AUG-CC-PVTZ
    Blend: AUG-CC-PVTZ
  Basis Set: (AUG-CC-PVTZ AUX)
    Blend: AUG-CC-PVTZ-JKFIT
	 Reference Energy          =    -247.0416628174540108 [Eh]
	 Singles Energy            =      -0.0000000000000000 [Eh]
	 Same-Spin Energy          =      -0.2480591971984124 [Eh]
	 Opposite-Spin Energy      =      -0.8138873702675103 [Eh]
	 Correlation Energy        =      -1.0619465674659228 [Eh]
	 Total Energy              =    -248.1036093849199347 [Eh]

	 ================> DF-SCS-MP2 Energies <==================
	-----------------------------------------------------------
	 SCS Same-Spin Scale       =       0.3333333333333333 [-]
	 SCS Opposite-Spin Scale   =       1.2000000000000000 [-]
	 SCS Same-Spin Energy      =      -0.0826863990661375 [Eh]
	 SCS Opposite-Spin Energy  =      -0.9766648443210124 [Eh]
	 SCS Correlation Energy    =      -1.0593512433871499 [Eh]
	 SCS Total Energy          =    -248.1010140608411518 [Eh]
	-----------------------------------------------------------

  Dipole Moment: [D]
     X:    -0.8480      Y:    -3.4528      Z:     0.1578     Total:     3.5589

*** Psi4 exiting successfully. Buy a developer a beer!
