                               Psi4 1.3.2 release

  ==> Input File <==

--------------------------------------------------------------------------
#psi4
#
memory 32 gb

molecule  {
0 1
  O       -0.4923450     1.3632740     0.0047680
  N       -1.7507560    -0.5313030    -0.0074470
  C        0.6712580    -0.7638380     0.1616201
  C        1.9661690     0.0374190    -0.0092300
  C       -0.5559540     0.1347490     0.0021540
  H        0.6261720    -1.4037350     0.9017330
  H        0.6181110    -1.4376660    -0.8525020
  H        2.8306620    -0.6317880     0.0008820
  H        2.0167960     0.6624200    -0.9023730
  H        2.0226490     0.6976010     0.8577070
  H       -1.8142910    -1.5376440    -0.0092160
  H       -2.6020670     0.0127290    -0.0095420
units angstrom
no_reorient  #important for SAPT in psi4, default
symmetry c1  #important for SAPT in psi4, default
}

set PROPERTIES_ORIGIN ["COM"]
properties('MP2/aug-cc-pvtz', properties = ['dipole'])
--------------------------------------------------------------------------

    Molecular point group: c1
  Charge       = 0
  Multiplicity = 1
  Basis Set: AUG-CC-PVTZ
    Blend: AUG-CC-PVTZ
  Basis Set: (AUG-CC-PVTZ AUX)
    Blend: AUG-CC-PVTZ-JKFIT

    Orbital Energies [Eh]
    ---------------------

    Doubly Occupied:

       1A    -20.519278     2A    -15.585614     3A    -11.354684
       4A    -11.246238     5A    -11.218004     6A     -1.372719
       7A     -1.208555     8A     -1.050278     9A     -0.893152
      10A     -0.786262    11A     -0.722559    12A     -0.675593
      13A     -0.629411    14A     -0.599080    15A     -0.551087
      16A     -0.535005    17A     -0.520538    18A     -0.470680
      19A     -0.422486    20A     -0.413180

  @DF-RHF Final Energy:  -247.08551735227914

   => Energetics <=

    Nuclear Repulsion Energy =            178.3800199869006917
    One-Electron Energy =                -689.3822664496381094
    Two-Electron Energy =                 263.9167291104582205
    Total Energy =                       -247.0855173522791688
  Basis Set: (AUG-CC-PVTZ AUX)
    Blend: AUG-CC-PVTZ-RI
    Molecular point group: c1

    Geometry (in Angstrom), charge = 0, multiplicity = 1:

       Center              X                  Y                   Z               Mass
    ------------   -----------------  -----------------  -----------------  -----------------
         O           -0.441883707966     1.314008445914    -0.020051004871    15.994914619570
         N           -1.700294707966    -0.580568554086    -0.032266004871    14.003074004430
         C            0.721719292034    -0.813103554086     0.136801095129    12.000000000000
         C            2.016630292034    -0.011846554086    -0.034049004871    12.000000000000
         C           -0.505492707966     0.085483445914    -0.022665004871    12.000000000000
         H            0.676633292034    -1.453000554086     0.876913995129     1.007825032230
         H            0.668572292034    -1.486931554086    -0.877321004871     1.007825032230
         H            2.881123292034    -0.681053554086    -0.023937004871     1.007825032230
         H            2.067257292034     0.613154445914    -0.927192004871     1.007825032230
         H            2.073110292034     0.648335445914     0.832887995129     1.007825032230
         H           -1.763829707966    -1.586909554086    -0.034035004871     1.007825032230
         H           -2.551605707966    -0.036536554086    -0.034361004871     1.007825032230

  Basis Set: AUG-CC-PVTZ
    Blend: AUG-CC-PVTZ
  Basis Set: (AUG-CC-PVTZ AUX)
    Blend: AUG-CC-PVTZ-JKFIT
	 Reference Energy          =    -247.0855173522791404 [Eh]
	 Singles Energy            =      -0.0000000000000000 [Eh]
	 Same-Spin Energy          =      -0.2475383578726292 [Eh]
	 Opposite-Spin Energy      =      -0.8118298437839481 [Eh]
	 Correlation Energy        =      -1.0593682016565773 [Eh]
	 Total Energy              =    -248.1448855539357226 [Eh]

	 ================> DF-SCS-MP2 Energies <==================
	-----------------------------------------------------------
	 SCS Same-Spin Scale       =       0.3333333333333333 [-]
	 SCS Opposite-Spin Scale   =       1.2000000000000000 [-]
	 SCS Same-Spin Energy      =      -0.0825127859575431 [Eh]
	 SCS Opposite-Spin Energy  =      -0.9741958125407376 [Eh]
	 SCS Correlation Energy    =      -1.0567085984982807 [Eh]
	 SCS Total Energy          =    -248.1422259507774299 [Eh]
	-----------------------------------------------------------

  Dipole Moment: [D]
     X:    -0.8568      Y:    -3.5233      Z:     0.0974     Total:     3.6272

*** Psi4 exiting successfully. Buy a developer a beer!
