                               Psi4 1.3.2 release

  ==> Input File <==

--------------------------------------------------------------------------
#psi4
#
memory 32 gb

molecule  {
0 1
  O        1.8881650     1.4432750    -0.0000100
  O       -3.1767040     0.9881070     0.0000170
  C       -0.5155700     0.0356770    -0.0000120
  C        0.8140500    -0.7053830     0.0000180
  C       -1.6970590    -0.9239890    -0.0000140
  C        2.0167370     0.2220750     0.0000010
  C        3.3799790    -0.4356510     0.0000020
  C       -3.0337740    -0.2274000    -0.0000030
  H       -0.5729570     0.6949060     0.8703990
  H       -0.5729310     0.6948780    -0.8704450
  H        0.8958950    -1.3682810    -0.8735520
  H        0.8958840    -1.3682250     0.8736320
  H       -1.6727150    -1.5924060     0.8735570
  H       -1.6727210    -1.5923950    -0.8735930
  H        3.4942430    -1.0743930    -0.8818600
  H        3.4942540    -1.0743610     0.8818860
  H        4.1535670     0.3330070    -0.0000160
  H       -3.9203829    -0.8957527    -0.2000150
units angstrom
no_reorient  #important for SAPT in psi4, default
symmetry c1  #important for SAPT in psi4, default
}

set PROPERTIES_ORIGIN ["COM"]
properties('MP2/aug-cc-pvtz', properties = ['dipole'])
--------------------------------------------------------------------------

    Molecular point group: c1
  Charge       = 0
  Multiplicity = 1
  Basis Set: AUG-CC-PVTZ
    Blend: AUG-CC-PVTZ
  Basis Set: (AUG-CC-PVTZ AUX)
    Blend: AUG-CC-PVTZ-JKFIT

    Orbital Energies [Eh]
    ---------------------

    Doubly Occupied:

       1A    -20.561380     2A    -20.548926     3A    -11.339901
       4A    -11.337219     5A    -11.251204     6A    -11.248133
       7A    -11.240504     8A    -11.231253     9A     -1.385870
      10A     -1.379556    11A     -1.098422    12A     -1.035795
      13A     -0.983074    14A     -0.872225    15A     -0.774733
      16A     -0.741930    17A     -0.675049    18A     -0.665297
      19A     -0.657266    20A     -0.625195    21A     -0.614651
      22A     -0.611753    23A     -0.571113    24A     -0.563478
      25A     -0.519740    26A     -0.508496    27A     -0.506680
      28A     -0.488519    29A     -0.484816    30A     -0.430310
      31A     -0.412291

  @DF-RHF Final Energy:  -382.88911240765941

   => Energetics <=

    Nuclear Repulsion Energy =            353.2140053521636105
    One-Electron Energy =               -1221.4766767195801549
    Two-Electron Energy =                 485.3735589597570765
    Total Energy =                       -382.8891124076594110
  Basis Set: (AUG-CC-PVTZ AUX)
    Blend: AUG-CC-PVTZ-RI
    Molecular point group: c1

    Geometry (in Angstrom), charge = 0, multiplicity = 1:

       Center              X                  Y                   Z               Mass
    ------------   -----------------  -----------------  -----------------  -----------------
         O            1.927441485985     1.380382769859     0.001756980715    15.994914619570
         O           -3.137427514015     0.925214769859     0.001783980715    15.994914619570
         C           -0.476293514015    -0.027215230141     0.001754980715    12.000000000000
         C            0.853326485985    -0.768275230141     0.001784980715    12.000000000000
         C           -1.657782514015    -0.986881230141     0.001752980715    12.000000000000
         C            2.056013485985     0.159182769859     0.001767980715    12.000000000000
         C            3.419255485985    -0.498543230141     0.001768980715    12.000000000000
         C           -2.994497514015    -0.290292230141     0.001763980715    12.000000000000
         H           -0.533680514015     0.632013769859     0.872165980715     1.007825032230
         H           -0.533654514015     0.631985769859    -0.868678019285     1.007825032230
         H            0.935171485985    -1.431173230141    -0.871785019285     1.007825032230
         H            0.935160485985    -1.431117230141     0.875398980715     1.007825032230
         H           -1.633438514015    -1.655298230141     0.875323980715     1.007825032230
         H           -1.633444514015    -1.655287230141    -0.871826019285     1.007825032230
         H            3.533519485985    -1.137285230141    -0.880093019285     1.007825032230
         H            3.533530485985    -1.137253230141     0.883652980715     1.007825032230
         H            4.192843485985     0.270114769859     0.001750980715     1.007825032230
         H           -3.881106414015    -0.958644930141    -0.198248019285     1.007825032230

  Basis Set: AUG-CC-PVTZ
    Blend: AUG-CC-PVTZ
  Basis Set: (AUG-CC-PVTZ AUX)
    Blend: AUG-CC-PVTZ-JKFIT
	 Reference Energy          =    -382.8891124076594110 [Eh]
	 Singles Energy            =      -0.0000000000000000 [Eh]
	 Same-Spin Energy          =      -0.3796062597377470 [Eh]
	 Opposite-Spin Energy      =      -1.2550032882278741 [Eh]
	 Correlation Energy        =      -1.6346095479656211 [Eh]
	 Total Energy              =    -384.5237219556250352 [Eh]

	 ================> DF-SCS-MP2 Energies <==================
	-----------------------------------------------------------
	 SCS Same-Spin Scale       =       0.3333333333333333 [-]
	 SCS Opposite-Spin Scale   =       1.2000000000000000 [-]
	 SCS Same-Spin Energy      =      -0.1265354199125823 [Eh]
	 SCS Opposite-Spin Energy  =      -1.5060039458734489 [Eh]
	 SCS Correlation Energy    =      -1.6325393657860312 [Eh]
	 SCS Total Energy          =    -384.5216517734454555 [Eh]
	-----------------------------------------------------------

  Dipole Moment: [D]
     X:     1.1704      Y:    -5.1266      Z:    -0.0624     Total:     5.2589

*** Psi4 exiting successfully. Buy a developer a beer!
