                               Psi4 1.3.2 release

  ==> Input File <==

--------------------------------------------------------------------------
#psi4
#
memory 32 gb

molecule  {
0 1
  O        1.8881650     1.4432750    -0.0000100
  O       -3.1767040     0.9881070     0.0000170
  C       -0.5155700     0.0356770    -0.0000120
  C        0.8140500    -0.7053830     0.0000180
  C       -1.6970590    -0.9239890    -0.0000140
  C        2.0167370     0.2220750     0.0000010
  C        3.3799798    -0.4356494     0.1500020
  C       -3.0337740    -0.2274000    -0.0000030
  H       -0.5729570     0.6949060     0.8703990
  H       -0.5729310     0.6948780    -0.8704450
  H        0.8958950    -1.3682810    -0.8735520
  H        0.8958840    -1.3682250     0.8736320
  H       -1.6727150    -1.5924060     0.8735570
  H       -1.6727210    -1.5923950    -0.8735930
  H        3.4942430    -1.0743930    -0.8818600
  H        3.4942540    -1.0743610     0.8818860
  H        4.1535670     0.3330070    -0.0000160
  H       -3.9203830    -0.8957560    -0.0000150
units angstrom
no_reorient  #important for SAPT in psi4, default
symmetry c1  #important for SAPT in psi4, default
}

set PROPERTIES_ORIGIN ["COM"]
properties('MP2/aug-cc-pvtz', properties = ['dipole'])
--------------------------------------------------------------------------

    Molecular point group: c1
  Charge       = 0
  Multiplicity = 1
  Basis Set: AUG-CC-PVTZ
    Blend: AUG-CC-PVTZ
  Basis Set: (AUG-CC-PVTZ AUX)
    Blend: AUG-CC-PVTZ-JKFIT

    Orbital Energies [Eh]
    ---------------------

    Doubly Occupied:

       1A    -20.560615     2A    -20.549399     3A    -11.339099
       4A    -11.338110     5A    -11.250900     6A    -11.248273
       7A    -11.243563     8A    -11.231145     9A     -1.385399
      10A     -1.379993    11A     -1.098399    12A     -1.036260
      13A     -0.984203    14A     -0.873890    15A     -0.777381
      16A     -0.745172    17A     -0.677854    18A     -0.668566
      19A     -0.662671    20A     -0.629380    21A     -0.616391
      22A     -0.607942    23A     -0.583547    24A     -0.544977
      25A     -0.517170    26A     -0.507333    27A     -0.505026
      28A     -0.486413    29A     -0.482807    30A     -0.430926
      31A     -0.412405

  @DF-RHF Final Energy:  -382.86891421632214

   => Energetics <=

    Nuclear Repulsion Energy =            353.1982465986760644
    One-Electron Energy =               -1221.3839014526422488
    Two-Electron Energy =                 485.3167406376440454
    Total Energy =                       -382.8689142163221391
  Basis Set: (AUG-CC-PVTZ AUX)
    Blend: AUG-CC-PVTZ-RI
    Molecular point group: c1

    Geometry (in Angstrom), charge = 0, multiplicity = 1:

       Center              X                  Y                   Z               Mass
    ------------   -----------------  -----------------  -----------------  -----------------
         O            1.927441402708     1.380382630695    -0.015790128118    15.994914619570
         O           -3.137427597292     0.925214630695    -0.015763128118    15.994914619570
         C           -0.476293597292    -0.027215369305    -0.015792128118    12.000000000000
         C            0.853326402708    -0.768275369305    -0.015762128118    12.000000000000
         C           -1.657782597292    -0.986881369305    -0.015794128118    12.000000000000
         C            2.056013402708     0.159182630695    -0.015779128118    12.000000000000
         C            3.419256202708    -0.498541769305     0.134221871882    12.000000000000
         C           -2.994497597292    -0.290292369305    -0.015783128118    12.000000000000
         H           -0.533680597292     0.632013630695     0.854618871882     1.007825032230
         H           -0.533654597292     0.631985630695    -0.886225128118     1.007825032230
         H            0.935171402708    -1.431173369305    -0.889332128118     1.007825032230
         H            0.935160402708    -1.431117369305     0.857851871882     1.007825032230
         H           -1.633438597292    -1.655298369305     0.857776871882     1.007825032230
         H           -1.633444597292    -1.655287369305    -0.889373128118     1.007825032230
         H            3.533519402708    -1.137285369305    -0.897640128118     1.007825032230
         H            3.533530402708    -1.137253369305     0.866105871882     1.007825032230
         H            4.192843402708     0.270114630695    -0.015796128118     1.007825032230
         H           -3.881106597292    -0.958648369305    -0.015795128118     1.007825032230

  Basis Set: AUG-CC-PVTZ
    Blend: AUG-CC-PVTZ
  Basis Set: (AUG-CC-PVTZ AUX)
    Blend: AUG-CC-PVTZ-JKFIT
	 Reference Energy          =    -382.8689142163221391 [Eh]
	 Singles Energy            =      -0.0000000000000000 [Eh]
	 Same-Spin Energy          =      -0.3797512321246522 [Eh]
	 Opposite-Spin Energy      =      -1.2556744670496913 [Eh]
	 Correlation Energy        =      -1.6354256991743434 [Eh]
	 Total Energy              =    -384.5043399154964732 [Eh]

	 ================> DF-SCS-MP2 Energies <==================
	-----------------------------------------------------------
	 SCS Same-Spin Scale       =       0.3333333333333333 [-]
	 SCS Opposite-Spin Scale   =       1.2000000000000000 [-]
	 SCS Same-Spin Energy      =      -0.1265837440415507 [Eh]
	 SCS Opposite-Spin Energy  =      -1.5068093604596295 [Eh]
	 SCS Correlation Energy    =      -1.6333931045011802 [Eh]
	 SCS Total Energy          =    -384.5023073208233200 [Eh]
	-----------------------------------------------------------

  Dipole Moment: [D]
     X:     1.1205      Y:    -5.1329      Z:     0.0445     Total:     5.2539

*** Psi4 exiting successfully. Buy a developer a beer!
