                               Psi4 1.3.2 release

  ==> Input File <==

--------------------------------------------------------------------------
#psi4
#
memory 32 gb

molecule  {
0 1
  O        1.8881650     1.4432750    -0.0000100
  O       -3.1767040     0.9881070     0.0000170
  C       -0.5155700     0.0356770    -0.0000120
  C        0.8140500    -0.7053830     0.0000180
  C       -1.6970590    -0.9239890    -0.0000140
  C        2.0167370     0.2220750     0.0000010
  C        3.3799790    -0.4356510     0.0000020
  C       -3.0337740    -0.2274000    -0.0000030
  H       -0.5729570     0.6949060     0.8703990
  H       -0.5729310     0.6948780    -0.8704450
  H        0.8958950    -1.3682810    -0.8735520
  H        0.8958840    -1.3682250     0.8736320
  H       -1.6727150    -1.5924060     0.8735570
  H       -1.6727210    -1.5923950    -0.8735930
  H        3.4942430    -1.0743930    -0.8818600
  H        3.4942540    -1.0743610     0.8818860
  H        4.1535670     0.3330070    -0.0000160
  H       -3.9203830    -0.8957552    -0.0500150
units angstrom
no_reorient  #important for SAPT in psi4, default
symmetry c1  #important for SAPT in psi4, default
}

set PROPERTIES_ORIGIN ["COM"]
properties('MP2/aug-cc-pvtz', properties = ['dipole'])
--------------------------------------------------------------------------

    Molecular point group: c1
  Charge       = 0
  Multiplicity = 1
  Basis Set: AUG-CC-PVTZ
    Blend: AUG-CC-PVTZ
  Basis Set: (AUG-CC-PVTZ AUX)
    Blend: AUG-CC-PVTZ-JKFIT

    Orbital Energies [Eh]
    ---------------------

    Doubly Occupied:

       1A    -20.560576     2A    -20.548805     3A    -11.338130
       4A    -11.337087     5A    -11.250806     6A    -11.247968
       7A    -11.240410     8A    -11.230995     9A     -1.385340
      10A     -1.379433    11A     -1.098233    12A     -1.035718
      13A     -0.983137    14A     -0.873073    15A     -0.776995
      16A     -0.741998    17A     -0.675825    18A     -0.665595
      19A     -0.657132    20A     -0.625141    21A     -0.614808
      22A     -0.611566    23A     -0.570884    24A     -0.563586
      25A     -0.519092    26A     -0.508100    27A     -0.507042
      28A     -0.488317    29A     -0.484645    30A     -0.430975
      31A     -0.412493

  @DF-RHF Final Energy:  -382.89131580310936

   => Energetics <=

    Nuclear Repulsion Energy =            353.2752360907909406
    One-Electron Energy =               -1221.6052921411198895
    Two-Electron Energy =                 485.4387402472195845
    Total Energy =                       -382.8913158031093644
  Basis Set: (AUG-CC-PVTZ AUX)
    Blend: AUG-CC-PVTZ-RI
    Molecular point group: c1

    Geometry (in Angstrom), charge = 0, multiplicity = 1:

       Center              X                  Y                   Z               Mass
    ------------   -----------------  -----------------  -----------------  -----------------
         O            1.927441486869     1.380382791948     0.000431686598    15.994914619570
         O           -3.137427513131     0.925214791948     0.000458686598    15.994914619570
         C           -0.476293513131    -0.027215208052     0.000429686598    12.000000000000
         C            0.853326486869    -0.768275208052     0.000459686598    12.000000000000
         C           -1.657782513131    -0.986881208052     0.000427686598    12.000000000000
         C            2.056013486869     0.159182791948     0.000442686598    12.000000000000
         C            3.419255486869    -0.498543208052     0.000443686598    12.000000000000
         C           -2.994497513131    -0.290292208052     0.000438686598    12.000000000000
         H           -0.533680513131     0.632013791948     0.870840686598     1.007825032230
         H           -0.533654513131     0.631985791948    -0.870003313402     1.007825032230
         H            0.935171486869    -1.431173208052    -0.873110313402     1.007825032230
         H            0.935160486869    -1.431117208052     0.874073686598     1.007825032230
         H           -1.633438513131    -1.655298208052     0.873998686598     1.007825032230
         H           -1.633444513131    -1.655287208052    -0.873151313402     1.007825032230
         H            3.533519486869    -1.137285208052    -0.881418313402     1.007825032230
         H            3.533530486869    -1.137253208052     0.882327686598     1.007825032230
         H            4.192843486869     0.270114791948     0.000425686598     1.007825032230
         H           -3.881106513131    -0.958647408052    -0.049573313402     1.007825032230

  Basis Set: AUG-CC-PVTZ
    Blend: AUG-CC-PVTZ
  Basis Set: (AUG-CC-PVTZ AUX)
    Blend: AUG-CC-PVTZ-JKFIT
	 Reference Energy          =    -382.8913158031093644 [Eh]
	 Singles Energy            =      -0.0000000000000000 [Eh]
	 Same-Spin Energy          =      -0.3794815681188159 [Eh]
	 Opposite-Spin Energy      =      -1.2546893763381355 [Eh]
	 Correlation Energy        =      -1.6341709444569514 [Eh]
	 Total Energy              =    -384.5254867475663332 [Eh]

	 ================> DF-SCS-MP2 Energies <==================
	-----------------------------------------------------------
	 SCS Same-Spin Scale       =       0.3333333333333333 [-]
	 SCS Opposite-Spin Scale   =       1.2000000000000000 [-]
	 SCS Same-Spin Energy      =      -0.1264938560396053 [Eh]
	 SCS Opposite-Spin Energy  =      -1.5056272516057625 [Eh]
	 SCS Correlation Energy    =      -1.6321211076453679 [Eh]
	 SCS Total Energy          =    -384.5234369107547536 [Eh]
	-----------------------------------------------------------

  Dipole Moment: [D]
     X:     1.1400      Y:    -5.1527      Z:    -0.0163     Total:     5.2773

*** Psi4 exiting successfully. Buy a developer a beer!
