                               Psi4 1.3.2 release

  ==> Input File <==

--------------------------------------------------------------------------
#psi4
#
memory 32 gb

molecule  {
0 1
  O        1.8881650     1.4432750    -0.0000100
  O       -3.1767040     0.9881070     0.0000170
  C       -0.5155700     0.0356770    -0.0000120
  C        0.8140500    -0.7053830     0.0000180
  C       -1.6970590    -0.9239890    -0.0000140
  C        2.0167370     0.2220750     0.0000010
  C        3.3799795    -0.4356500     0.1000020
  C       -3.0337740    -0.2274000    -0.0000030
  H       -0.5729570     0.6949060     0.8703990
  H       -0.5729310     0.6948780    -0.8704450
  H        0.8958950    -1.3682810    -0.8735520
  H        0.8958840    -1.3682250     0.8736320
  H       -1.6727150    -1.5924060     0.8735570
  H       -1.6727210    -1.5923950    -0.8735930
  H        3.4942430    -1.0743930    -0.8818600
  H        3.4942540    -1.0743610     0.8818860
  H        4.1535670     0.3330070    -0.0000160
  H       -3.9203830    -0.8957560    -0.0000150
units angstrom
no_reorient  #important for SAPT in psi4, default
symmetry c1  #important for SAPT in psi4, default
}

set PROPERTIES_ORIGIN ["COM"]
properties('MP2/aug-cc-pvtz', properties = ['dipole'])
--------------------------------------------------------------------------

    Molecular point group: c1
  Charge       = 0
  Multiplicity = 1
  Basis Set: AUG-CC-PVTZ
    Blend: AUG-CC-PVTZ
  Basis Set: (AUG-CC-PVTZ AUX)
    Blend: AUG-CC-PVTZ-JKFIT

    Orbital Energies [Eh]
    ---------------------

    Doubly Occupied:

       1A    -20.560564     2A    -20.549066     3A    -11.338055
       4A    -11.337981     5A    -11.250833     6A    -11.248097
       7A    -11.241810     8A    -11.231052     9A     -1.385347
      10A     -1.379679    11A     -1.098300    12A     -1.035948
      13A     -0.983604    14A     -0.873463    15A     -0.777250
      16A     -0.743348    17A     -0.676533    18A     -0.666554
      19A     -0.660331    20A     -0.627335    21A     -0.616414
      22A     -0.609153    23A     -0.579936    24A     -0.551276
      25A     -0.518142    26A     -0.507398    27A     -0.506539
      28A     -0.487283    29A     -0.484223    30A     -0.430982
      31A     -0.412463

  @DF-RHF Final Energy:  -382.88149244243965

   => Energetics <=

    Nuclear Repulsion Energy =            353.2432126017071710
    One-Electron Energy =               -1221.5114962624229520
    Two-Electron Energy =                 485.3867912182760733
    Total Energy =                       -382.8814924424396509
  Basis Set: (AUG-CC-PVTZ AUX)
    Blend: AUG-CC-PVTZ-RI
    Molecular point group: c1

    Geometry (in Angstrom), charge = 0, multiplicity = 1:

       Center              X                  Y                   Z               Mass
    ------------   -----------------  -----------------  -----------------  -----------------
         O            1.927441434269     1.380382693815    -0.010530111448    15.994914619570
         O           -3.137427565731     0.925214693815    -0.010503111448    15.994914619570
         C           -0.476293565731    -0.027215306185    -0.010532111448    12.000000000000
         C            0.853326434269    -0.768275306185    -0.010502111448    12.000000000000
         C           -1.657782565731    -0.986881306185    -0.010534111448    12.000000000000
         C            2.056013434269     0.159182693815    -0.010519111448    12.000000000000
         C            3.419255934269    -0.498542306185     0.089481888552    12.000000000000
         C           -2.994497565731    -0.290292306185    -0.010523111448    12.000000000000
         H           -0.533680565731     0.632013693815     0.859878888552     1.007825032230
         H           -0.533654565731     0.631985693815    -0.880965111448     1.007825032230
         H            0.935171434269    -1.431173306185    -0.884072111448     1.007825032230
         H            0.935160434269    -1.431117306185     0.863111888552     1.007825032230
         H           -1.633438565731    -1.655298306185     0.863036888552     1.007825032230
         H           -1.633444565731    -1.655287306185    -0.884113111448     1.007825032230
         H            3.533519434269    -1.137285306185    -0.892380111448     1.007825032230
         H            3.533530434269    -1.137253306185     0.871365888552     1.007825032230
         H            4.192843434269     0.270114693815    -0.010536111448     1.007825032230
         H           -3.881106565731    -0.958648306185    -0.010535111448     1.007825032230

  Basis Set: AUG-CC-PVTZ
    Blend: AUG-CC-PVTZ
  Basis Set: (AUG-CC-PVTZ AUX)
    Blend: AUG-CC-PVTZ-JKFIT
	 Reference Energy          =    -382.8814924424396509 [Eh]
	 Singles Energy            =      -0.0000000000000000 [Eh]
	 Same-Spin Energy          =      -0.3795962452505554 [Eh]
	 Opposite-Spin Energy      =      -1.2551119125754548 [Eh]
	 Correlation Energy        =      -1.6347081578260103 [Eh]
	 Total Energy              =    -384.5162006002656767 [Eh]

	 ================> DF-SCS-MP2 Energies <==================
	-----------------------------------------------------------
	 SCS Same-Spin Scale       =       0.3333333333333333 [-]
	 SCS Opposite-Spin Scale   =       1.2000000000000000 [-]
	 SCS Same-Spin Energy      =      -0.1265320817501851 [Eh]
	 SCS Opposite-Spin Energy  =      -1.5061342950905459 [Eh]
	 SCS Correlation Energy    =      -1.6326663768407310 [Eh]
	 SCS Total Energy          =    -384.5141588192803965 [Eh]
	-----------------------------------------------------------

  Dipole Moment: [D]
     X:     1.1302      Y:    -5.1446      Z:     0.0306     Total:     5.2674

*** Psi4 exiting successfully. Buy a developer a beer!
