                               Psi4 1.3.2 release

  ==> Input File <==

--------------------------------------------------------------------------
#psi4
#
memory 32 gb

molecule  {
0 1
  O        1.8881650     1.4432750    -0.0000100
  O       -3.1767040     0.9881070     0.0000170
  C       -0.5155700     0.0356770    -0.0000120
  C        0.8140500    -0.7053830     0.0000180
  C       -1.6970590    -0.9239890    -0.0000140
  C        2.0167370     0.2220750     0.0000010
  C        3.3799793    -0.4356505     0.0500020
  C       -3.0337740    -0.2274000    -0.0000030
  H       -0.5729570     0.6949060     0.8703990
  H       -0.5729310     0.6948780    -0.8704450
  H        0.8958950    -1.3682810    -0.8735520
  H        0.8958840    -1.3682250     0.8736320
  H       -1.6727150    -1.5924060     0.8735570
  H       -1.6727210    -1.5923950    -0.8735930
  H        3.4942430    -1.0743930    -0.8818600
  H        3.4942540    -1.0743610     0.8818860
  H        4.1535670     0.3330070    -0.0000160
  H       -3.9203830    -0.8957560    -0.0000150
units angstrom
no_reorient  #important for SAPT in psi4, default
symmetry c1  #important for SAPT in psi4, default
}

set PROPERTIES_ORIGIN ["COM"]
properties('MP2/aug-cc-pvtz', properties = ['dipole'])
--------------------------------------------------------------------------

    Molecular point group: c1
  Charge       = 0
  Multiplicity = 1
  Basis Set: AUG-CC-PVTZ
    Blend: AUG-CC-PVTZ
  Basis Set: (AUG-CC-PVTZ AUX)
    Blend: AUG-CC-PVTZ-JKFIT

    Orbital Energies [Eh]
    ---------------------

    Doubly Occupied:

       1A    -20.560533     2A    -20.548865     3A    -11.338022
       4A    -11.337305     5A    -11.250793     6A    -11.247992
       7A    -11.240756     8A    -11.230997     9A     -1.385315
      10A     -1.379488    11A     -1.098241    12A     -1.035771
      13A     -0.983256    14A     -0.873215    15A     -0.777176
      16A     -0.742329    17A     -0.676019    18A     -0.665797
      19A     -0.658008    20A     -0.625720    21A     -0.615617
      22A     -0.610606    23A     -0.574970    24A     -0.558568
      25A     -0.518814    26A     -0.507820    27A     -0.507033
      28A     -0.488044    29A     -0.484568    30A     -0.431011
      31A     -0.412495

  @DF-RHF Final Energy:  -382.88897318234456

   => Energetics <=

    Nuclear Repulsion Energy =            353.2703292832782722
    One-Electron Energy =               -1221.5883209590731440
    Two-Electron Energy =                 485.4290184934503714
    Total Energy =                       -382.8889731823445572
  Basis Set: (AUG-CC-PVTZ AUX)
    Blend: AUG-CC-PVTZ-RI
    Molecular point group: c1

    Geometry (in Angstrom), charge = 0, multiplicity = 1:

       Center              X                  Y                   Z               Mass
    ------------   -----------------  -----------------  -----------------  -----------------
         O            1.927441455309     1.380382746416    -0.005270094778    15.994914619570
         O           -3.137427544691     0.925214746416    -0.005243094778    15.994914619570
         C           -0.476293544691    -0.027215253584    -0.005272094778    12.000000000000
         C            0.853326455309    -0.768275253584    -0.005242094778    12.000000000000
         C           -1.657782544691    -0.986881253584    -0.005274094778    12.000000000000
         C            2.056013455309     0.159182746416    -0.005259094778    12.000000000000
         C            3.419255755309    -0.498542753584     0.044741905222    12.000000000000
         C           -2.994497544691    -0.290292253584    -0.005263094778    12.000000000000
         H           -0.533680544691     0.632013746416     0.865138905222     1.007825032230
         H           -0.533654544691     0.631985746416    -0.875705094778     1.007825032230
         H            0.935171455309    -1.431173253584    -0.878812094778     1.007825032230
         H            0.935160455309    -1.431117253584     0.868371905222     1.007825032230
         H           -1.633438544691    -1.655298253584     0.868296905222     1.007825032230
         H           -1.633444544691    -1.655287253584    -0.878853094778     1.007825032230
         H            3.533519455309    -1.137285253584    -0.887120094778     1.007825032230
         H            3.533530455309    -1.137253253584     0.876625905222     1.007825032230
         H            4.192843455309     0.270114746416    -0.005276094778     1.007825032230
         H           -3.881106544691    -0.958648253584    -0.005275094778     1.007825032230

  Basis Set: AUG-CC-PVTZ
    Blend: AUG-CC-PVTZ
  Basis Set: (AUG-CC-PVTZ AUX)
    Blend: AUG-CC-PVTZ-JKFIT
	 Reference Energy          =    -382.8889731823445572 [Eh]
	 Singles Energy            =      -0.0000000000000000 [Eh]
	 Same-Spin Energy          =      -0.3795039187884995 [Eh]
	 Opposite-Spin Energy      =      -1.2547790305128792 [Eh]
	 Correlation Energy        =      -1.6342829493013786 [Eh]
	 Total Energy              =    -384.5232561316459510 [Eh]

	 ================> DF-SCS-MP2 Energies <==================
	-----------------------------------------------------------
	 SCS Same-Spin Scale       =       0.3333333333333333 [-]
	 SCS Opposite-Spin Scale   =       1.2000000000000000 [-]
	 SCS Same-Spin Energy      =      -0.1265013062628332 [Eh]
	 SCS Opposite-Spin Energy  =      -1.5057348366154550 [Eh]
	 SCS Correlation Energy    =      -1.6322361428782881 [Eh]
	 SCS Total Energy          =    -384.5212093252228556 [Eh]
	-----------------------------------------------------------

  Dipole Moment: [D]
     X:     1.1361      Y:    -5.1519      Z:     0.0156     Total:     5.2757

*** Psi4 exiting successfully. Buy a developer a beer!
