                               Psi4 1.3.2 release

  ==> Input File <==

--------------------------------------------------------------------------
#psi4
#
memory 32 gb

molecule  {
0 1
  O        1.8881650     1.4432750    -0.0000100
  O       -3.1767040     0.9881070     0.0000170
  C       -0.5155700     0.0356770    -0.0000120
  C        0.8140500    -0.7053830     0.0000180
  C       -1.6970590    -0.9239890    -0.0000140
  C        2.0167370     0.2220750     0.0000010
  C        3.3799790    -0.4356510     0.0000020
  C       -3.0337740    -0.2274000    -0.0000030
  H       -0.5729570     0.6949060     0.8703990
  H       -0.5729310     0.6948780    -0.8704450
  H        0.8958950    -1.3682810    -0.8735520
  H        0.8958840    -1.3682250     0.8736320
  H       -1.6727150    -1.5924060     0.8735570
  H       -1.6727210    -1.5923950    -0.8735930
  H        3.4942430    -1.0743930    -0.8818600
  H        3.4942540    -1.0743610     0.8818860
  H        4.1535670     0.3330070    -0.0000160
  H       -3.9203829    -0.8957535    -0.1500150
units angstrom
no_reorient  #important for SAPT in psi4, default
symmetry c1  #important for SAPT in psi4, default
}

set PROPERTIES_ORIGIN ["COM"]
properties('MP2/aug-cc-pvtz', properties = ['dipole'])
--------------------------------------------------------------------------

    Molecular point group: c1
  Charge       = 0
  Multiplicity = 1
  Basis Set: AUG-CC-PVTZ
    Blend: AUG-CC-PVTZ
  Basis Set: (AUG-CC-PVTZ AUX)
    Blend: AUG-CC-PVTZ-JKFIT

    Orbital Energies [Eh]
    ---------------------

    Doubly Occupied:

       1A    -20.561005     2A    -20.548869     3A    -11.339079
       4A    -11.337157     5A    -11.251018     6A    -11.248055
       7A    -11.240460     8A    -11.231132     9A     -1.385622
      10A     -1.379498    11A     -1.098333    12A     -1.035758
      13A     -0.983101    14A     -0.872605    15A     -0.775765
      16A     -0.741963    17A     -0.675402    18A     -0.665443
      19A     -0.657204    20A     -0.625171    21A     -0.614724
      22A     -0.611665    23A     -0.571006    24A     -0.563528
      25A     -0.519443    26A     -0.508332    27A     -0.506821
      28A     -0.488424    29A     -0.484736    30A     -0.430619
      31A     -0.412389

  @DF-RHF Final Energy:  -382.89016636883679

   => Energetics <=

    Nuclear Repulsion Energy =            353.2423186165798370
    One-Electron Energy =               -1221.5363116730470665
    Two-Electron Energy =                 485.4038266876304419
    Total Energy =                       -382.8901663688367876
  Basis Set: (AUG-CC-PVTZ AUX)
    Blend: AUG-CC-PVTZ-RI
    Molecular point group: c1

    Geometry (in Angstrom), charge = 0, multiplicity = 1:

       Center              X                  Y                   Z               Mass
    ------------   -----------------  -----------------  -----------------  -----------------
         O            1.927441485985     1.380382776928     0.001315216009    15.994914619570
         O           -3.137427514015     0.925214776928     0.001342216009    15.994914619570
         C           -0.476293514015    -0.027215223072     0.001313216009    12.000000000000
         C            0.853326485985    -0.768275223072     0.001343216009    12.000000000000
         C           -1.657782514015    -0.986881223072     0.001311216009    12.000000000000
         C            2.056013485985     0.159182776928     0.001326216009    12.000000000000
         C            3.419255485985    -0.498543223072     0.001327216009    12.000000000000
         C           -2.994497514015    -0.290292223072     0.001322216009    12.000000000000
         H           -0.533680514015     0.632013776928     0.871724216009     1.007825032230
         H           -0.533654514015     0.631985776928    -0.869119783991     1.007825032230
         H            0.935171485985    -1.431173223072    -0.872226783991     1.007825032230
         H            0.935160485985    -1.431117223072     0.874957216009     1.007825032230
         H           -1.633438514015    -1.655298223072     0.874882216009     1.007825032230
         H           -1.633444514015    -1.655287223072    -0.872267783991     1.007825032230
         H            3.533519485985    -1.137285223072    -0.880534783991     1.007825032230
         H            3.533530485985    -1.137253223072     0.883211216009     1.007825032230
         H            4.192843485985     0.270114776928     0.001309216009     1.007825032230
         H           -3.881106414015    -0.958645723072    -0.148689783991     1.007825032230

  Basis Set: AUG-CC-PVTZ
    Blend: AUG-CC-PVTZ
  Basis Set: (AUG-CC-PVTZ AUX)
    Blend: AUG-CC-PVTZ-JKFIT
	 Reference Energy          =    -382.8901663688367876 [Eh]
	 Singles Energy            =      -0.0000000000000000 [Eh]
	 Same-Spin Energy          =      -0.3795480629720898 [Eh]
	 Opposite-Spin Energy      =      -1.2548551162134749 [Eh]
	 Correlation Energy        =      -1.6344031791855647 [Eh]
	 Total Energy              =    -384.5245695480223276 [Eh]

	 ================> DF-SCS-MP2 Energies <==================
	-----------------------------------------------------------
	 SCS Same-Spin Scale       =       0.3333333333333333 [-]
	 SCS Opposite-Spin Scale   =       1.2000000000000000 [-]
	 SCS Same-Spin Energy      =      -0.1265160209906966 [Eh]
	 SCS Opposite-Spin Energy  =      -1.5058261394561698 [Eh]
	 SCS Correlation Energy    =      -1.6323421604468664 [Eh]
	 SCS Total Energy          =    -384.5225085292836411 [Eh]
	-----------------------------------------------------------

  Dipole Moment: [D]
     X:     1.1562      Y:    -5.1388      Z:    -0.0478     Total:     5.2674

*** Psi4 exiting successfully. Buy a developer a beer!
