                               Psi4 1.3.2 release

  ==> Input File <==

--------------------------------------------------------------------------
#psi4
#
memory 32 gb

molecule  {
0 1
  O        1.8881650     1.4432750    -0.0000100
  O       -3.1767040     0.9881070     0.0000170
  C       -0.5155700     0.0356770    -0.0000120
  C        0.8140500    -0.7053830     0.0000180
  C       -1.6970590    -0.9239890    -0.0000140
  C        2.0167370     0.2220750     0.0000010
  C        3.3799803    -0.4356484     0.2500020
  C       -3.0337740    -0.2274000    -0.0000030
  H       -0.5729570     0.6949060     0.8703990
  H       -0.5729310     0.6948780    -0.8704450
  H        0.8958950    -1.3682810    -0.8735520
  H        0.8958840    -1.3682250     0.8736320
  H       -1.6727150    -1.5924060     0.8735570
  H       -1.6727210    -1.5923950    -0.8735930
  H        3.4942430    -1.0743930    -0.8818600
  H        3.4942540    -1.0743610     0.8818860
  H        4.1535670     0.3330070    -0.0000160
  H       -3.9203830    -0.8957560    -0.0000150
units angstrom
no_reorient  #important for SAPT in psi4, default
symmetry c1  #important for SAPT in psi4, default
}

set PROPERTIES_ORIGIN ["COM"]
properties('MP2/aug-cc-pvtz', properties = ['dipole'])
--------------------------------------------------------------------------

    Molecular point group: c1
  Charge       = 0
  Multiplicity = 1
  Basis Set: AUG-CC-PVTZ
    Blend: AUG-CC-PVTZ
  Basis Set: (AUG-CC-PVTZ AUX)
    Blend: AUG-CC-PVTZ-JKFIT

    Orbital Energies [Eh]
    ---------------------

    Doubly Occupied:

       1A    -20.560780     2A    -20.550448     3A    -11.342605
       4A    -11.338286     5A    -11.251115     6A    -11.249122
       7A    -11.248840     8A    -11.231445     9A     -1.385567
      10A     -1.380976    11A     -1.098720    12A     -1.037395
      13A     -0.986254    14A     -0.875344    15A     -0.777885
      16A     -0.751752    17A     -0.685869    18A     -0.672794
      19A     -0.664459    20A     -0.632637    21A     -0.614638
      22A     -0.606389    23A     -0.587173    24A     -0.537786
      25A     -0.515361    26A     -0.507428    27A     -0.501276
      28A     -0.486079    29A     -0.473048    30A     -0.430667
      31A     -0.412175

  @DF-RHF Final Energy:  -382.82787824075263

   => Energetics <=

    Nuclear Repulsion Energy =            353.0560058827344392
    One-Electron Energy =               -1220.9791379786599919
    Two-Electron Energy =                 485.0952538551729276
    Total Energy =                       -382.8278782407526251
  Basis Set: (AUG-CC-PVTZ AUX)
    Blend: AUG-CC-PVTZ-RI
    Molecular point group: c1

    Geometry (in Angstrom), charge = 0, multiplicity = 1:

       Center              X                  Y                   Z               Mass
    ------------   -----------------  -----------------  -----------------  -----------------
         O            1.927441350108     1.380382525495    -0.026310161458    15.994914619570
         O           -3.137427649892     0.925214525495    -0.026283161458    15.994914619570
         C           -0.476293649892    -0.027215474505    -0.026312161458    12.000000000000
         C            0.853326350108    -0.768275474505    -0.026282161458    12.000000000000
         C           -1.657782649892    -0.986881474505    -0.026314161458    12.000000000000
         C            2.056013350108     0.159182525495    -0.026299161458    12.000000000000
         C            3.419256650108    -0.498540874505     0.223701838542    12.000000000000
         C           -2.994497649892    -0.290292474505    -0.026303161458    12.000000000000
         H           -0.533680649892     0.632013525495     0.844098838542     1.007825032230
         H           -0.533654649892     0.631985525495    -0.896745161458     1.007825032230
         H            0.935171350108    -1.431173474505    -0.899852161458     1.007825032230
         H            0.935160350108    -1.431117474505     0.847331838542     1.007825032230
         H           -1.633438649892    -1.655298474505     0.847256838542     1.007825032230
         H           -1.633444649892    -1.655287474505    -0.899893161458     1.007825032230
         H            3.533519350108    -1.137285474505    -0.908160161458     1.007825032230
         H            3.533530350108    -1.137253474505     0.855585838542     1.007825032230
         H            4.192843350108     0.270114525495    -0.026316161458     1.007825032230
         H           -3.881106649892    -0.958648474505    -0.026315161458     1.007825032230

  Basis Set: AUG-CC-PVTZ
    Blend: AUG-CC-PVTZ
  Basis Set: (AUG-CC-PVTZ AUX)
    Blend: AUG-CC-PVTZ-JKFIT
	 Reference Energy          =    -382.8278782407526251 [Eh]
	 Singles Energy            =      -0.0000000000000000 [Eh]
	 Same-Spin Energy          =      -0.3802562077784285 [Eh]
	 Opposite-Spin Energy      =      -1.2575227417334927 [Eh]
	 Correlation Energy        =      -1.6377789495119210 [Eh]
	 Total Energy              =    -384.4656571902645510 [Eh]

	 ================> DF-SCS-MP2 Energies <==================
	-----------------------------------------------------------
	 SCS Same-Spin Scale       =       0.3333333333333333 [-]
	 SCS Opposite-Spin Scale   =       1.2000000000000000 [-]
	 SCS Same-Spin Energy      =      -0.1267520692594762 [Eh]
	 SCS Opposite-Spin Energy  =      -1.5090272900801911 [Eh]
	 SCS Correlation Energy    =      -1.6357793593396672 [Eh]
	 SCS Total Energy          =    -384.4636576000922901 [Eh]
	-----------------------------------------------------------

  Dipole Moment: [D]
     X:     1.0889      Y:    -5.0990      Z:     0.0654     Total:     5.2144

*** Psi4 exiting successfully. Buy a developer a beer!
