                               Psi4 1.3.2 release

  ==> Input File <==

--------------------------------------------------------------------------
#psi4
#
memory 32 gb

molecule  {
0 1
  O        1.8881650     1.4432750    -0.0000100
  O       -3.1767040     0.9881070     0.0000170
  C       -0.5155700     0.0356770    -0.0000120
  C        0.8140500    -0.7053830     0.0000180
  C       -1.6970590    -0.9239890    -0.0000140
  C        2.0167370     0.2220750     0.0000010
  C        3.3799800    -0.4356489     0.2000020
  C       -3.0337740    -0.2274000    -0.0000030
  H       -0.5729570     0.6949060     0.8703990
  H       -0.5729310     0.6948780    -0.8704450
  H        0.8958950    -1.3682810    -0.8735520
  H        0.8958840    -1.3682250     0.8736320
  H       -1.6727150    -1.5924060     0.8735570
  H       -1.6727210    -1.5923950    -0.8735930
  H        3.4942430    -1.0743930    -0.8818600
  H        3.4942540    -1.0743610     0.8818860
  H        4.1535670     0.3330070    -0.0000160
  H       -3.9203830    -0.8957560    -0.0000150
units angstrom
no_reorient  #important for SAPT in psi4, default
symmetry c1  #important for SAPT in psi4, default
}

set PROPERTIES_ORIGIN ["COM"]
properties('MP2/aug-cc-pvtz', properties = ['dipole'])
--------------------------------------------------------------------------

    Molecular point group: c1
  Charge       = 0
  Multiplicity = 1
  Basis Set: AUG-CC-PVTZ
    Blend: AUG-CC-PVTZ
  Basis Set: (AUG-CC-PVTZ AUX)
    Blend: AUG-CC-PVTZ-JKFIT

    Orbital Energies [Eh]
    ---------------------

    Doubly Occupied:

       1A    -20.560687     2A    -20.549861     3A    -11.340647
       4A    -11.338187     5A    -11.250994     6A    -11.248521
       7A    -11.246004     8A    -11.231276     9A     -1.385473
      10A     -1.380428    11A     -1.098539    12A     -1.036731
      13A     -0.985077    14A     -0.874511    15A     -0.777583
      16A     -0.747944    17A     -0.680960    18A     -0.671208
      19A     -0.663859    20A     -0.631213    21A     -0.615719
      22A     -0.607035    23A     -0.585873    24A     -0.540502
      25A     -0.516171    26A     -0.507368    27A     -0.503046
      28A     -0.486074    29A     -0.479107    30A     -0.430829
      31A     -0.412313

  @DF-RHF Final Energy:  -382.85109504838505

   => Energetics <=

    Nuclear Repulsion Energy =            353.1357335211471309
    One-Electron Energy =               -1221.2061767506479555
    Two-Electron Energy =                 485.2193481811157767
    Total Energy =                       -382.8510950483850479
  Basis Set: (AUG-CC-PVTZ AUX)
    Blend: AUG-CC-PVTZ-RI
    Molecular point group: c1

    Geometry (in Angstrom), charge = 0, multiplicity = 1:

       Center              X                  Y                   Z               Mass
    ------------   -----------------  -----------------  -----------------  -----------------
         O            1.927441381668     1.380382578095    -0.021050144788    15.994914619570
         O           -3.137427618332     0.925214578095    -0.021023144788    15.994914619570
         C           -0.476293618332    -0.027215421905    -0.021052144788    12.000000000000
         C            0.853326381668    -0.768275421905    -0.021022144788    12.000000000000
         C           -1.657782618332    -0.986881421905    -0.021054144788    12.000000000000
         C            2.056013381668     0.159182578095    -0.021039144788    12.000000000000
         C            3.419256381668    -0.498541321905     0.178961855212    12.000000000000
         C           -2.994497618332    -0.290292421905    -0.021043144788    12.000000000000
         H           -0.533680618332     0.632013578095     0.849358855212     1.007825032230
         H           -0.533654618332     0.631985578095    -0.891485144788     1.007825032230
         H            0.935171381668    -1.431173421905    -0.894592144788     1.007825032230
         H            0.935160381668    -1.431117421905     0.852591855212     1.007825032230
         H           -1.633438618332    -1.655298421905     0.852516855212     1.007825032230
         H           -1.633444618332    -1.655287421905    -0.894633144788     1.007825032230
         H            3.533519381668    -1.137285421905    -0.902900144788     1.007825032230
         H            3.533530381668    -1.137253421905     0.860845855212     1.007825032230
         H            4.192843381668     0.270114578095    -0.021056144788     1.007825032230
         H           -3.881106618332    -0.958648421905    -0.021055144788     1.007825032230

  Basis Set: AUG-CC-PVTZ
    Blend: AUG-CC-PVTZ
  Basis Set: (AUG-CC-PVTZ AUX)
    Blend: AUG-CC-PVTZ-JKFIT
	 Reference Energy          =    -382.8510950483850479 [Eh]
	 Singles Energy            =      -0.0000000000000000 [Eh]
	 Same-Spin Energy          =      -0.3799704833021940 [Eh]
	 Opposite-Spin Energy      =      -1.2564753418656287 [Eh]
	 Correlation Energy        =      -1.6364458251678227 [Eh]
	 Total Energy              =    -384.4875408735528595 [Eh]

	 ================> DF-SCS-MP2 Energies <==================
	-----------------------------------------------------------
	 SCS Same-Spin Scale       =       0.3333333333333333 [-]
	 SCS Opposite-Spin Scale   =       1.2000000000000000 [-]
	 SCS Same-Spin Energy      =      -0.1266568277673980 [Eh]
	 SCS Opposite-Spin Energy  =      -1.5077704102387544 [Eh]
	 SCS Correlation Energy    =      -1.6344272380061524 [Eh]
	 SCS Total Energy          =    -384.4855222863911877 [Eh]
	-----------------------------------------------------------

  Dipole Moment: [D]
     X:     1.1067      Y:    -5.1174      Z:     0.0563     Total:     5.2360

*** Psi4 exiting successfully. Buy a developer a beer!
