                               Psi4 1.3.2 release

  ==> Input File <==

--------------------------------------------------------------------------
#psi4
#
memory 32 gb

molecule  {
0 1
  O        1.8881650     1.4432750    -0.0000100
  O       -3.1767040     0.9881070     0.0000170
  C       -0.5155700     0.0356770    -0.0000120
  C        0.8140500    -0.7053830     0.0000180
  C       -1.6970590    -0.9239890    -0.0000140
  C        2.0167370     0.2220750     0.0000010
  C        3.3799790    -0.4356510     0.0000020
  C       -3.0337740    -0.2274000    -0.0000030
  H       -0.5729570     0.6949060     0.8703990
  H       -0.5729310     0.6948780    -0.8704450
  H        0.8958950    -1.3682810    -0.8735520
  H        0.8958840    -1.3682250     0.8736320
  H       -1.6727150    -1.5924060     0.8735570
  H       -1.6727210    -1.5923950    -0.8735930
  H        3.4942430    -1.0743930    -0.8818600
  H        3.4942540    -1.0743610     0.8818860
  H        4.1535670     0.3330070    -0.0000160
  H       -3.9203828    -0.8957518    -0.2500150
units angstrom
no_reorient  #important for SAPT in psi4, default
symmetry c1  #important for SAPT in psi4, default
}

set PROPERTIES_ORIGIN ["COM"]
properties('MP2/aug-cc-pvtz', properties = ['dipole'])
--------------------------------------------------------------------------

    Molecular point group: c1
  Charge       = 0
  Multiplicity = 1
  Basis Set: AUG-CC-PVTZ
    Blend: AUG-CC-PVTZ
  Basis Set: (AUG-CC-PVTZ AUX)
    Blend: AUG-CC-PVTZ-JKFIT

    Orbital Energies [Eh]
    ---------------------

    Doubly Occupied:

       1A    -20.561865     2A    -20.548999     3A    -11.340948
       4A    -11.337299     5A    -11.251446     6A    -11.248233
       7A    -11.240561     8A    -11.231408     9A     -1.386191
      10A     -1.379630    11A     -1.098538    12A     -1.035846
      13A     -0.983048    14A     -0.871773    15A     -0.773467
      16A     -0.741884    17A     -0.674619    18A     -0.665090
      19A     -0.657340    20A     -0.625223    21A     -0.614557
      22A     -0.611867    23A     -0.571249    24A     -0.563418
      25A     -0.520109    26A     -0.508683    27A     -0.506540
      28A     -0.488643    29A     -0.484919    30A     -0.429917
      31A     -0.412154

  @DF-RHF Final Energy:  -382.88769721282614

   => Energetics <=

    Nuclear Repulsion Energy =            353.1782509421800000
    One-Electron Energy =               -1221.4009670823454599
    Two-Electron Energy =                 485.3350189273392630
    Total Energy =                       -382.8876972128261400
  Basis Set: (AUG-CC-PVTZ AUX)
    Blend: AUG-CC-PVTZ-RI
    Molecular point group: c1

    Geometry (in Angstrom), charge = 0, multiplicity = 1:

       Center              X                  Y                   Z               Mass
    ------------   -----------------  -----------------  -----------------  -----------------
         O            1.927441485102     1.380382761908     0.002198745421    15.994914619570
         O           -3.137427514898     0.925214761908     0.002225745421    15.994914619570
         C           -0.476293514898    -0.027215238092     0.002196745421    12.000000000000
         C            0.853326485102    -0.768275238092     0.002226745421    12.000000000000
         C           -1.657782514898    -0.986881238092     0.002194745421    12.000000000000
         C            2.056013485102     0.159182761908     0.002209745421    12.000000000000
         C            3.419255485102    -0.498543238092     0.002210745421    12.000000000000
         C           -2.994497514898    -0.290292238092     0.002205745421    12.000000000000
         H           -0.533680514898     0.632013761908     0.872607745421     1.007825032230
         H           -0.533654514898     0.631985761908    -0.868236254579     1.007825032230
         H            0.935171485102    -1.431173238092    -0.871343254579     1.007825032230
         H            0.935160485102    -1.431117238092     0.875840745421     1.007825032230
         H           -1.633438514898    -1.655298238092     0.875765745421     1.007825032230
         H           -1.633444514898    -1.655287238092    -0.871384254579     1.007825032230
         H            3.533519485102    -1.137285238092    -0.879651254579     1.007825032230
         H            3.533530485102    -1.137253238092     0.884094745421     1.007825032230
         H            4.192843485102     0.270114761908     0.002192745421     1.007825032230
         H           -3.881106314898    -0.958644038092    -0.247806254579     1.007825032230

  Basis Set: AUG-CC-PVTZ
    Blend: AUG-CC-PVTZ
  Basis Set: (AUG-CC-PVTZ AUX)
    Blend: AUG-CC-PVTZ-JKFIT
	 Reference Energy          =    -382.8876972128261400 [Eh]
	 Singles Energy            =      -0.0000000000000000 [Eh]
	 Same-Spin Energy          =      -0.3796810677607678 [Eh]
	 Opposite-Spin Energy      =      -1.2551974194615114 [Eh]
	 Correlation Energy        =      -1.6348784872222792 [Eh]
	 Total Energy              =    -384.5225757000484350 [Eh]

	 ================> DF-SCS-MP2 Energies <==================
	-----------------------------------------------------------
	 SCS Same-Spin Scale       =       0.3333333333333333 [-]
	 SCS Opposite-Spin Scale   =       1.2000000000000000 [-]
	 SCS Same-Spin Energy      =      -0.1265603559202559 [Eh]
	 SCS Opposite-Spin Energy  =      -1.5062369033538137 [Eh]
	 SCS Correlation Energy    =      -1.6327972592740696 [Eh]
	 SCS Total Energy          =    -384.5204944721002107 [Eh]
	-----------------------------------------------------------

  Dipole Moment: [D]
     X:     1.1888      Y:    -5.1110      Z:    -0.0757     Total:     5.2480

*** Psi4 exiting successfully. Buy a developer a beer!
