                               Psi4 1.3.2 release

  ==> Input File <==

--------------------------------------------------------------------------
#psi4
#
memory 32 gb

molecule  {
0 1
  O        1.8881650     1.4432750    -0.0000100
  O       -3.1767040     0.9881070     0.0000170
  C       -0.5155700     0.0356770    -0.0000120
  C        0.8140500    -0.7053830     0.0000180
  C       -1.6970590    -0.9239890    -0.0000140
  C        2.0167370     0.2220750     0.0000010
  C        3.3799790    -0.4356510     0.0000020
  C       -3.0337740    -0.2274000    -0.0000030
  H       -0.5729570     0.6949060     0.8703990
  H       -0.5729310     0.6948780    -0.8704450
  H        0.8958950    -1.3682810    -0.8735520
  H        0.8958840    -1.3682250     0.8736320
  H       -1.6727150    -1.5924060     0.8735570
  H       -1.6727210    -1.5923950    -0.8735930
  H        3.4942430    -1.0743930    -0.8818600
  H        3.4942540    -1.0743610     0.8818860
  H        4.1535670     0.3330070    -0.0000160
  H       -3.9203829    -0.8957543    -0.1000150
units angstrom
no_reorient  #important for SAPT in psi4, default
symmetry c1  #important for SAPT in psi4, default
}

set PROPERTIES_ORIGIN ["COM"]
properties('MP2/aug-cc-pvtz', properties = ['dipole'])
--------------------------------------------------------------------------

    Molecular point group: c1
  Charge       = 0
  Multiplicity = 1
  Basis Set: AUG-CC-PVTZ
    Blend: AUG-CC-PVTZ
  Basis Set: (AUG-CC-PVTZ AUX)
    Blend: AUG-CC-PVTZ-JKFIT

    Orbital Energies [Eh]
    ---------------------

    Doubly Occupied:

       1A    -20.560737     2A    -20.548829     3A    -11.338487
       4A    -11.337113     5A    -11.250885     6A    -11.248000
       7A    -11.240429     8A    -11.231047     9A     -1.385446
      10A     -1.379457    11A     -1.098271    12A     -1.035733
      13A     -0.983123    14A     -0.872893    15A     -0.776527
      16A     -0.741986    17A     -0.675664    18A     -0.665540
      19A     -0.657159    20A     -0.625153    21A     -0.614776
      22A     -0.611603    23A     -0.570930    24A     -0.563564
      25A     -0.519225    26A     -0.508196    27A     -0.506949
      28A     -0.488357    29A     -0.484679    30A     -0.430842
      31A     -0.412455

  @DF-RHF Final Energy:  -382.89089198101721

   => Energetics <=

    Nuclear Repulsion Energy =            353.2628210957947203
    One-Electron Energy =               -1221.5793201705823776
    Two-Electron Energy =                 485.4256070937704521
    Total Energy =                       -382.8908919810172051
  Basis Set: (AUG-CC-PVTZ AUX)
    Blend: AUG-CC-PVTZ-RI
    Molecular point group: c1

    Geometry (in Angstrom), charge = 0, multiplicity = 1:

       Center              X                  Y                   Z               Mass
    ------------   -----------------  -----------------  -----------------  -----------------
         O            1.927441485985     1.380382783996     0.000873451304    15.994914619570
         O           -3.137427514015     0.925214783996     0.000900451304    15.994914619570
         C           -0.476293514015    -0.027215216004     0.000871451304    12.000000000000
         C            0.853326485985    -0.768275216004     0.000901451304    12.000000000000
         C           -1.657782514015    -0.986881216004     0.000869451304    12.000000000000
         C            2.056013485985     0.159182783996     0.000884451304    12.000000000000
         C            3.419255485985    -0.498543216004     0.000885451304    12.000000000000
         C           -2.994497514015    -0.290292216004     0.000880451304    12.000000000000
         H           -0.533680514015     0.632013783996     0.871282451304     1.007825032230
         H           -0.533654514015     0.631985783996    -0.869561548696     1.007825032230
         H            0.935171485985    -1.431173216004    -0.872668548696     1.007825032230
         H            0.935160485985    -1.431117216004     0.874515451304     1.007825032230
         H           -1.633438514015    -1.655298216004     0.874440451304     1.007825032230
         H           -1.633444514015    -1.655287216004    -0.872709548696     1.007825032230
         H            3.533519485985    -1.137285216004    -0.880976548696     1.007825032230
         H            3.533530485985    -1.137253216004     0.882769451304     1.007825032230
         H            4.192843485985     0.270114783996     0.000867451304     1.007825032230
         H           -3.881106414015    -0.958646516004    -0.099131548696     1.007825032230

  Basis Set: AUG-CC-PVTZ
    Blend: AUG-CC-PVTZ
  Basis Set: (AUG-CC-PVTZ AUX)
    Blend: AUG-CC-PVTZ-JKFIT
	 Reference Energy          =    -382.8908919810172051 [Eh]
	 Singles Energy            =      -0.0000000000000000 [Eh]
	 Same-Spin Energy          =      -0.3795064994609407 [Eh]
	 Opposite-Spin Energy      =      -1.2547510360080456 [Eh]
	 Correlation Energy        =      -1.6342575354689863 [Eh]
	 Total Energy              =    -384.5251495164861808 [Eh]

	 ================> DF-SCS-MP2 Energies <==================
	-----------------------------------------------------------
	 SCS Same-Spin Scale       =       0.3333333333333333 [-]
	 SCS Opposite-Spin Scale   =       1.2000000000000000 [-]
	 SCS Same-Spin Energy      =      -0.1265021664869802 [Eh]
	 SCS Opposite-Spin Energy  =      -1.5057012432096546 [Eh]
	 SCS Correlation Energy    =      -1.6322034096966349 [Eh]
	 SCS Total Energy          =    -384.5230953907138201 [Eh]
	-----------------------------------------------------------

  Dipole Moment: [D]
     X:     1.1461      Y:    -5.1474      Z:    -0.0323     Total:     5.2736

*** Psi4 exiting successfully. Buy a developer a beer!
