                               Psi4 1.3.2 release

  ==> Input File <==

--------------------------------------------------------------------------
#psi4
#
memory 32 gb

molecule  {
1 1
  N        1.9381540    -0.0000390     0.0000190
  N        3.0749700     0.0000220    -0.0000560
  C        0.5473360    -0.0000170     0.0000140
  C       -0.0940020    -1.2473330     0.0000080
  C       -0.0939649     1.2473159    -0.1999930
  C       -1.4853590    -1.2209880     0.0000050
  C       -1.4853240     1.2210110     0.0000030
  C       -2.1726170     0.0000220     0.0000020
  H        0.4692830    -2.1765740     0.0000100
  H        0.4693460     2.1765410     0.0000080
  H       -2.0338500    -2.1581340     0.0000040
  H       -2.0337860     2.1581750     0.0000020
  H       -3.2592660     0.0000380    -0.0000010
units angstrom
no_reorient  #important for SAPT in psi4, default
symmetry c1  #important for SAPT in psi4, default
}

set PROPERTIES_ORIGIN ["COM"]
properties('MP2/aug-cc-pvtz', properties = ['dipole'])
--------------------------------------------------------------------------

    Molecular point group: c1
  Charge       = 1
  Multiplicity = 1
  Basis Set: AUG-CC-PVTZ
    Blend: AUG-CC-PVTZ
  Basis Set: (AUG-CC-PVTZ AUX)
    Blend: AUG-CC-PVTZ-JKFIT

    Orbital Energies [Eh]
    ---------------------

    Doubly Occupied:

       1A    -15.988739     2A    -15.966636     3A    -11.518450
       4A    -11.462369     5A    -11.459434     6A    -11.438711
       7A    -11.429056     8A    -11.426856     9A     -1.714452
      10A     -1.395355    11A     -1.290533    12A     -1.222033
      13A     -1.132946    14A     -1.038754    15A     -0.973335
      16A     -0.920183    17A     -0.891261    18A     -0.885195
      19A     -0.874806    20A     -0.805198    21A     -0.800197
      22A     -0.787202    23A     -0.710676    24A     -0.701186
      25A     -0.692465    26A     -0.544308    27A     -0.533172

  @DF-RHF Final Energy:  -338.83126220246982

   => Energetics <=

    Nuclear Repulsion Energy =            313.0194306068397054
    One-Electron Energy =               -1066.4943673761217724
    Two-Electron Energy =                 414.6436745668122512
    Total Energy =                       -338.8312622024698157
  Basis Set: (AUG-CC-PVTZ AUX)
    Blend: AUG-CC-PVTZ-RI
    Molecular point group: c1

    Geometry (in Angstrom), charge = 1, multiplicity = 1:

       Center              X                  Y                   Z               Mass
    ------------   -----------------  -----------------  -----------------  -----------------
         N            1.877668516631    -0.000038420323     0.022866548122    14.003074004430
         N            3.014484516631     0.000022579677     0.022791548122    14.003074004430
         C            0.486850516631    -0.000016420323     0.022861548122    12.000000000000
         C           -0.154487483369    -1.247332420323     0.022855548122    12.000000000000
         C           -0.154450383369     1.247316479677    -0.177145451878    12.000000000000
         C           -1.545844483369    -1.220987420323     0.022852548122    12.000000000000
         C           -1.545809483369     1.221011579677     0.022850548122    12.000000000000
         C           -2.233102483369     0.000022579677     0.022849548122    12.000000000000
         H            0.408797516631    -2.176573420323     0.022857548122     1.007825032230
         H            0.408860516631     2.176541579677     0.022855548122     1.007825032230
         H           -2.094335483369    -2.158133420323     0.022851548122     1.007825032230
         H           -2.094271483369     2.158175579677     0.022849548122     1.007825032230
         H           -3.319751483369     0.000038579677     0.022846548122     1.007825032230

  Basis Set: AUG-CC-PVTZ
    Blend: AUG-CC-PVTZ
  Basis Set: (AUG-CC-PVTZ AUX)
    Blend: AUG-CC-PVTZ-JKFIT
	 Reference Energy          =    -338.8312622024698157 [Eh]
	 Singles Energy            =      -0.0000000000000000 [Eh]
	 Same-Spin Energy          =      -0.3639676441060609 [Eh]
	 Opposite-Spin Energy      =      -1.1172401396945855 [Eh]
	 Correlation Energy        =      -1.4812077838006463 [Eh]
	 Total Energy              =    -340.3124699862704574 [Eh]

	 ================> DF-SCS-MP2 Energies <==================
	-----------------------------------------------------------
	 SCS Same-Spin Scale       =       0.3333333333333333 [-]
	 SCS Opposite-Spin Scale   =       1.2000000000000000 [-]
	 SCS Same-Spin Energy      =      -0.1213225480353536 [Eh]
	 SCS Opposite-Spin Energy  =      -1.3406881676335025 [Eh]
	 SCS Correlation Energy    =      -1.4620107156688562 [Eh]
	 SCS Total Energy          =    -340.2932729181386549 [Eh]
	-----------------------------------------------------------

  Dipole Moment: [D]
     X:     0.7596      Y:    -0.0598      Z:     0.1484     Total:     0.7763

*** Psi4 exiting successfully. Buy a developer a beer!
