                               Psi4 1.3.2 release

  ==> Input File <==

--------------------------------------------------------------------------
#psi4
#
memory 32 gb

molecule  {
1 1
  N        1.9381540    -0.0000390     0.0000190
  N        3.0749700     0.0000220    -0.0000560
  C        0.5473360    -0.0000170     0.0000140
  C       -0.0940020    -1.2473330     0.0000080
  C       -0.0939654     1.2473160    -0.0999930
  C       -1.4853590    -1.2209880     0.0000050
  C       -1.4853240     1.2210110     0.0000030
  C       -2.1726170     0.0000220     0.0000020
  H        0.4692830    -2.1765740     0.0000100
  H        0.4693460     2.1765410     0.0000080
  H       -2.0338500    -2.1581340     0.0000040
  H       -2.0337860     2.1581750     0.0000020
  H       -3.2592660     0.0000380    -0.0000010
units angstrom
no_reorient  #important for SAPT in psi4, default
symmetry c1  #important for SAPT in psi4, default
}

set PROPERTIES_ORIGIN ["COM"]
properties('MP2/aug-cc-pvtz', properties = ['dipole'])
--------------------------------------------------------------------------

    Molecular point group: c1
  Charge       = 1
  Multiplicity = 1
  Basis Set: AUG-CC-PVTZ
    Blend: AUG-CC-PVTZ
  Basis Set: (AUG-CC-PVTZ AUX)
    Blend: AUG-CC-PVTZ-JKFIT

    Orbital Energies [Eh]
    ---------------------

    Doubly Occupied:

       1A    -15.989085     2A    -15.966873     3A    -11.517184
       4A    -11.460030     5A    -11.459269     6A    -11.438856
       7A    -11.426219     8A    -11.425649     9A     -1.714734
      10A     -1.396584    11A     -1.290751    12A     -1.223402
      13A     -1.133516    14A     -1.039863    15A     -0.974999
      16A     -0.920797    17A     -0.891541    18A     -0.885974
      19A     -0.877047    20A     -0.806421    21A     -0.801404
      22A     -0.790242    23A     -0.710899    24A     -0.701953
      25A     -0.694868    26A     -0.545065    27A     -0.533423

  @DF-RHF Final Energy:  -338.84066325895458

   => Energetics <=

    Nuclear Repulsion Energy =            313.3525622604007026
    One-Electron Energy =               -1067.1531534373602881
    Two-Electron Energy =                 414.9599279180050644
    Total Energy =                       -338.8406632589545779
  Basis Set: (AUG-CC-PVTZ AUX)
    Blend: AUG-CC-PVTZ-RI
    Molecular point group: c1

    Geometry (in Angstrom), charge = 1, multiplicity = 1:

       Center              X                  Y                   Z               Mass
    ------------   -----------------  -----------------  -----------------  -----------------
         N            1.877668573750    -0.000038431747     0.011442902262    14.003074004430
         N            3.014484573750     0.000022568253     0.011367902262    14.003074004430
         C            0.486850573750    -0.000016431747     0.011437902262    12.000000000000
         C           -0.154487426250    -1.247332431747     0.011431902262    12.000000000000
         C           -0.154450826250     1.247316568253    -0.088569097738    12.000000000000
         C           -1.545844426250    -1.220987431747     0.011428902262    12.000000000000
         C           -1.545809426250     1.221011568253     0.011426902262    12.000000000000
         C           -2.233102426250     0.000022568253     0.011425902262    12.000000000000
         H            0.408797573750    -2.176573431747     0.011433902262     1.007825032230
         H            0.408860573750     2.176541568253     0.011431902262     1.007825032230
         H           -2.094335426250    -2.158133431747     0.011427902262     1.007825032230
         H           -2.094271426250     2.158175568253     0.011425902262     1.007825032230
         H           -3.319751426250     0.000038568253     0.011422902262     1.007825032230

  Basis Set: AUG-CC-PVTZ
    Blend: AUG-CC-PVTZ
  Basis Set: (AUG-CC-PVTZ AUX)
    Blend: AUG-CC-PVTZ-JKFIT
	 Reference Energy          =    -338.8406632589545779 [Eh]
	 Singles Energy            =      -0.0000000000000000 [Eh]
	 Same-Spin Energy          =      -0.3633753262101963 [Eh]
	 Opposite-Spin Energy      =      -1.1156242314197515 [Eh]
	 Correlation Energy        =      -1.4789995576299479 [Eh]
	 Total Energy              =    -340.3196628165845254 [Eh]

	 ================> DF-SCS-MP2 Energies <==================
	-----------------------------------------------------------
	 SCS Same-Spin Scale       =       0.3333333333333333 [-]
	 SCS Opposite-Spin Scale   =       1.2000000000000000 [-]
	 SCS Same-Spin Energy      =      -0.1211251087367321 [Eh]
	 SCS Opposite-Spin Energy  =      -1.3387490777037019 [Eh]
	 SCS Correlation Energy    =      -1.4598741864404339 [Eh]
	 SCS Total Energy          =    -340.3005374453950367 [Eh]
	-----------------------------------------------------------

  Dipole Moment: [D]
     X:     0.8106      Y:    -0.0152      Z:     0.0721     Total:     0.8139

*** Psi4 exiting successfully. Buy a developer a beer!
