                               Psi4 1.3.2 release

  ==> Input File <==

--------------------------------------------------------------------------
#psi4
#
memory 32 gb

molecule  {
1 1
  N        1.9381540    -0.0000390     0.0000190
  N        3.0749700     0.0000220    -0.0000560
  C        0.5473360    -0.0000170     0.0000140
  C       -0.0940020    -1.2473330     0.0000080
  C       -0.0939652     1.2473159    -0.1499930
  C       -1.4853590    -1.2209880     0.0000050
  C       -1.4853240     1.2210110     0.0000030
  C       -2.1726170     0.0000220     0.0000020
  H        0.4692830    -2.1765740     0.0000100
  H        0.4693460     2.1765410     0.0000080
  H       -2.0338500    -2.1581340     0.0000040
  H       -2.0337860     2.1581750     0.0000020
  H       -3.2592660     0.0000380    -0.0000010
units angstrom
no_reorient  #important for SAPT in psi4, default
symmetry c1  #important for SAPT in psi4, default
}

set PROPERTIES_ORIGIN ["COM"]
properties('MP2/aug-cc-pvtz', properties = ['dipole'])
--------------------------------------------------------------------------

    Molecular point group: c1
  Charge       = 1
  Multiplicity = 1
  Basis Set: AUG-CC-PVTZ
    Blend: AUG-CC-PVTZ
  Basis Set: (AUG-CC-PVTZ AUX)
    Blend: AUG-CC-PVTZ-JKFIT

    Orbital Energies [Eh]
    ---------------------

    Doubly Occupied:

       1A    -15.988936     2A    -15.966768     3A    -11.517716
       4A    -11.461017     5A    -11.459329     6A    -11.438788
       7A    -11.427405     8A    -11.426144     9A     -1.714612
      10A     -1.396063    11A     -1.290651    12A     -1.222828
      13A     -1.133280    14A     -1.039385    15A     -0.974282
      16A     -0.920526    17A     -0.891424    18A     -0.885641
      19A     -0.876074    20A     -0.805769    21A     -0.801013
      22A     -0.788990    23A     -0.710822    24A     -0.701607
      25A     -0.693886    26A     -0.544734    27A     -0.533314

  @DF-RHF Final Energy:  -338.83676788557199

   => Energetics <=

    Nuclear Repulsion Energy =            313.2129479348200789
    One-Electron Energy =               -1066.8774239289837169
    Two-Electron Energy =                 414.8277081085917075
    Total Energy =                       -338.8367678855719873
  Basis Set: (AUG-CC-PVTZ AUX)
    Blend: AUG-CC-PVTZ-RI
    Molecular point group: c1

    Geometry (in Angstrom), charge = 1, multiplicity = 1:

       Center              X                  Y                   Z               Mass
    ------------   -----------------  -----------------  -----------------  -----------------
         N            1.877668550902    -0.000038420323     0.017154725192    14.003074004430
         N            3.014484550902     0.000022579677     0.017079725192    14.003074004430
         C            0.486850550902    -0.000016420323     0.017149725192    12.000000000000
         C           -0.154487449098    -1.247332420323     0.017143725192    12.000000000000
         C           -0.154450649098     1.247316479677    -0.132857274808    12.000000000000
         C           -1.545844449098    -1.220987420323     0.017140725192    12.000000000000
         C           -1.545809449098     1.221011579677     0.017138725192    12.000000000000
         C           -2.233102449098     0.000022579677     0.017137725192    12.000000000000
         H            0.408797550902    -2.176573420323     0.017145725192     1.007825032230
         H            0.408860550902     2.176541579677     0.017143725192     1.007825032230
         H           -2.094335449098    -2.158133420323     0.017139725192     1.007825032230
         H           -2.094271449098     2.158175579677     0.017137725192     1.007825032230
         H           -3.319751449098     0.000038579677     0.017134725192     1.007825032230

  Basis Set: AUG-CC-PVTZ
    Blend: AUG-CC-PVTZ
  Basis Set: (AUG-CC-PVTZ AUX)
    Blend: AUG-CC-PVTZ-JKFIT
	 Reference Energy          =    -338.8367678855719873 [Eh]
	 Singles Energy            =      -0.0000000000000000 [Eh]
	 Same-Spin Energy          =      -0.3636241614420858 [Eh]
	 Opposite-Spin Energy      =      -1.1162972578474362 [Eh]
	 Correlation Energy        =      -1.4799214192895220 [Eh]
	 Total Energy              =    -340.3166893048614838 [Eh]

	 ================> DF-SCS-MP2 Energies <==================
	-----------------------------------------------------------
	 SCS Same-Spin Scale       =       0.3333333333333333 [-]
	 SCS Opposite-Spin Scale   =       1.2000000000000000 [-]
	 SCS Same-Spin Energy      =      -0.1212080538140286 [Eh]
	 SCS Opposite-Spin Energy  =      -1.3395567094169234 [Eh]
	 SCS Correlation Energy    =      -1.4607647632309519 [Eh]
	 SCS Total Energy          =    -340.2975326488029282 [Eh]
	-----------------------------------------------------------

  Dipole Moment: [D]
     X:     0.7893      Y:    -0.0339      Z:     0.1095     Total:     0.7975

*** Psi4 exiting successfully. Buy a developer a beer!
