                               Psi4 1.3.2 release

  ==> Input File <==

--------------------------------------------------------------------------
#psi4
#
memory 32 gb

molecule  {
1 1
  N        1.9381540    -0.0000390     0.0000190
  N        3.0749700     0.0000220    -0.0000560
  C        0.5473360    -0.0000170     0.0000140
  C       -0.0940020    -1.2473330     0.0000080
  C       -0.0939646     1.2473159    -0.2499930
  C       -1.4853590    -1.2209880     0.0000050
  C       -1.4853240     1.2210110     0.0000030
  C       -2.1726170     0.0000220     0.0000020
  H        0.4692830    -2.1765740     0.0000100
  H        0.4693460     2.1765410     0.0000080
  H       -2.0338500    -2.1581340     0.0000040
  H       -2.0337860     2.1581750     0.0000020
  H       -3.2592660     0.0000380    -0.0000010
units angstrom
no_reorient  #important for SAPT in psi4, default
symmetry c1  #important for SAPT in psi4, default
}

set PROPERTIES_ORIGIN ["COM"]
properties('MP2/aug-cc-pvtz', properties = ['dipole'])
--------------------------------------------------------------------------

    Molecular point group: c1
  Charge       = 1
  Multiplicity = 1
  Basis Set: AUG-CC-PVTZ
    Blend: AUG-CC-PVTZ
  Basis Set: (AUG-CC-PVTZ AUX)
    Blend: AUG-CC-PVTZ-JKFIT

    Orbital Energies [Eh]
    ---------------------

    Doubly Occupied:

       1A    -15.988497     2A    -15.966481     3A    -11.519368
       4A    -11.464045     5A    -11.459590     6A    -11.438635
       7A    -11.431143     8A    -11.427790     9A     -1.714258
      10A     -1.394469    11A     -1.290407    12A     -1.221016
      13A     -1.132502    14A     -1.037993    15A     -0.972202
      16A     -0.919791    17A     -0.891051    18A     -0.884648
      19A     -0.873322    20A     -0.804935    21A     -0.798775
      22A     -0.784855    23A     -0.710425    24A     -0.700698
      25A     -0.690580    26A     -0.543814    27A     -0.533000

  @DF-RHF Final Energy:  -338.82411511707880

   => Energetics <=

    Nuclear Repulsion Energy =            312.7738803497980484
    One-Electron Energy =               -1066.0074107891414315
    Two-Electron Energy =                 414.4094153222646355
    Total Energy =                       -338.8241151170788044
  Basis Set: (AUG-CC-PVTZ AUX)
    Blend: AUG-CC-PVTZ-RI
    Molecular point group: c1

    Geometry (in Angstrom), charge = 1, multiplicity = 1:

       Center              X                  Y                   Z               Mass
    ------------   -----------------  -----------------  -----------------  -----------------
         N            1.877668482361    -0.000038420323     0.028578371052    14.003074004430
         N            3.014484482361     0.000022579677     0.028503371052    14.003074004430
         C            0.486850482361    -0.000016420323     0.028573371052    12.000000000000
         C           -0.154487517639    -1.247332420323     0.028567371052    12.000000000000
         C           -0.154450117639     1.247316479677    -0.221433628948    12.000000000000
         C           -1.545844517639    -1.220987420323     0.028564371052    12.000000000000
         C           -1.545809517639     1.221011579677     0.028562371052    12.000000000000
         C           -2.233102517639     0.000022579677     0.028561371052    12.000000000000
         H            0.408797482361    -2.176573420323     0.028569371052     1.007825032230
         H            0.408860482361     2.176541579677     0.028567371052     1.007825032230
         H           -2.094335517639    -2.158133420323     0.028563371052     1.007825032230
         H           -2.094271517639     2.158175579677     0.028561371052     1.007825032230
         H           -3.319751517639     0.000038579677     0.028558371052     1.007825032230

  Basis Set: AUG-CC-PVTZ
    Blend: AUG-CC-PVTZ
  Basis Set: (AUG-CC-PVTZ AUX)
    Blend: AUG-CC-PVTZ-JKFIT
	 Reference Energy          =    -338.8241151170788044 [Eh]
	 Singles Energy            =      -0.0000000000000000 [Eh]
	 Same-Spin Energy          =      -0.3644027389486731 [Eh]
	 Opposite-Spin Energy      =      -1.1184439782799431 [Eh]
	 Correlation Energy        =      -1.4828467172286162 [Eh]
	 Total Energy              =    -340.3069618343074012 [Eh]

	 ================> DF-SCS-MP2 Energies <==================
	-----------------------------------------------------------
	 SCS Same-Spin Scale       =       0.3333333333333333 [-]
	 SCS Opposite-Spin Scale   =       1.2000000000000000 [-]
	 SCS Same-Spin Energy      =      -0.1214675796495577 [Eh]
	 SCS Opposite-Spin Energy  =      -1.3421327739359317 [Eh]
	 SCS Correlation Energy    =      -1.4636003535854893 [Eh]
	 SCS Total Energy          =    -340.2877154706642955 [Eh]
	-----------------------------------------------------------

  Dipole Moment: [D]
     X:     0.7218      Y:    -0.0928      Z:     0.1888     Total:     0.7518

*** Psi4 exiting successfully. Buy a developer a beer!
