                               Psi4 1.3.2 release

  ==> Input File <==

--------------------------------------------------------------------------
#psi4
#
memory 32 gb

molecule  {
1 1
  N        1.9381540    -0.0000390     0.0000190
  N        3.0749700     0.0000220    -0.0000560
  C        0.5473360    -0.0000170     0.0000140
  C       -0.0940020    -1.2473330     0.0000080
  C       -0.0939643     1.2473159    -0.2999930
  C       -1.4853590    -1.2209880     0.0000050
  C       -1.4853240     1.2210110     0.0000030
  C       -2.1726170     0.0000220     0.0000020
  H        0.4692830    -2.1765740     0.0000100
  H        0.4693460     2.1765410     0.0000080
  H       -2.0338500    -2.1581340     0.0000040
  H       -2.0337860     2.1581750     0.0000020
  H       -3.2592660     0.0000380    -0.0000010
units angstrom
no_reorient  #important for SAPT in psi4, default
symmetry c1  #important for SAPT in psi4, default
}

set PROPERTIES_ORIGIN ["COM"]
properties('MP2/aug-cc-pvtz', properties = ['dipole'])
--------------------------------------------------------------------------

    Molecular point group: c1
  Charge       = 1
  Multiplicity = 1
  Basis Set: AUG-CC-PVTZ
    Blend: AUG-CC-PVTZ
  Basis Set: (AUG-CC-PVTZ AUX)
    Blend: AUG-CC-PVTZ-JKFIT

    Orbital Energies [Eh]
    ---------------------

    Doubly Occupied:

       1A    -15.988217     2A    -15.966308     3A    -11.520446
       4A    -11.465998     5A    -11.459808     6A    -11.438575
       7A    -11.433630     8A    -11.428955     9A     -1.714034
      10A     -1.393423    11A     -1.290288    12A     -1.219782
      13A     -1.131929    14A     -1.037127    15A     -0.970933
      16A     -0.919375    17A     -0.890794    18A     -0.884012
      19A     -0.871710    20A     -0.805008    21A     -0.796773
      22A     -0.781956    23A     -0.710034    24A     -0.700117
      25A     -0.688218    26A     -0.543288    27A     -0.532796

  @DF-RHF Final Energy:  -338.81529829794533

   => Energetics <=

    Nuclear Repulsion Energy =            312.4785950024916588
    One-Electron Energy =               -1065.4207166983878778
    Two-Electron Energy =                 414.1268233979509432
    Total Energy =                       -338.8152982979453327
  Basis Set: (AUG-CC-PVTZ AUX)
    Blend: AUG-CC-PVTZ-RI
    Molecular point group: c1

    Geometry (in Angstrom), charge = 1, multiplicity = 1:

       Center              X                  Y                   Z               Mass
    ------------   -----------------  -----------------  -----------------  -----------------
         N            1.877668448090    -0.000038420323     0.034290193983    14.003074004430
         N            3.014484448090     0.000022579677     0.034215193983    14.003074004430
         C            0.486850448090    -0.000016420323     0.034285193983    12.000000000000
         C           -0.154487551910    -1.247332420323     0.034279193983    12.000000000000
         C           -0.154449851910     1.247316479677    -0.265721806017    12.000000000000
         C           -1.545844551910    -1.220987420323     0.034276193983    12.000000000000
         C           -1.545809551910     1.221011579677     0.034274193983    12.000000000000
         C           -2.233102551910     0.000022579677     0.034273193983    12.000000000000
         H            0.408797448090    -2.176573420323     0.034281193983     1.007825032230
         H            0.408860448090     2.176541579677     0.034279193983     1.007825032230
         H           -2.094335551910    -2.158133420323     0.034275193983     1.007825032230
         H           -2.094271551910     2.158175579677     0.034273193983     1.007825032230
         H           -3.319751551910     0.000038579677     0.034270193983     1.007825032230

  Basis Set: AUG-CC-PVTZ
    Blend: AUG-CC-PVTZ
  Basis Set: (AUG-CC-PVTZ AUX)
    Blend: AUG-CC-PVTZ-JKFIT
	 Reference Energy          =    -338.8152982979453327 [Eh]
	 Singles Energy            =      -0.0000000000000000 [Eh]
	 Same-Spin Energy          =      -0.3649244407443726 [Eh]
	 Opposite-Spin Energy      =      -1.1199012133192401 [Eh]
	 Correlation Energy        =      -1.4848256540636127 [Eh]
	 Total Energy              =    -340.3001239520089598 [Eh]

	 ================> DF-SCS-MP2 Energies <==================
	-----------------------------------------------------------
	 SCS Same-Spin Scale       =       0.3333333333333333 [-]
	 SCS Opposite-Spin Scale   =       1.2000000000000000 [-]
	 SCS Same-Spin Energy      =      -0.1216414802481242 [Eh]
	 SCS Opposite-Spin Energy  =      -1.3438814559830881 [Eh]
	 SCS Correlation Energy    =      -1.4655229362312123 [Eh]
	 SCS Total Energy          =    -340.2808212341765284 [Eh]
	-----------------------------------------------------------

  Dipole Moment: [D]
     X:     0.6759      Y:    -0.1324      Z:     0.2307     Total:     0.7264

*** Psi4 exiting successfully. Buy a developer a beer!
