                               Psi4 1.3.2 release

  ==> Input File <==

--------------------------------------------------------------------------
#psi4
#
memory 32 gb

molecule  {
1 1
  N        1.9381540    -0.0000390     0.0000190
  N        3.0749700     0.0000220    -0.0000560
  C        0.5473360    -0.0000170     0.0000140
  C       -0.0940020    -1.2473330     0.0000080
  C       -0.0939657     1.2473160    -0.0499930
  C       -1.4853590    -1.2209880     0.0000050
  C       -1.4853240     1.2210110     0.0000030
  C       -2.1726170     0.0000220     0.0000020
  H        0.4692830    -2.1765740     0.0000100
  H        0.4693460     2.1765410     0.0000080
  H       -2.0338500    -2.1581340     0.0000040
  H       -2.0337860     2.1581750     0.0000020
  H       -3.2592660     0.0000380    -0.0000010
units angstrom
no_reorient  #important for SAPT in psi4, default
symmetry c1  #important for SAPT in psi4, default
}

set PROPERTIES_ORIGIN ["COM"]
properties('MP2/aug-cc-pvtz', properties = ['dipole'])
--------------------------------------------------------------------------

    Molecular point group: c1
  Charge       = 1
  Multiplicity = 1
  Basis Set: AUG-CC-PVTZ
    Blend: AUG-CC-PVTZ
  Basis Set: (AUG-CC-PVTZ AUX)
    Blend: AUG-CC-PVTZ-JKFIT

    Orbital Energies [Eh]
    ---------------------

    Doubly Occupied:

       1A    -15.989182     2A    -15.966948     3A    -11.516872
       4A    -11.459442     5A    -11.459248     6A    -11.438913
       7A    -11.425518     8A    -11.425363     9A     -1.714816
      10A     -1.396912    11A     -1.290826    12A     -1.223759
      13A     -1.133667    14A     -1.040169    15A     -0.975455
      16A     -0.920977    17A     -0.891617    18A     -0.886188
      19A     -0.877668    20A     -0.806911    21A     -0.801580
      22A     -0.790989    23A     -0.710941    24A     -0.702187
      25A     -0.695446    26A     -0.545282    27A     -0.533501

  @DF-RHF Final Energy:  -338.84297588105284

   => Energetics <=

    Nuclear Repulsion Energy =            313.4368976676718148
    One-Electron Energy =               -1067.3189928310914638
    Two-Electron Energy =                 415.0391192823668121
    Total Energy =                       -338.8429758810528369
  Basis Set: (AUG-CC-PVTZ AUX)
    Blend: AUG-CC-PVTZ-RI
    Molecular point group: c1

    Geometry (in Angstrom), charge = 1, multiplicity = 1:

       Center              X                  Y                   Z               Mass
    ------------   -----------------  -----------------  -----------------  -----------------
         N            1.877668608021    -0.000038431747     0.005731079332    14.003074004430
         N            3.014484608021     0.000022568253     0.005656079332    14.003074004430
         C            0.486850608021    -0.000016431747     0.005726079332    12.000000000000
         C           -0.154487391979    -1.247332431747     0.005720079332    12.000000000000
         C           -0.154451091979     1.247316568253    -0.044280920668    12.000000000000
         C           -1.545844391979    -1.220987431747     0.005717079332    12.000000000000
         C           -1.545809391979     1.221011568253     0.005715079332    12.000000000000
         C           -2.233102391979     0.000022568253     0.005714079332    12.000000000000
         H            0.408797608021    -2.176573431747     0.005722079332     1.007825032230
         H            0.408860608021     2.176541568253     0.005720079332     1.007825032230
         H           -2.094335391979    -2.158133431747     0.005716079332     1.007825032230
         H           -2.094271391979     2.158175568253     0.005714079332     1.007825032230
         H           -3.319751391979     0.000038568253     0.005711079332     1.007825032230

  Basis Set: AUG-CC-PVTZ
    Blend: AUG-CC-PVTZ
  Basis Set: (AUG-CC-PVTZ AUX)
    Blend: AUG-CC-PVTZ-JKFIT
	 Reference Energy          =    -338.8429758810528369 [Eh]
	 Singles Energy            =      -0.0000000000000000 [Eh]
	 Same-Spin Energy          =      -0.3632217332839706 [Eh]
	 Opposite-Spin Energy      =      -1.1152250263466694 [Eh]
	 Correlation Energy        =      -1.4784467596306401 [Eh]
	 Total Energy              =    -340.3214226406834655 [Eh]

	 ================> DF-SCS-MP2 Energies <==================
	-----------------------------------------------------------
	 SCS Same-Spin Scale       =       0.3333333333333333 [-]
	 SCS Opposite-Spin Scale   =       1.2000000000000000 [-]
	 SCS Same-Spin Energy      =      -0.1210739110946568 [Eh]
	 SCS Opposite-Spin Energy  =      -1.3382700316160032 [Eh]
	 SCS Correlation Energy    =      -1.4593439427106600 [Eh]
	 SCS Total Energy          =    -340.3023198237634688 [Eh]
	-----------------------------------------------------------

  Dipole Moment: [D]
     X:     0.8236      Y:    -0.0039      Z:     0.0358     Total:     0.8243

*** Psi4 exiting successfully. Buy a developer a beer!
