                               Psi4 1.3.2 release

  ==> Input File <==

--------------------------------------------------------------------------
#psi4
#
memory 32 gb

molecule  {
0 1
  O        1.2408360    -0.2775280    -0.0000100
  C       -1.1702100    -0.1504720    -0.0000180
  C        0.2261640     0.4062520     0.0000350
  H       -1.7133170     0.2069280    -0.8812060
  H       -1.1329820    -1.2403210    -0.0006610
  H       -1.7128360     0.2058240     0.8819220
  H        0.2967203     1.5131027    -0.2500780
units angstrom
no_reorient  #important for SAPT in psi4, default
symmetry c1  #important for SAPT in psi4, default
}

set PROPERTIES_ORIGIN ["COM"]
properties('MP2/aug-cc-pvtz', properties = ['dipole'])
--------------------------------------------------------------------------

    Molecular point group: c1
  Charge       = 0
  Multiplicity = 1
  Basis Set: AUG-CC-PVTZ
    Blend: AUG-CC-PVTZ
  Basis Set: (AUG-CC-PVTZ AUX)
    Blend: AUG-CC-PVTZ-JKFIT

    Orbital Energies [Eh]
    ---------------------

    Doubly Occupied:

       1A    -20.562995     2A    -11.343493     3A    -11.245815
       4A     -1.386591     5A     -1.022938     6A     -0.797886
       7A     -0.671745     8A     -0.622696     9A     -0.605547
      10A     -0.560588    11A     -0.501594    12A     -0.427588

  @DF-RHF Final Energy:  -152.97122115043459

   => Energetics <=

    Nuclear Repulsion Energy =             69.2489100736128620
    One-Electron Energy =                -344.9413125330384560
    Two-Electron Energy =                 122.7211813089910066
    Total Energy =                       -152.9712211504345873
  Basis Set: (AUG-CC-PVTZ AUX)
    Blend: AUG-CC-PVTZ-RI
    Molecular point group: c1

    Geometry (in Angstrom), charge = 0, multiplicity = 1:

       Center              X                  Y                   Z               Mass
    ------------   -----------------  -----------------  -----------------  -----------------
         O            1.144921652864    -0.262110398348     0.005712394910    15.994914619570
         C           -1.266124347136    -0.135054398348     0.005704394910    12.000000000000
         C            0.130249652864     0.421669601652     0.005757394910    12.000000000000
         H           -1.809231347136     0.222345601652    -0.875483605090     1.007825032230
         H           -1.228896347136    -1.224903398348     0.005061394910     1.007825032230
         H           -1.808750347136     0.221241601652     0.887644394910     1.007825032230
         H            0.200805952864     1.528520301652    -0.244355605090     1.007825032230

  Basis Set: AUG-CC-PVTZ
    Blend: AUG-CC-PVTZ
  Basis Set: (AUG-CC-PVTZ AUX)
    Blend: AUG-CC-PVTZ-JKFIT
	 Reference Energy          =    -152.9712211504345873 [Eh]
	 Singles Energy            =      -0.0000000000000000 [Eh]
	 Same-Spin Energy          =      -0.1446290113833258 [Eh]
	 Opposite-Spin Energy      =      -0.4860069848147812 [Eh]
	 Correlation Energy        =      -0.6306359961981070 [Eh]
	 Total Energy              =    -153.6018571466326819 [Eh]

	 ================> DF-SCS-MP2 Energies <==================
	-----------------------------------------------------------
	 SCS Same-Spin Scale       =       0.3333333333333333 [-]
	 SCS Opposite-Spin Scale   =       1.2000000000000000 [-]
	 SCS Same-Spin Energy      =      -0.0482096704611086 [Eh]
	 SCS Opposite-Spin Energy  =      -0.5832083817777375 [Eh]
	 SCS Correlation Energy    =      -0.6314180522388461 [Eh]
	 SCS Total Energy          =    -153.6026392026734300 [Eh]
	-----------------------------------------------------------

  Dipole Moment: [D]
     X:    -2.5598      Y:     1.1133      Z:    -0.0919     Total:     2.7929

*** Psi4 exiting successfully. Buy a developer a beer!
