                               Psi4 1.3.2 release

  ==> Input File <==

--------------------------------------------------------------------------
#psi4
#
memory 32 gb

molecule  {
0 1
  O        1.2408360    -0.2775280    -0.0000100
  C       -1.1702100    -0.1504720    -0.0000180
  C        0.2261640     0.4062520     0.0000350
  H       -1.7133170     0.2069280    -0.8812060
  H       -1.1329820    -1.2403210    -0.0006610
  H       -1.7128360     0.2058240     0.8819220
  H        0.2967201     1.5131101    -0.0500780
units angstrom
no_reorient  #important for SAPT in psi4, default
symmetry c1  #important for SAPT in psi4, default
}

set PROPERTIES_ORIGIN ["COM"]
properties('MP2/aug-cc-pvtz', properties = ['dipole'])
--------------------------------------------------------------------------

    Molecular point group: c1
  Charge       = 0
  Multiplicity = 1
  Basis Set: AUG-CC-PVTZ
    Blend: AUG-CC-PVTZ
  Basis Set: (AUG-CC-PVTZ AUX)
    Blend: AUG-CC-PVTZ-JKFIT

    Orbital Energies [Eh]
    ---------------------

    Doubly Occupied:

       1A    -20.561651     2A    -11.340598     3A    -11.245081
       4A     -1.385683     5A     -1.023005     6A     -0.803591
       7A     -0.673210     8A     -0.622097     9A     -0.605047
      10A     -0.561367    11A     -0.501081    12A     -0.429082

  @DF-RHF Final Energy:  -152.97479859076759

   => Energetics <=

    Nuclear Repulsion Energy =             69.3416302057159868
    One-Electron Energy =                -345.1298709122018522
    Two-Electron Energy =                 122.8134421157182601
    Total Energy =                       -152.9747985907675911
  Basis Set: (AUG-CC-PVTZ AUX)
    Blend: AUG-CC-PVTZ-RI
    Molecular point group: c1

    Geometry (in Angstrom), charge = 0, multiplicity = 1:

       Center              X                  Y                   Z               Mass
    ------------   -----------------  -----------------  -----------------  -----------------
         O            1.144921657442    -0.262110567745     0.001134099737    15.994914619570
         C           -1.266124342558    -0.135054567745     0.001126099737    12.000000000000
         C            0.130249657442     0.421669432255     0.001179099737    12.000000000000
         H           -1.809231342558     0.222345432255    -0.880061900263     1.007825032230
         H           -1.228896342558    -1.224903567745     0.000483099737     1.007825032230
         H           -1.808750342558     0.221241432255     0.883066099737     1.007825032230
         H            0.200805757442     1.528527532255    -0.048933900263     1.007825032230

  Basis Set: AUG-CC-PVTZ
    Blend: AUG-CC-PVTZ
  Basis Set: (AUG-CC-PVTZ AUX)
    Blend: AUG-CC-PVTZ-JKFIT
	 Reference Energy          =    -152.9747985907675911 [Eh]
	 Singles Energy            =      -0.0000000000000000 [Eh]
	 Same-Spin Energy          =      -0.1444484405579441 [Eh]
	 Opposite-Spin Energy      =      -0.4855287788347683 [Eh]
	 Correlation Energy        =      -0.6299772193927125 [Eh]
	 Total Energy              =    -153.6047758101603051 [Eh]

	 ================> DF-SCS-MP2 Energies <==================
	-----------------------------------------------------------
	 SCS Same-Spin Scale       =       0.3333333333333333 [-]
	 SCS Opposite-Spin Scale   =       1.2000000000000000 [-]
	 SCS Same-Spin Energy      =      -0.0481494801859814 [Eh]
	 SCS Opposite-Spin Energy  =      -0.5826345346017220 [Eh]
	 SCS Correlation Energy    =      -0.6307840147877033 [Eh]
	 SCS Total Energy          =    -153.6055826055552984 [Eh]
	-----------------------------------------------------------

  Dipole Moment: [D]
     X:    -2.5669      Y:     1.1703      Z:    -0.0196     Total:     2.8212

*** Psi4 exiting successfully. Buy a developer a beer!
