                               Psi4 1.3.2 release

  ==> Input File <==

--------------------------------------------------------------------------
#psi4
#
memory 32 gb

molecule  {
0 1
  O        1.2408360    -0.2775280    -0.0000100
  C       -1.1702100    -0.1504720    -0.0000180
  C        0.2261640     0.4062520     0.0000350
  H       -1.7133170     0.2069280    -0.8812060
  H       -1.1329820    -1.2403210    -0.0006610
  H       -1.7128360     0.2058240     0.8819220
  H        0.2967204     1.5131008    -0.3000780
units angstrom
no_reorient  #important for SAPT in psi4, default
symmetry c1  #important for SAPT in psi4, default
}

set PROPERTIES_ORIGIN ["COM"]
properties('MP2/aug-cc-pvtz', properties = ['dipole'])
--------------------------------------------------------------------------

    Molecular point group: c1
  Charge       = 0
  Multiplicity = 1
  Basis Set: AUG-CC-PVTZ
    Blend: AUG-CC-PVTZ
  Basis Set: (AUG-CC-PVTZ AUX)
    Blend: AUG-CC-PVTZ-JKFIT

    Orbital Energies [Eh]
    ---------------------

    Doubly Occupied:

       1A    -20.563613     2A    -11.344793     3A    -11.246157
       4A     -1.387011     5A     -1.022935     6A     -0.795503
       7A     -0.671066     8A     -0.622978     9A     -0.605784
      10A     -0.560244    11A     -0.501842    12A     -0.426879

  @DF-RHF Final Energy:  -152.96942614273752

   => Energetics <=

    Nuclear Repulsion Energy =             69.2081251405627427
    One-Electron Energy =                -344.8574931526017053
    Two-Electron Energy =                 122.6799418693014445
    Total Energy =                       -152.9694261427375181
  Basis Set: (AUG-CC-PVTZ AUX)
    Blend: AUG-CC-PVTZ-RI
    Molecular point group: c1

    Geometry (in Angstrom), charge = 0, multiplicity = 1:

       Center              X                  Y                   Z               Mass
    ------------   -----------------  -----------------  -----------------  -----------------
         O            1.144921650575    -0.262110354854     0.006856968703    15.994914619570
         C           -1.266124349425    -0.135054354854     0.006848968703    12.000000000000
         C            0.130249650575     0.421669645146     0.006901968703    12.000000000000
         H           -1.809231349425     0.222345645146    -0.874339031297     1.007825032230
         H           -1.228896349425    -1.224903354854     0.006205968703     1.007825032230
         H           -1.808750349425     0.221241645146     0.888788968703     1.007825032230
         H            0.200806050575     1.528518445146    -0.293211031297     1.007825032230

  Basis Set: AUG-CC-PVTZ
    Blend: AUG-CC-PVTZ
  Basis Set: (AUG-CC-PVTZ AUX)
    Blend: AUG-CC-PVTZ-JKFIT
	 Reference Energy          =    -152.9694261427375181 [Eh]
	 Singles Energy            =      -0.0000000000000000 [Eh]
	 Same-Spin Energy          =      -0.1447118536697072 [Eh]
	 Opposite-Spin Energy      =      -0.4862322041483770 [Eh]
	 Correlation Energy        =      -0.6309440578180842 [Eh]
	 Total Energy              =    -153.6003702005556022 [Eh]

	 ================> DF-SCS-MP2 Energies <==================
	-----------------------------------------------------------
	 SCS Same-Spin Scale       =       0.3333333333333333 [-]
	 SCS Opposite-Spin Scale   =       1.2000000000000000 [-]
	 SCS Same-Spin Energy      =      -0.0482372845565691 [Eh]
	 SCS Opposite-Spin Energy  =      -0.5834786449780524 [Eh]
	 SCS Correlation Energy    =      -0.6317159295346214 [Eh]
	 SCS Total Energy          =    -153.6011420722721255 [Eh]
	-----------------------------------------------------------

  Dipole Moment: [D]
     X:    -2.5567      Y:     1.0871      Z:    -0.1068     Total:     2.7803

*** Psi4 exiting successfully. Buy a developer a beer!
