                               Psi4 1.3.2 release

  ==> Input File <==

--------------------------------------------------------------------------
#psi4
#
memory 32 gb

molecule  {
0 1
  O        1.2408360    -0.2775280    -0.0000100
  C       -1.1702100    -0.1504720    -0.0000180
  C        0.2261640     0.4062520     0.0000350
  H       -1.7133170     0.2069280    -0.8812060
  H       -1.1329820    -1.2403210    -0.0006610
  H       -1.7128360     0.2058240     0.8819220
  H        0.2967203     1.5131045    -0.2000780
units angstrom
no_reorient  #important for SAPT in psi4, default
symmetry c1  #important for SAPT in psi4, default
}

set PROPERTIES_ORIGIN ["COM"]
properties('MP2/aug-cc-pvtz', properties = ['dipole'])
--------------------------------------------------------------------------

    Molecular point group: c1
  Charge       = 0
  Multiplicity = 1
  Basis Set: AUG-CC-PVTZ
    Blend: AUG-CC-PVTZ
  Basis Set: (AUG-CC-PVTZ AUX)
    Blend: AUG-CC-PVTZ-JKFIT

    Orbital Energies [Eh]
    ---------------------

    Doubly Occupied:

       1A    -20.562490     2A    -11.342417     3A    -11.245537
       4A     -1.386249     5A     -1.022953     6A     -0.799942
       7A     -0.672298     8A     -0.622469     9A     -0.605357
      10A     -0.560875    11A     -0.501397    12A     -0.428156

  @DF-RHF Final Energy:  -152.97262137087139

   => Energetics <=

    Nuclear Repulsion Energy =             69.2830601046679675
    One-Electron Energy =                -345.0110827544897916
    Two-Electron Energy =                 122.7554012789504156
    Total Energy =                       -152.9726213708713942
  Basis Set: (AUG-CC-PVTZ AUX)
    Blend: AUG-CC-PVTZ-RI
    Molecular point group: c1

    Geometry (in Angstrom), charge = 0, multiplicity = 1:

       Center              X                  Y                   Z               Mass
    ------------   -----------------  -----------------  -----------------  -----------------
         O            1.144921652864    -0.262110439553     0.004567821117    15.994914619570
         C           -1.266124347136    -0.135054439553     0.004559821117    12.000000000000
         C            0.130249652864     0.421669560447     0.004612821117    12.000000000000
         H           -1.809231347136     0.222345560447    -0.876628178883     1.007825032230
         H           -1.228896347136    -1.224903439553     0.003916821117     1.007825032230
         H           -1.808750347136     0.221241560447     0.886499821117     1.007825032230
         H            0.200805952864     1.528522060447    -0.195500178883     1.007825032230

  Basis Set: AUG-CC-PVTZ
    Blend: AUG-CC-PVTZ
  Basis Set: (AUG-CC-PVTZ AUX)
    Blend: AUG-CC-PVTZ-JKFIT
	 Reference Energy          =    -152.9726213708713942 [Eh]
	 Singles Energy            =      -0.0000000000000000 [Eh]
	 Same-Spin Energy          =      -0.1445612574226859 [Eh]
	 Opposite-Spin Energy      =      -0.4858253436681134 [Eh]
	 Correlation Energy        =      -0.6303866010907992 [Eh]
	 Total Energy              =    -153.6030079719621995 [Eh]

	 ================> DF-SCS-MP2 Energies <==================
	-----------------------------------------------------------
	 SCS Same-Spin Scale       =       0.3333333333333333 [-]
	 SCS Opposite-Spin Scale   =       1.2000000000000000 [-]
	 SCS Same-Spin Energy      =      -0.0481870858075620 [Eh]
	 SCS Opposite-Spin Energy  =      -0.5829904124017360 [Eh]
	 SCS Correlation Energy    =      -0.6311774982092979 [Eh]
	 SCS Total Energy          =    -153.6037988690806912 [Eh]
	-----------------------------------------------------------

  Dipole Moment: [D]
     X:    -2.5623      Y:     1.1347      Z:    -0.0754     Total:     2.8034

*** Psi4 exiting successfully. Buy a developer a beer!
