                               Psi4 1.3.2 release

  ==> Input File <==

--------------------------------------------------------------------------
#psi4
#
memory 32 gb

molecule  {
0 1
  O        1.2408360    -0.2775280    -0.0000100
  C       -1.1702100    -0.1504720    -0.0000180
  C        0.2261640     0.4062520     0.0000350
  H       -1.7133170     0.2069280    -0.8812060
  H       -1.1329820    -1.2403210    -0.0006610
  H       -1.7128360     0.2058240     0.8819220
  H        0.2967202     1.5131064    -0.1500780
units angstrom
no_reorient  #important for SAPT in psi4, default
symmetry c1  #important for SAPT in psi4, default
}

set PROPERTIES_ORIGIN ["COM"]
properties('MP2/aug-cc-pvtz', properties = ['dipole'])
--------------------------------------------------------------------------

    Molecular point group: c1
  Charge       = 0
  Multiplicity = 1
  Basis Set: AUG-CC-PVTZ
    Blend: AUG-CC-PVTZ
  Basis Set: (AUG-CC-PVTZ AUX)
    Blend: AUG-CC-PVTZ-JKFIT

    Orbital Energies [Eh]
    ---------------------

    Doubly Occupied:

       1A    -20.562098     2A    -11.341572     3A    -11.245323
       4A     -1.385984     5A     -1.022973     6A     -0.801609
       7A     -0.672725     8A     -0.622294     9A     -0.605211
      10A     -0.561103    11A     -0.501248    12A     -0.428592

  @DF-RHF Final Energy:  -152.97366309176522

   => Energetics <=

    Nuclear Repulsion Energy =             69.3101274859233314
    One-Electron Energy =                -345.0661159141205871
    Two-Electron Energy =                 122.7823253364320379
    Total Energy =                       -152.9736630917652178
  Basis Set: (AUG-CC-PVTZ AUX)
    Blend: AUG-CC-PVTZ-RI
    Molecular point group: c1

    Geometry (in Angstrom), charge = 0, multiplicity = 1:

       Center              X                  Y                   Z               Mass
    ------------   -----------------  -----------------  -----------------  -----------------
         O            1.144921655153    -0.262110483046     0.003423247324    15.994914619570
         C           -1.266124344847    -0.135054483046     0.003415247324    12.000000000000
         C            0.130249655153     0.421669516954     0.003468247324    12.000000000000
         H           -1.809231344847     0.222345516954    -0.877772752676     1.007825032230
         H           -1.228896344847    -1.224903483046     0.002772247324     1.007825032230
         H           -1.808750344847     0.221241516954     0.885355247324     1.007825032230
         H            0.200805855153     1.528523916954    -0.146644752676     1.007825032230

  Basis Set: AUG-CC-PVTZ
    Blend: AUG-CC-PVTZ
  Basis Set: (AUG-CC-PVTZ AUX)
    Blend: AUG-CC-PVTZ-JKFIT
	 Reference Energy          =    -152.9736630917652178 [Eh]
	 Singles Energy            =      -0.0000000000000000 [Eh]
	 Same-Spin Energy          =      -0.1445085951326584 [Eh]
	 Opposite-Spin Energy      =      -0.4856859237324341 [Eh]
	 Correlation Energy        =      -0.6301945188650925 [Eh]
	 Total Energy              =    -153.6038576106303140 [Eh]

	 ================> DF-SCS-MP2 Energies <==================
	-----------------------------------------------------------
	 SCS Same-Spin Scale       =       0.3333333333333333 [-]
	 SCS Opposite-Spin Scale   =       1.2000000000000000 [-]
	 SCS Same-Spin Energy      =      -0.0481695317108861 [Eh]
	 SCS Opposite-Spin Energy  =      -0.5828231084789209 [Eh]
	 SCS Correlation Energy    =      -0.6309926401898071 [Eh]
	 SCS Total Energy          =    -153.6046557319550345 [Eh]
	-----------------------------------------------------------

  Dipole Moment: [D]
     X:    -2.5644      Y:     1.1513      Z:    -0.0576     Total:     2.8116

*** Psi4 exiting successfully. Buy a developer a beer!
