                               Psi4 1.3.2 release

  ==> Input File <==

--------------------------------------------------------------------------
#psi4
#
memory 32 gb

molecule  {
0 1
  O        1.2408360    -0.2775280    -0.0000100
  C       -1.1702100    -0.1504720    -0.0000180
  C        0.2261640     0.4062520     0.0000350
  H       -1.7133170     0.2069280    -0.8812060
  H       -1.1329820    -1.2403210    -0.0006610
  H       -1.7128360     0.2058240     0.8819220
  H        0.2967201     1.5131083    -0.1000780
units angstrom
no_reorient  #important for SAPT in psi4, default
symmetry c1  #important for SAPT in psi4, default
}

set PROPERTIES_ORIGIN ["COM"]
properties('MP2/aug-cc-pvtz', properties = ['dipole'])
--------------------------------------------------------------------------

    Molecular point group: c1
  Charge       = 0
  Multiplicity = 1
  Basis Set: AUG-CC-PVTZ
    Blend: AUG-CC-PVTZ
  Basis Set: (AUG-CC-PVTZ AUX)
    Blend: AUG-CC-PVTZ-JKFIT

    Orbital Energies [Eh]
    ---------------------

    Doubly Occupied:

       1A    -20.561819     2A    -11.340964     3A    -11.245172
       4A     -1.385796     5A     -1.022992     6A     -0.802838
       7A     -0.673028     8A     -0.622170     9A     -0.605108
      10A     -0.561268    11A     -0.501143    12A     -0.428899

  @DF-RHF Final Energy:  -152.97437981565426

   => Energetics <=

    Nuclear Repulsion Energy =             69.3297429358429014
    One-Electron Energy =                -345.1058508134996146
    Two-Electron Energy =                 122.8017280620024536
    Total Energy =                       -152.9743798156542880
  Basis Set: (AUG-CC-PVTZ AUX)
    Blend: AUG-CC-PVTZ-RI
    Molecular point group: c1

    Geometry (in Angstrom), charge = 0, multiplicity = 1:

       Center              X                  Y                   Z               Mass
    ------------   -----------------  -----------------  -----------------  -----------------
         O            1.144921657442    -0.262110526540     0.002278673531    15.994914619570
         C           -1.266124342558    -0.135054526540     0.002270673531    12.000000000000
         C            0.130249657442     0.421669473460     0.002323673531    12.000000000000
         H           -1.809231342558     0.222345473460    -0.878917326469     1.007825032230
         H           -1.228896342558    -1.224903526540     0.001627673531     1.007825032230
         H           -1.808750342558     0.221241473460     0.884210673531     1.007825032230
         H            0.200805757442     1.528525773460    -0.097789326469     1.007825032230

  Basis Set: AUG-CC-PVTZ
    Blend: AUG-CC-PVTZ
  Basis Set: (AUG-CC-PVTZ AUX)
    Blend: AUG-CC-PVTZ-JKFIT
	 Reference Energy          =    -152.9743798156542596 [Eh]
	 Singles Energy            =      -0.0000000000000000 [Eh]
	 Same-Spin Energy          =      -0.1444710005646998 [Eh]
	 Opposite-Spin Energy      =      -0.4855874321882875 [Eh]
	 Correlation Energy        =      -0.6300584327529872 [Eh]
	 Total Energy              =    -153.6044382484072344 [Eh]

	 ================> DF-SCS-MP2 Energies <==================
	-----------------------------------------------------------
	 SCS Same-Spin Scale       =       0.3333333333333333 [-]
	 SCS Opposite-Spin Scale   =       1.2000000000000000 [-]
	 SCS Same-Spin Energy      =      -0.0481570001882333 [Eh]
	 SCS Opposite-Spin Energy  =      -0.5827049186259450 [Eh]
	 SCS Correlation Energy    =      -0.6308619188141782 [Eh]
	 SCS Total Energy          =    -153.6052417344684500 [Eh]
	-----------------------------------------------------------

  Dipole Moment: [D]
     X:    -2.5660      Y:     1.1632      Z:    -0.0389     Total:     2.8176

*** Psi4 exiting successfully. Buy a developer a beer!
