                               Psi4 1.3.2 release

  ==> Input File <==

--------------------------------------------------------------------------
#psi4
#
memory 32 gb

molecule  {
-1 1
  O        1.3719500     1.0365520     0.0001530
  O        1.2974920    -1.2070900     0.0002320
  O       -1.5132940    -1.0592330    -0.0003040
  O       -1.2763200     1.2290260    -0.0002110
  C        0.6716346    -0.1528091    -0.3001790
  C       -0.8948800     0.0328190     0.0003190
  H        2.3009280     0.7259580     0.0001900
units angstrom
no_reorient  #important for SAPT in psi4, default
symmetry c1  #important for SAPT in psi4, default
}

set PROPERTIES_ORIGIN ["COM"]
properties('MP2/aug-cc-pvtz', properties = ['dipole'])
--------------------------------------------------------------------------

    Molecular point group: c1
  Charge       = -1
  Multiplicity = 1
  Basis Set: AUG-CC-PVTZ
    Blend: AUG-CC-PVTZ
  Basis Set: (AUG-CC-PVTZ AUX)
    Blend: AUG-CC-PVTZ-JKFIT

    Orbital Energies [Eh]
    ---------------------

    Doubly Occupied:

       1A    -20.454961     2A    -20.406926     3A    -20.331868
       4A    -20.329350     5A    -11.234804     6A    -11.188652
       7A     -1.284100     8A     -1.197078     9A     -1.175377
      10A     -1.104794    11A     -0.723522    12A     -0.564374
      13A     -0.539100    14A     -0.491926    15A     -0.457995
      16A     -0.437603    17A     -0.424403    18A     -0.378546
      19A     -0.327818    20A     -0.316350    21A     -0.246934
      22A     -0.230685    23A     -0.221531

  @DF-RHF Final Energy:  -375.92956721275607

   => Energetics <=

    Nuclear Repulsion Energy =            216.7293329871615413
    One-Electron Energy =                -957.1804069588628181
    Two-Electron Energy =                 364.5215067589451792
    Total Energy =                       -375.9295672127560692
  Basis Set: (AUG-CC-PVTZ AUX)
    Blend: AUG-CC-PVTZ-RI
    Molecular point group: c1

    Geometry (in Angstrom), charge = -1, multiplicity = 1:

       Center              X                  Y                   Z               Mass
    ------------   -----------------  -----------------  -----------------  -----------------
         O            1.397595773471     1.044644809665     0.040610463343    15.994914619570
         O            1.323137773471    -1.198997190335     0.040689463343    15.994914619570
         O           -1.487648226529    -1.051140190335     0.040153463343    15.994914619570
         O           -1.250674226529     1.237118809665     0.040246463343    15.994914619570
         C            0.697280373471    -0.144716290335    -0.259721536657    12.000000000000
         C           -0.869234226529     0.040911809665     0.040776463343    12.000000000000
         H            2.326573773471     0.734050809665     0.040647463343     1.007825032230

  Basis Set: AUG-CC-PVTZ
    Blend: AUG-CC-PVTZ
  Basis Set: (AUG-CC-PVTZ AUX)
    Blend: AUG-CC-PVTZ-JKFIT
	 Reference Energy          =    -375.9295672127560692 [Eh]
	 Singles Energy            =      -0.0000000000000000 [Eh]
	 Same-Spin Energy          =      -0.3619000254977414 [Eh]
	 Opposite-Spin Energy      =      -1.0250234356440773 [Eh]
	 Correlation Energy        =      -1.3869234611418186 [Eh]
	 Total Energy              =    -377.3164906738978743 [Eh]

	 ================> DF-SCS-MP2 Energies <==================
	-----------------------------------------------------------
	 SCS Same-Spin Scale       =       0.3333333333333333 [-]
	 SCS Opposite-Spin Scale   =       1.2000000000000000 [-]
	 SCS Same-Spin Energy      =      -0.1206333418325805 [Eh]
	 SCS Opposite-Spin Energy  =      -1.2300281227728926 [Eh]
	 SCS Correlation Energy    =      -1.3506614646054731 [Eh]
	 SCS Total Energy          =    -377.2802286773615492 [Eh]
	-----------------------------------------------------------

  Dipole Moment: [D]
     X:     4.6337      Y:     0.6681      Z:    -0.5377     Total:     4.7124

*** Psi4 exiting successfully. Buy a developer a beer!
