                               Psi4 1.3.2 release

  ==> Input File <==

--------------------------------------------------------------------------
#psi4
#
memory 32 gb

molecule  {
-1 1
  O        1.3719500     1.0365520     0.0001530
  O        1.2974920    -1.2070900     0.0002320
  O       -1.5132940    -1.0592330    -0.0003040
  O       -1.2763200     1.2290260    -0.0002110
  C        0.6716220    -0.1528200    -0.0001790
  C       -0.8948946     0.0328107    -0.2496810
  H        2.3009280     0.7259580     0.0001900
units angstrom
no_reorient  #important for SAPT in psi4, default
symmetry c1  #important for SAPT in psi4, default
}

set PROPERTIES_ORIGIN ["COM"]
properties('MP2/aug-cc-pvtz', properties = ['dipole'])
--------------------------------------------------------------------------

    Molecular point group: c1
  Charge       = -1
  Multiplicity = 1
  Basis Set: AUG-CC-PVTZ
    Blend: AUG-CC-PVTZ
  Basis Set: (AUG-CC-PVTZ AUX)
    Blend: AUG-CC-PVTZ-JKFIT

    Orbital Energies [Eh]
    ---------------------

    Doubly Occupied:

       1A    -20.462234     2A    -20.403109     3A    -20.329981
       4A    -20.328086     5A    -11.234022     6A    -11.186196
       7A     -1.302463     8A     -1.196944     9A     -1.181770
      10A     -1.086054    11A     -0.728052    12A     -0.577943
      13A     -0.548398    14A     -0.494321    15A     -0.470414
      16A     -0.437687    17A     -0.414315    18A     -0.369173
      19A     -0.332376    20A     -0.327747    21A     -0.240851
      22A     -0.227549    23A     -0.211005

  @DF-RHF Final Energy:  -375.93605717072137

   => Energetics <=

    Nuclear Repulsion Energy =            217.1209131182741601
    One-Electron Energy =                -957.9325648607672292
    Two-Electron Energy =                 364.8755945717716713
    Total Energy =                       -375.9360571707213694
  Basis Set: (AUG-CC-PVTZ AUX)
    Blend: AUG-CC-PVTZ-RI
    Molecular point group: c1

    Geometry (in Angstrom), charge = -1, multiplicity = 1:

       Center              X                  Y                   Z               Mass
    ------------   -----------------  -----------------  -----------------  -----------------
         O            1.397599441403     1.044647398793     0.033867942077    15.994914619570
         O            1.323141441403    -1.198994601207     0.033946942077    15.994914619570
         O           -1.487644558597    -1.051137601207     0.033410942077    15.994914619570
         O           -1.250670558597     1.237121398793     0.033503942077    15.994914619570
         C            0.697271441403    -0.144724601207     0.033535942077    12.000000000000
         C           -0.869245158597     0.040906098793    -0.215966057923    12.000000000000
         H            2.326577441403     0.734053398793     0.033904942077     1.007825032230

  Basis Set: AUG-CC-PVTZ
    Blend: AUG-CC-PVTZ
  Basis Set: (AUG-CC-PVTZ AUX)
    Blend: AUG-CC-PVTZ-JKFIT
	 Reference Energy          =    -375.9360571707213694 [Eh]
	 Singles Energy            =      -0.0000000000000000 [Eh]
	 Same-Spin Energy          =      -0.3611596260245357 [Eh]
	 Opposite-Spin Energy      =      -1.0233047913518014 [Eh]
	 Correlation Energy        =      -1.3844644173763372 [Eh]
	 Total Energy              =    -377.3205215880977335 [Eh]

	 ================> DF-SCS-MP2 Energies <==================
	-----------------------------------------------------------
	 SCS Same-Spin Scale       =       0.3333333333333333 [-]
	 SCS Opposite-Spin Scale   =       1.2000000000000000 [-]
	 SCS Same-Spin Energy      =      -0.1203865420081786 [Eh]
	 SCS Opposite-Spin Energy  =      -1.2279657496221617 [Eh]
	 SCS Correlation Energy    =      -1.3483522916303403 [Eh]
	 SCS Total Energy          =    -377.2844094623517321 [Eh]
	-----------------------------------------------------------

  Dipole Moment: [D]
     X:     5.0750      Y:     0.7358      Z:    -0.2646     Total:     5.1349

*** Psi4 exiting successfully. Buy a developer a beer!
