                               Psi4 1.3.2 release

  ==> Input File <==

--------------------------------------------------------------------------
#psi4
#
memory 32 gb

molecule  {
-1 1
  O        1.3719500     1.0365520     0.0001530
  O        1.2974920    -1.2070900     0.0002320
  O       -1.5132940    -1.0592330    -0.0003040
  O       -1.2763200     1.2290260    -0.0002110
  C        0.6716220    -0.1528200    -0.0001790
  C       -0.8948858     0.0328157    -0.0996810
  H        2.3009280     0.7259580     0.0001900
units angstrom
no_reorient  #important for SAPT in psi4, default
symmetry c1  #important for SAPT in psi4, default
}

set PROPERTIES_ORIGIN ["COM"]
properties('MP2/aug-cc-pvtz', properties = ['dipole'])
--------------------------------------------------------------------------

    Molecular point group: c1
  Charge       = -1
  Multiplicity = 1
  Basis Set: AUG-CC-PVTZ
    Blend: AUG-CC-PVTZ
  Basis Set: (AUG-CC-PVTZ AUX)
    Blend: AUG-CC-PVTZ-JKFIT

    Orbital Energies [Eh]
    ---------------------

    Doubly Occupied:

       1A    -20.461826     2A    -20.402713     3A    -20.327185
       4A    -20.325016     5A    -11.230149     6A    -11.179548
       7A     -1.302323     8A     -1.197596     9A     -1.190049
      10A     -1.098358    11A     -0.732135    12A     -0.578269
      13A     -0.548104    14A     -0.494946    15A     -0.470566
      16A     -0.441998    17A     -0.420969    18A     -0.375340
      19A     -0.332880    20A     -0.328252    21A     -0.242809
      22A     -0.229583    23A     -0.216638

  @DF-RHF Final Energy:  -375.96324837806321

   => Energetics <=

    Nuclear Repulsion Energy =            217.9819929382420014
    One-Electron Energy =                -959.6359770110331056
    Two-Electron Energy =                 365.6907356947278913
    Total Energy =                       -375.9632483780632128
  Basis Set: (AUG-CC-PVTZ AUX)
    Blend: AUG-CC-PVTZ-RI
    Molecular point group: c1

    Geometry (in Angstrom), charge = -1, multiplicity = 1:

       Center              X                  Y                   Z               Mass
    ------------   -----------------  -----------------  -----------------  -----------------
         O            1.397598254719     1.044646724541     0.013640378278    15.994914619570
         O            1.323140254719    -1.198995275459     0.013719378278    15.994914619570
         O           -1.487645745281    -1.051138275459     0.013183378278    15.994914619570
         O           -1.250671745281     1.237120724541     0.013276378278    15.994914619570
         C            0.697270254719    -0.144725275459     0.013308378278    12.000000000000
         C           -0.869237545281     0.040910424541    -0.086193621722    12.000000000000
         H            2.326576254719     0.734052724541     0.013677378278     1.007825032230

  Basis Set: AUG-CC-PVTZ
    Blend: AUG-CC-PVTZ
  Basis Set: (AUG-CC-PVTZ AUX)
    Blend: AUG-CC-PVTZ-JKFIT
	 Reference Energy          =    -375.9632483780632128 [Eh]
	 Singles Energy            =      -0.0000000000000000 [Eh]
	 Same-Spin Energy          =      -0.3591566599794360 [Eh]
	 Opposite-Spin Energy      =      -1.0183472890540257 [Eh]
	 Correlation Energy        =      -1.3775039490334617 [Eh]
	 Total Energy              =    -377.3407523270966522 [Eh]

	 ================> DF-SCS-MP2 Energies <==================
	-----------------------------------------------------------
	 SCS Same-Spin Scale       =       0.3333333333333333 [-]
	 SCS Opposite-Spin Scale   =       1.2000000000000000 [-]
	 SCS Same-Spin Energy      =      -0.1197188866598120 [Eh]
	 SCS Opposite-Spin Energy  =      -1.2220167468648309 [Eh]
	 SCS Correlation Energy    =      -1.3417356335246429 [Eh]
	 SCS Total Energy          =    -377.3049840115878624 [Eh]
	-----------------------------------------------------------

  Dipole Moment: [D]
     X:     5.0412      Y:     0.7491      Z:    -0.1166     Total:     5.0978

*** Psi4 exiting successfully. Buy a developer a beer!
