                               Psi4 1.3.2 release

  ==> Input File <==

--------------------------------------------------------------------------
#psi4
#
memory 32 gb

molecule  {
-1 1
  O        1.3719500     1.0365520     0.0001530
  O        1.2974920    -1.2070900     0.0002320
  O       -1.5132940    -1.0592330    -0.0003040
  O       -1.2763200     1.2290260    -0.0002110
  C        0.6716220    -0.1528200    -0.0001790
  C       -0.8948829     0.0328173    -0.0496810
  H        2.3009280     0.7259580     0.0001900
units angstrom
no_reorient  #important for SAPT in psi4, default
symmetry c1  #important for SAPT in psi4, default
}

set PROPERTIES_ORIGIN ["COM"]
properties('MP2/aug-cc-pvtz', properties = ['dipole'])
--------------------------------------------------------------------------

    Molecular point group: c1
  Charge       = -1
  Multiplicity = 1
  Basis Set: AUG-CC-PVTZ
    Blend: AUG-CC-PVTZ
  Basis Set: (AUG-CC-PVTZ AUX)
    Blend: AUG-CC-PVTZ-JKFIT

    Orbital Energies [Eh]
    ---------------------

    Doubly Occupied:

       1A    -20.461773     2A    -20.402664     3A    -20.326777
       4A    -20.324569     5A    -11.229589     6A    -11.178528
       7A     -1.302311     8A     -1.197890     9A     -1.191043
      10A     -1.100199    11A     -0.732749    12A     -0.578326
      13A     -0.548067    14A     -0.495045    15A     -0.470587
      16A     -0.442623    17A     -0.421907    18A     -0.376273
      19A     -0.332969    20A     -0.328301    21A     -0.243096
      22A     -0.229890    23A     -0.217494

  @DF-RHF Final Energy:  -375.96710602462008

   => Energetics <=

    Nuclear Repulsion Energy =            218.1075409755490853
    One-Electron Energy =                -959.8839573648607484
    Two-Electron Energy =                 365.8093103646915552
    Total Energy =                       -375.9671060246200796
  Basis Set: (AUG-CC-PVTZ AUX)
    Blend: AUG-CC-PVTZ-RI
    Molecular point group: c1

    Geometry (in Angstrom), charge = -1, multiplicity = 1:

       Center              X                  Y                   Z               Mass
    ------------   -----------------  -----------------  -----------------  -----------------
         O            1.397597863653     1.044646508781     0.006897857012    15.994914619570
         O            1.323139863653    -1.198995491219     0.006976857012    15.994914619570
         O           -1.487646136347    -1.051138491219     0.006440857012    15.994914619570
         O           -1.250672136347     1.237120508781     0.006533857012    15.994914619570
         C            0.697269863653    -0.144725491219     0.006565857012    12.000000000000
         C           -0.869235036347     0.040911808781    -0.042936142988    12.000000000000
         H            2.326575863653     0.734052508781     0.006934857012     1.007825032230

  Basis Set: AUG-CC-PVTZ
    Blend: AUG-CC-PVTZ
  Basis Set: (AUG-CC-PVTZ AUX)
    Blend: AUG-CC-PVTZ-JKFIT
	 Reference Energy          =    -375.9671060246200796 [Eh]
	 Singles Energy            =      -0.0000000000000000 [Eh]
	 Same-Spin Energy          =      -0.3588708250332404 [Eh]
	 Opposite-Spin Energy      =      -1.0176898174743925 [Eh]
	 Correlation Energy        =      -1.3765606425076329 [Eh]
	 Total Energy              =    -377.3436666671277067 [Eh]

	 ================> DF-SCS-MP2 Energies <==================
	-----------------------------------------------------------
	 SCS Same-Spin Scale       =       0.3333333333333333 [-]
	 SCS Opposite-Spin Scale   =       1.2000000000000000 [-]
	 SCS Same-Spin Energy      =      -0.1196236083444135 [Eh]
	 SCS Opposite-Spin Energy  =      -1.2212277809692709 [Eh]
	 SCS Correlation Energy    =      -1.3408513893136844 [Eh]
	 SCS Total Energy          =    -377.3079574139337637 [Eh]
	-----------------------------------------------------------

  Dipole Moment: [D]
     X:     5.0368      Y:     0.7510      Z:    -0.0588     Total:     5.0928

*** Psi4 exiting successfully. Buy a developer a beer!
