                               Psi4 1.3.2 release

  ==> Input File <==

--------------------------------------------------------------------------
#psi4
#
memory 32 gb

molecule  {
-1 1
  O        1.3719500     1.0365520     0.0001530
  O        1.2974920    -1.2070900     0.0002320
  O       -1.5132940    -1.0592330    -0.0003040
  O       -1.2763200     1.2290260    -0.0002110
  C        0.6716325    -0.1528109    -0.2501790
  C       -0.8948800     0.0328190     0.0003190
  H        2.3009280     0.7259580     0.0001900
units angstrom
no_reorient  #important for SAPT in psi4, default
symmetry c1  #important for SAPT in psi4, default
}

set PROPERTIES_ORIGIN ["COM"]
properties('MP2/aug-cc-pvtz', properties = ['dipole'])
--------------------------------------------------------------------------

    Molecular point group: c1
  Charge       = -1
  Multiplicity = 1
  Basis Set: AUG-CC-PVTZ
    Blend: AUG-CC-PVTZ
  Basis Set: (AUG-CC-PVTZ AUX)
    Blend: AUG-CC-PVTZ-JKFIT

    Orbital Energies [Eh]
    ---------------------

    Doubly Occupied:

       1A    -20.457114     2A    -20.405694     3A    -20.330145
       4A    -20.327724     5A    -11.233399     6A    -11.185430
       7A     -1.289572     8A     -1.196273     9A     -1.181025
      10A     -1.103495    11A     -0.726324    12A     -0.568357
      13A     -0.541873    14A     -0.492866    15A     -0.461630
      16A     -0.439191    17A     -0.423780    18A     -0.377904
      19A     -0.329402    20A     -0.319858    21A     -0.245721
      22A     -0.230420    23A     -0.220297

  @DF-RHF Final Energy:  -375.94131973547366

   => Energetics <=

    Nuclear Repulsion Energy =            217.1524120858488516
    One-Electron Energy =                -958.0124824755052941
    Two-Electron Energy =                 364.9187506541828157
    Total Energy =                       -375.9413197354736553
  Basis Set: (AUG-CC-PVTZ AUX)
    Blend: AUG-CC-PVTZ-RI
    Molecular point group: c1

    Geometry (in Angstrom), charge = -1, multiplicity = 1:

       Center              X                  Y                   Z               Mass
    ------------   -----------------  -----------------  -----------------  -----------------
         O            1.397596056657     1.044645052396     0.033867942077    15.994914619570
         O            1.323138056657    -1.198996947604     0.033946942077    15.994914619570
         O           -1.487647943343    -1.051139947604     0.033410942077    15.994914619570
         O           -1.250673943343     1.237119052396     0.033503942077    15.994914619570
         C            0.697278556657    -0.144717847604    -0.216464057923    12.000000000000
         C           -0.869233943343     0.040912052396     0.034033942077    12.000000000000
         H            2.326574056657     0.734051052396     0.033904942077     1.007825032230

  Basis Set: AUG-CC-PVTZ
    Blend: AUG-CC-PVTZ
  Basis Set: (AUG-CC-PVTZ AUX)
    Blend: AUG-CC-PVTZ-JKFIT
	 Reference Energy          =    -375.9413197354736553 [Eh]
	 Singles Energy            =      -0.0000000000000000 [Eh]
	 Same-Spin Energy          =      -0.3609365150610087 [Eh]
	 Opposite-Spin Energy      =      -1.0226312427960622 [Eh]
	 Correlation Energy        =      -1.3835677578570709 [Eh]
	 Total Energy              =    -377.3248874933307206 [Eh]

	 ================> DF-SCS-MP2 Energies <==================
	-----------------------------------------------------------
	 SCS Same-Spin Scale       =       0.3333333333333333 [-]
	 SCS Opposite-Spin Scale   =       1.2000000000000000 [-]
	 SCS Same-Spin Energy      =      -0.1203121716870029 [Eh]
	 SCS Opposite-Spin Energy  =      -1.2271574913552745 [Eh]
	 SCS Correlation Energy    =      -1.3474696630422773 [Eh]
	 SCS Total Energy          =    -377.2887893985159167 [Eh]
	-----------------------------------------------------------

  Dipole Moment: [D]
     X:     4.7632      Y:     0.6928      Z:    -0.4673     Total:     4.8359

*** Psi4 exiting successfully. Buy a developer a beer!
