                               Psi4 1.3.2 release

  ==> Input File <==

--------------------------------------------------------------------------
#psi4
#
memory 32 gb

molecule  {
-1 1
  O        1.3719500     1.0365520     0.0001530
  O        1.2974920    -1.2070900     0.0002320
  O       -1.5132940    -1.0592330    -0.0003040
  O       -1.2763200     1.2290260    -0.0002110
  C        0.6716241    -0.1528182    -0.0501790
  C       -0.8948800     0.0328190     0.0003190
  H        2.3009280     0.7259580     0.0001900
units angstrom
no_reorient  #important for SAPT in psi4, default
symmetry c1  #important for SAPT in psi4, default
}

set PROPERTIES_ORIGIN ["COM"]
properties('MP2/aug-cc-pvtz', properties = ['dipole'])
--------------------------------------------------------------------------

    Molecular point group: c1
  Charge       = -1
  Multiplicity = 1
  Basis Set: AUG-CC-PVTZ
    Blend: AUG-CC-PVTZ
  Basis Set: (AUG-CC-PVTZ AUX)
    Blend: AUG-CC-PVTZ-JKFIT

    Orbital Energies [Eh]
    ---------------------

    Doubly Occupied:

       1A    -20.461576     2A    -20.402778     3A    -20.326773
       4A    -20.324543     5A    -11.229588     6A    -11.178478
       7A     -1.301784     8A     -1.197651     9A     -1.191187
      10A     -1.100908    11A     -0.732676    12A     -0.577917
      13A     -0.547809    14A     -0.494984    15A     -0.470212
      16A     -0.442684    17A     -0.422277    18A     -0.376630
      19A     -0.332857    20A     -0.327954    21A     -0.243287
      22A     -0.230001    23A     -0.217872

  @DF-RHF Final Energy:  -375.96726431830376

   => Energetics <=

    Nuclear Repulsion Energy =            218.1077370366076593
    One-Electron Energy =                -959.8851465881115246
    Two-Electron Energy =                 365.8101452332001031
    Total Energy =                       -375.9672643183037621
  Basis Set: (AUG-CC-PVTZ AUX)
    Blend: AUG-CC-PVTZ-RI
    Molecular point group: c1

    Geometry (in Angstrom), charge = -1, multiplicity = 1:

       Center              X                  Y                   Z               Mass
    ------------   -----------------  -----------------  -----------------  -----------------
         O            1.397597189401     1.044646036804     0.006897857012    15.994914619570
         O            1.323139189401    -1.198995963196     0.006976857012    15.994914619570
         O           -1.487646810599    -1.051138963196     0.006440857012    15.994914619570
         O           -1.250672810599     1.237120036804     0.006533857012    15.994914619570
         C            0.697271289401    -0.144724163196    -0.043434142988    12.000000000000
         C           -0.869232810599     0.040913036804     0.007063857012    12.000000000000
         H            2.326575189401     0.734052036804     0.006934857012     1.007825032230

  Basis Set: AUG-CC-PVTZ
    Blend: AUG-CC-PVTZ
  Basis Set: (AUG-CC-PVTZ AUX)
    Blend: AUG-CC-PVTZ-JKFIT
	 Reference Energy          =    -375.9672643183037621 [Eh]
	 Singles Energy            =      -0.0000000000000000 [Eh]
	 Same-Spin Energy          =      -0.3588636426495745 [Eh]
	 Opposite-Spin Energy      =      -1.0176641431431106 [Eh]
	 Correlation Energy        =      -1.3765277857926852 [Eh]
	 Total Energy              =    -377.3437921040964511 [Eh]

	 ================> DF-SCS-MP2 Energies <==================
	-----------------------------------------------------------
	 SCS Same-Spin Scale       =       0.3333333333333333 [-]
	 SCS Opposite-Spin Scale   =       1.2000000000000000 [-]
	 SCS Same-Spin Energy      =      -0.1196212142165248 [Eh]
	 SCS Opposite-Spin Energy  =      -1.2211969717717326 [Eh]
	 SCS Correlation Energy    =      -1.3408181859882575 [Eh]
	 SCS Total Energy          =    -377.3080825042920310 [Eh]
	-----------------------------------------------------------

  Dipole Moment: [D]
     X:     5.0249      Y:     0.7493      Z:    -0.1015     Total:     5.0815

*** Psi4 exiting successfully. Buy a developer a beer!
