                               Psi4 1.3.2 release

  ==> Input File <==

--------------------------------------------------------------------------
#psi4
#
memory 32 gb

molecule  {
-1 1
  O        1.3719500     1.0365520     0.0001530
  O        1.2974920    -1.2070900     0.0002320
  O       -1.5132940    -1.0592330    -0.0003040
  O       -1.2763200     1.2290260    -0.0002110
  C        0.6716220    -0.1528200    -0.0001790
  C       -0.8948888     0.0328140    -0.1496810
  H        2.3009280     0.7259580     0.0001900
units angstrom
no_reorient  #important for SAPT in psi4, default
symmetry c1  #important for SAPT in psi4, default
}

set PROPERTIES_ORIGIN ["COM"]
properties('MP2/aug-cc-pvtz', properties = ['dipole'])
--------------------------------------------------------------------------

    Molecular point group: c1
  Charge       = -1
  Multiplicity = 1
  Basis Set: AUG-CC-PVTZ
    Blend: AUG-CC-PVTZ
  Basis Set: (AUG-CC-PVTZ AUX)
    Blend: AUG-CC-PVTZ-JKFIT

    Orbital Energies [Eh]
    ---------------------

    Doubly Occupied:

       1A    -20.461917     2A    -20.402798     3A    -20.327862
       4A    -20.325757     5A    -11.231080     6A    -11.181210
       7A     -1.302349     8A     -1.197276     9A     -1.188225
      10A     -1.095331    11A     -0.731129    12A     -0.578181
      13A     -0.548168    14A     -0.494787    15A     -0.470531
      16A     -0.440962    17A     -0.419394    18A     -0.373811
      19A     -0.332742    20A     -0.328159    21A     -0.242333
      22A     -0.229081    23A     -0.215239

  @DF-RHF Final Energy:  -375.95679132729458

   => Energetics <=

    Nuclear Repulsion Energy =            217.7738786347801749
    One-Electron Energy =                -959.2246978031221261
    Two-Electron Energy =                 365.4940278410473411
    Total Energy =                       -375.9567913272945816
  Basis Set: (AUG-CC-PVTZ AUX)
    Blend: AUG-CC-PVTZ-RI
    Molecular point group: c1

    Geometry (in Angstrom), charge = -1, multiplicity = 1:

       Center              X                  Y                   Z               Mass
    ------------   -----------------  -----------------  -----------------  -----------------
         O            1.397598659271     1.044646953787     0.020382899545    15.994914619570
         O            1.323140659271    -1.198995046213     0.020461899545    15.994914619570
         O           -1.487645340729    -1.051138046213     0.019925899545    15.994914619570
         O           -1.250671340729     1.237120953787     0.020018899545    15.994914619570
         C            0.697270659271    -0.144725046213     0.020050899545    12.000000000000
         C           -0.869240140729     0.040908953787    -0.129451100455    12.000000000000
         H            2.326576659271     0.734052953787     0.020419899545     1.007825032230

  Basis Set: AUG-CC-PVTZ
    Blend: AUG-CC-PVTZ
  Basis Set: (AUG-CC-PVTZ AUX)
    Blend: AUG-CC-PVTZ-JKFIT
	 Reference Energy          =    -375.9567913272945816 [Eh]
	 Singles Energy            =      -0.0000000000000000 [Eh]
	 Same-Spin Energy          =      -0.3596340867303320 [Eh]
	 Opposite-Spin Energy      =      -1.0194954654595600 [Eh]
	 Correlation Energy        =      -1.3791295521898921 [Eh]
	 Total Energy              =    -377.3359208794844903 [Eh]

	 ================> DF-SCS-MP2 Energies <==================
	-----------------------------------------------------------
	 SCS Same-Spin Scale       =       0.3333333333333333 [-]
	 SCS Opposite-Spin Scale   =       1.2000000000000000 [-]
	 SCS Same-Spin Energy      =      -0.1198780289101107 [Eh]
	 SCS Opposite-Spin Energy  =      -1.2233945585514721 [Eh]
	 SCS Correlation Energy    =      -1.3432725874615827 [Eh]
	 SCS Total Energy          =    -377.3000639147561515 [Eh]
	-----------------------------------------------------------

  Dipole Moment: [D]
     X:     5.0487      Y:     0.7460      Z:    -0.1711     Total:     5.1064

*** Psi4 exiting successfully. Buy a developer a beer!
