                               Psi4 1.3.2 release

  ==> Input File <==

--------------------------------------------------------------------------
#psi4
#
memory 32 gb

molecule  {
-1 1
  O        1.3719500     1.0365520     0.0001530
  O        1.2974920    -1.2070900     0.0002320
  O       -1.5132940    -1.0592330    -0.0003040
  O       -1.2763200     1.2290260    -0.0002110
  C        0.6716220    -0.1528200    -0.0001790
  C       -0.8948917     0.0328123    -0.1996810
  H        2.3009280     0.7259580     0.0001900
units angstrom
no_reorient  #important for SAPT in psi4, default
symmetry c1  #important for SAPT in psi4, default
}

set PROPERTIES_ORIGIN ["COM"]
properties('MP2/aug-cc-pvtz', properties = ['dipole'])
--------------------------------------------------------------------------

    Molecular point group: c1
  Charge       = -1
  Multiplicity = 1
  Basis Set: AUG-CC-PVTZ
    Blend: AUG-CC-PVTZ
  Basis Set: (AUG-CC-PVTZ AUX)
    Blend: AUG-CC-PVTZ-JKFIT

    Orbital Energies [Eh]
    ---------------------

    Doubly Occupied:

       1A    -20.462051     2A    -20.402927     3A    -20.328797
       4A    -20.326784     5A    -11.232375     6A    -11.183454
       7A     -1.302393     8A     -1.197046     9A     -1.185470
      10A     -1.091195    11A     -0.729756    12A     -0.578068
      13A     -0.548265    14A     -0.494574    15A     -0.470480
      16A     -0.439521    17A     -0.417178    18A     -0.371733
      19A     -0.332567    20A     -0.328001    21A     -0.241676
      22A     -0.228396    23A     -0.213343

  @DF-RHF Final Energy:  -375.94772789978452

   => Energetics <=

    Nuclear Repulsion Energy =            217.4857173773948205
    One-Electron Energy =                -958.6547885520477621
    Two-Electron Energy =                 365.2213432748683886
    Total Energy =                       -375.9477278997845247
  Basis Set: (AUG-CC-PVTZ AUX)
    Blend: AUG-CC-PVTZ-RI
    Molecular point group: c1

    Geometry (in Angstrom), charge = -1, multiplicity = 1:

       Center              X                  Y                   Z               Mass
    ------------   -----------------  -----------------  -----------------  -----------------
         O            1.397599050337     1.044647183033     0.027125420811    15.994914619570
         O            1.323141050337    -1.198994816967     0.027204420811    15.994914619570
         O           -1.487644949663    -1.051137816967     0.026668420811    15.994914619570
         O           -1.250670949663     1.237121183033     0.026761420811    15.994914619570
         C            0.697271050337    -0.144724816967     0.026793420811    12.000000000000
         C           -0.869242649663     0.040907483033    -0.172708579189    12.000000000000
         H            2.326577050337     0.734053183033     0.027162420811     1.007825032230

  Basis Set: AUG-CC-PVTZ
    Blend: AUG-CC-PVTZ
  Basis Set: (AUG-CC-PVTZ AUX)
    Blend: AUG-CC-PVTZ-JKFIT
	 Reference Energy          =    -375.9477278997845247 [Eh]
	 Singles Energy            =      -0.0000000000000000 [Eh]
	 Same-Spin Energy          =      -0.3603022890923530 [Eh]
	 Opposite-Spin Energy      =      -1.0211464018114382 [Eh]
	 Correlation Energy        =      -1.3814486909037913 [Eh]
	 Total Energy              =    -377.3291765906882915 [Eh]

	 ================> DF-SCS-MP2 Energies <==================
	-----------------------------------------------------------
	 SCS Same-Spin Scale       =       0.3333333333333333 [-]
	 SCS Opposite-Spin Scale   =       1.2000000000000000 [-]
	 SCS Same-Spin Energy      =      -0.1201007630307843 [Eh]
	 SCS Opposite-Spin Energy  =      -1.2253756821737258 [Eh]
	 SCS Correlation Energy    =      -1.3454764452045103 [Eh]
	 SCS Total Energy          =    -377.2932043449890216 [Eh]
	-----------------------------------------------------------

  Dipole Moment: [D]
     X:     5.0598      Y:     0.7416      Z:    -0.2209     Total:     5.1186

*** Psi4 exiting successfully. Buy a developer a beer!
