                               Psi4 1.3.2 release

  ==> Input File <==

--------------------------------------------------------------------------
#psi4
#
memory 32 gb

molecule  {
-1 1
  O        1.3719500     1.0365520     0.0001530
  O        1.2974920    -1.2070900     0.0002320
  O       -1.5132940    -1.0592330    -0.0003040
  O       -1.2763200     1.2290260    -0.0002110
  C        0.6716283    -0.1528146    -0.1501790
  C       -0.8948800     0.0328190     0.0003190
  H        2.3009280     0.7259580     0.0001900
units angstrom
no_reorient  #important for SAPT in psi4, default
symmetry c1  #important for SAPT in psi4, default
}

set PROPERTIES_ORIGIN ["COM"]
properties('MP2/aug-cc-pvtz', properties = ['dipole'])
--------------------------------------------------------------------------

    Molecular point group: c1
  Charge       = -1
  Multiplicity = 1
  Basis Set: AUG-CC-PVTZ
    Blend: AUG-CC-PVTZ
  Basis Set: (AUG-CC-PVTZ AUX)
    Blend: AUG-CC-PVTZ-JKFIT

    Orbital Energies [Eh]
    ---------------------

    Doubly Occupied:

       1A    -20.460123     2A    -20.403785     3A    -20.327838
       4A    -20.325548     5A    -11.230978     6A    -11.180784
       7A     -1.297670     8A     -1.196041     9A     -1.188792
      10A     -1.101732    11A     -0.730519    12A     -0.574602
      13A     -0.545849    14A     -0.494258    15A     -0.467251
      16A     -0.441535    17A     -0.422781    18A     -0.377031
      19A     -0.331713    20A     -0.325169    21A     -0.244065
      22A     -0.230115    23A     -0.218639

  @DF-RHF Final Energy:  -375.95857111149155

   => Energetics <=

    Nuclear Repulsion Energy =            217.7840097709470513
    One-Electron Energy =                -959.2515278082792065
    Two-Electron Energy =                 365.5089469258406325
    Total Energy =                       -375.9585711114915512
  Basis Set: (AUG-CC-PVTZ AUX)
    Blend: AUG-CC-PVTZ-RI
    Molecular point group: c1

    Geometry (in Angstrom), charge = -1, multiplicity = 1:

       Center              X                  Y                   Z               Mass
    ------------   -----------------  -----------------  -----------------  -----------------
         O            1.397596623029     1.044645551343     0.020382899545    15.994914619570
         O            1.323138623029    -1.198996448657     0.020461899545    15.994914619570
         O           -1.487647376971    -1.051139448657     0.019925899545    15.994914619570
         O           -1.250673376971     1.237119551343     0.020018899545    15.994914619570
         C            0.697274923029    -0.144721048657    -0.129949100455    12.000000000000
         C           -0.869233376971     0.040912551343     0.020548899545    12.000000000000
         H            2.326574623029     0.734051551343     0.020419899545     1.007825032230

  Basis Set: AUG-CC-PVTZ
    Blend: AUG-CC-PVTZ
  Basis Set: (AUG-CC-PVTZ AUX)
    Blend: AUG-CC-PVTZ-JKFIT
	 Reference Energy          =    -375.9585711114915512 [Eh]
	 Singles Energy            =      -0.0000000000000000 [Eh]
	 Same-Spin Energy          =      -0.3595499519317631 [Eh]
	 Opposite-Spin Energy      =      -1.0192392160790487 [Eh]
	 Correlation Energy        =      -1.3787891680108117 [Eh]
	 Total Energy              =    -377.3373602795023771 [Eh]

	 ================> DF-SCS-MP2 Energies <==================
	-----------------------------------------------------------
	 SCS Same-Spin Scale       =       0.3333333333333333 [-]
	 SCS Opposite-Spin Scale   =       1.2000000000000000 [-]
	 SCS Same-Spin Energy      =      -0.1198499839772544 [Eh]
	 SCS Opposite-Spin Energy  =      -1.2230870592948584 [Eh]
	 SCS Correlation Energy    =      -1.3429370432721128 [Eh]
	 SCS Total Energy          =    -377.3015081547636669 [Eh]
	-----------------------------------------------------------

  Dipole Moment: [D]
     X:     4.9407      Y:     0.7301      Z:    -0.2971     Total:     5.0032

*** Psi4 exiting successfully. Buy a developer a beer!
