                               Psi4 1.3.2 release

  ==> Input File <==

--------------------------------------------------------------------------
#psi4
#
memory 32 gb

molecule  {
-1 1
  O        1.3719500     1.0365520     0.0001530
  O        1.2974920    -1.2070900     0.0002320
  O       -1.5132940    -1.0592330    -0.0003040
  O       -1.2763200     1.2290260    -0.0002110
  C        0.6716220    -0.1528200    -0.0001790
  C       -0.8948800     0.0328190     0.0003190
  H        2.3009280     0.7259580     0.0001900
units angstrom
no_reorient  #important for SAPT in psi4, default
symmetry c1  #important for SAPT in psi4, default
}

set PROPERTIES_ORIGIN ["COM"]
properties('MP2/aug-cc-pvtz', properties = ['dipole'])
--------------------------------------------------------------------------

    Molecular point group: c1
  Charge       = -1
  Multiplicity = 1
  Basis Set: AUG-CC-PVTZ
    Blend: AUG-CC-PVTZ
  Basis Set: (AUG-CC-PVTZ AUX)
    Blend: AUG-CC-PVTZ-JKFIT

    Orbital Energies [Eh]
    ---------------------

    Doubly Occupied:

       1A    -20.461757     2A    -20.402650     3A    -20.326642
       4A    -20.324420     5A    -11.229405     6A    -11.178188
       7A     -1.302307     8A     -1.198009     9A     -1.191348
      10A     -1.100807    11A     -0.732953    12A     -0.578345
      13A     -0.548056    14A     -0.495077    15A     -0.470594
      16A     -0.442829    17A     -0.422214    18A     -0.376581
      19A     -0.332999    20A     -0.328316    21A     -0.243190
      22A     -0.229991    23A     -0.217778

  @DF-RHF Final Energy:  -375.96836992535896

   => Energetics <=

    Nuclear Repulsion Energy =            218.1489789904472616
    One-Electron Energy =                -959.9657834836011716
    Two-Electron Energy =                 365.8484345677949250
    Total Energy =                       -375.9683699253589566
  Basis Set: (AUG-CC-PVTZ AUX)
    Blend: AUG-CC-PVTZ-RI
    Molecular point group: c1

    Geometry (in Angstrom), charge = -1, multiplicity = 1:

       Center              X                  Y                   Z               Mass
    ------------   -----------------  -----------------  -----------------  -----------------
         O            1.397597472587     1.044646279535     0.000155335746    15.994914619570
         O            1.323139472587    -1.198995720465     0.000234335746    15.994914619570
         O           -1.487646527413    -1.051138720465    -0.000301664254    15.994914619570
         O           -1.250672527413     1.237120279535    -0.000208664254    15.994914619570
         C            0.697269472587    -0.144725720465    -0.000176664254    12.000000000000
         C           -0.869232527413     0.040913279535     0.000321335746    12.000000000000
         H            2.326575472587     0.734052279535     0.000192335746     1.007825032230

  Basis Set: AUG-CC-PVTZ
    Blend: AUG-CC-PVTZ
  Basis Set: (AUG-CC-PVTZ AUX)
    Blend: AUG-CC-PVTZ-JKFIT
	 Reference Energy          =    -375.9683699253589566 [Eh]
	 Singles Energy            =      -0.0000000000000000 [Eh]
	 Same-Spin Energy          =      -0.3587770578381735 [Eh]
	 Opposite-Spin Energy      =      -1.0174840544313826 [Eh]
	 Correlation Energy        =      -1.3762611122695561 [Eh]
	 Total Energy              =    -377.3446310376285169 [Eh]

	 ================> DF-SCS-MP2 Energies <==================
	-----------------------------------------------------------
	 SCS Same-Spin Scale       =       0.3333333333333333 [-]
	 SCS Opposite-Spin Scale   =       1.2000000000000000 [-]
	 SCS Same-Spin Energy      =      -0.1195923526127245 [Eh]
	 SCS Opposite-Spin Energy  =      -1.2209808653176590 [Eh]
	 SCS Correlation Energy    =      -1.3405732179303835 [Eh]
	 SCS Total Energy          =    -377.3089431432893548 [Eh]
	-----------------------------------------------------------

  Dipole Moment: [D]
     X:     5.0354      Y:     0.7517      Z:     0.0006     Total:     5.0912

*** Psi4 exiting successfully. Buy a developer a beer!
