                               Psi4 1.3.2 release

  ==> Input File <==

--------------------------------------------------------------------------
#psi4
#
memory 32 gb

molecule  {
-1 1
  O        1.3719500     1.0365520     0.0001530
  O        1.2974920    -1.2070900     0.0002320
  O       -1.5132940    -1.0592330    -0.0003040
  O       -1.2763200     1.2290260    -0.0002110
  C        0.6716220    -0.1528200    -0.0001790
  C       -0.8948975     0.0328090    -0.2996810
  H        2.3009280     0.7259580     0.0001900
units angstrom
no_reorient  #important for SAPT in psi4, default
symmetry c1  #important for SAPT in psi4, default
}

set PROPERTIES_ORIGIN ["COM"]
properties('MP2/aug-cc-pvtz', properties = ['dipole'])
--------------------------------------------------------------------------

    Molecular point group: c1
  Charge       = -1
  Multiplicity = 1
  Basis Set: AUG-CC-PVTZ
    Blend: AUG-CC-PVTZ
  Basis Set: (AUG-CC-PVTZ AUX)
    Blend: AUG-CC-PVTZ-JKFIT

    Orbital Energies [Eh]
    ---------------------

    Doubly Occupied:

       1A    -20.462472     2A    -20.403355     3A    -20.331398
       4A    -20.329651     5A    -11.236010     6A    -11.189340
       7A     -1.302567     8A     -1.196963     9A     -1.177163
      10A     -1.080034    11A     -0.726061    12A     -0.577816
      13A     -0.548575    14A     -0.494043    15A     -0.470330
      16A     -0.435470    17A     -0.410801    18A     -0.366219
      19A     -0.332191    20A     -0.327353    21A     -0.239877
      22A     -0.226563    23A     -0.208289

  @DF-RHF Final Energy:  -375.92179366440644

   => Energetics <=

    Nuclear Repulsion Energy =            216.6836389751379670
    One-Electron Energy =                -957.0657801797449338
    Two-Electron Energy =                 364.4603475402005870
    Total Energy =                       -375.9217936644064366
  Basis Set: (AUG-CC-PVTZ AUX)
    Blend: AUG-CC-PVTZ-RI
    Molecular point group: c1

    Geometry (in Angstrom), charge = -1, multiplicity = 1:

       Center              X                  Y                   Z               Mass
    ------------   -----------------  -----------------  -----------------  -----------------
         O            1.397599832469     1.044647628039     0.040610463343    15.994914619570
         O            1.323141832469    -1.198994371961     0.040689463343    15.994914619570
         O           -1.487644167531    -1.051137371961     0.040153463343    15.994914619570
         O           -1.250670167531     1.237121628039     0.040246463343    15.994914619570
         C            0.697271832469    -0.144724371961     0.040278463343    12.000000000000
         C           -0.869247667531     0.040904628039    -0.259223536657    12.000000000000
         H            2.326577832469     0.734053628039     0.040647463343     1.007825032230

  Basis Set: AUG-CC-PVTZ
    Blend: AUG-CC-PVTZ
  Basis Set: (AUG-CC-PVTZ AUX)
    Blend: AUG-CC-PVTZ-JKFIT
	 Reference Energy          =    -375.9217936644064366 [Eh]
	 Singles Energy            =      -0.0000000000000000 [Eh]
	 Same-Spin Energy          =      -0.3622033846052891 [Eh]
	 Opposite-Spin Energy      =      -1.0259797911555992 [Eh]
	 Correlation Energy        =      -1.3881831757608882 [Eh]
	 Total Energy              =    -377.3099768401673373 [Eh]

	 ================> DF-SCS-MP2 Energies <==================
	-----------------------------------------------------------
	 SCS Same-Spin Scale       =       0.3333333333333333 [-]
	 SCS Opposite-Spin Scale   =       1.2000000000000000 [-]
	 SCS Same-Spin Energy      =      -0.1207344615350963 [Eh]
	 SCS Opposite-Spin Energy  =      -1.2311757493867190 [Eh]
	 SCS Correlation Energy    =      -1.3519102109218153 [Eh]
	 SCS Total Energy          =    -377.2737038753282377 [Eh]
	-----------------------------------------------------------

  Dipole Moment: [D]
     X:     5.0952      Y:     0.7286      Z:    -0.3011     Total:     5.1558

*** Psi4 exiting successfully. Buy a developer a beer!
