                               Psi4 1.3.2 release

  ==> Input File <==

--------------------------------------------------------------------------
#psi4
#
memory 32 gb

molecule  {
-1 1
  O        1.3719500     1.0365520     0.0001530
  O        1.2974920    -1.2070900     0.0002320
  O       -1.5132940    -1.0592330    -0.0003040
  O       -1.2763200     1.2290260    -0.0002110
  C        0.6716304    -0.1528127    -0.2001790
  C       -0.8948800     0.0328190     0.0003190
  H        2.3009280     0.7259580     0.0001900
units angstrom
no_reorient  #important for SAPT in psi4, default
symmetry c1  #important for SAPT in psi4, default
}

set PROPERTIES_ORIGIN ["COM"]
properties('MP2/aug-cc-pvtz', properties = ['dipole'])
--------------------------------------------------------------------------

    Molecular point group: c1
  Charge       = -1
  Multiplicity = 1
  Basis Set: AUG-CC-PVTZ
    Blend: AUG-CC-PVTZ
  Basis Set: (AUG-CC-PVTZ AUX)
    Blend: AUG-CC-PVTZ-JKFIT

    Orbital Energies [Eh]
    ---------------------

    Doubly Occupied:

       1A    -20.458825     2A    -20.404637     3A    -20.328819
       4A    -20.326472     5A    -11.232094     6A    -11.182810
       7A     -1.294108     8A     -1.195879     9A     -1.185583
      10A     -1.102484    11A     -0.728666    12A     -0.571806
      13A     -0.544119    14A     -0.493642    15A     -0.464743
      16A     -0.440513    17A     -0.423223    18A     -0.377402
      19A     -0.330702    20A     -0.322811    21A     -0.244773
      22A     -0.230237    23A     -0.219344

  @DF-RHF Final Energy:  -375.95100343457852

   => Energetics <=

    Nuclear Repulsion Energy =            217.5052417623902556
    One-Electron Energy =                -958.7051078123960224
    Two-Electron Energy =                 365.2488626154272424
    Total Energy =                       -375.9510034345785243
  Basis Set: (AUG-CC-PVTZ AUX)
    Blend: AUG-CC-PVTZ-RI
    Molecular point group: c1

    Geometry (in Angstrom), charge = -1, multiplicity = 1:

       Center              X                  Y                   Z               Mass
    ------------   -----------------  -----------------  -----------------  -----------------
         O            1.397596339843     1.044645295127     0.027125420811    15.994914619570
         O            1.323138339843    -1.198996704873     0.027204420811    15.994914619570
         O           -1.487647660157    -1.051139704873     0.026668420811    15.994914619570
         O           -1.250673660157     1.237119295127     0.026761420811    15.994914619570
         C            0.697276739843    -0.144719404873    -0.173206579189    12.000000000000
         C           -0.869233660157     0.040912295127     0.027291420811    12.000000000000
         H            2.326574339843     0.734051295127     0.027162420811     1.007825032230

  Basis Set: AUG-CC-PVTZ
    Blend: AUG-CC-PVTZ
  Basis Set: (AUG-CC-PVTZ AUX)
    Blend: AUG-CC-PVTZ-JKFIT
	 Reference Energy          =    -375.9510034345785243 [Eh]
	 Singles Energy            =      -0.0000000000000000 [Eh]
	 Same-Spin Energy          =      -0.3601541615082927 [Eh]
	 Opposite-Spin Energy      =      -1.0207033432692578 [Eh]
	 Correlation Energy        =      -1.3808575047775506 [Eh]
	 Total Energy              =    -377.3318609393560905 [Eh]

	 ================> DF-SCS-MP2 Energies <==================
	-----------------------------------------------------------
	 SCS Same-Spin Scale       =       0.3333333333333333 [-]
	 SCS Opposite-Spin Scale   =       1.2000000000000000 [-]
	 SCS Same-Spin Energy      =      -0.1200513871694309 [Eh]
	 SCS Opposite-Spin Energy  =      -1.2248440119231094 [Eh]
	 SCS Correlation Energy    =      -1.3448953990925403 [Eh]
	 SCS Total Energy          =    -377.2958988336710604 [Eh]
	-----------------------------------------------------------

  Dipole Moment: [D]
     X:     4.8646      Y:     0.7136      Z:    -0.3864     Total:     4.9319

*** Psi4 exiting successfully. Buy a developer a beer!
