                               Psi4 1.3.2 release

  ==> Input File <==

--------------------------------------------------------------------------
#psi4
#
memory 32 gb

molecule  {
-1 1
  O        1.3719500     1.0365520     0.0001530
  O        1.2974920    -1.2070900     0.0002320
  O       -1.5132940    -1.0592330    -0.0003040
  O       -1.2763200     1.2290260    -0.0002110
  C        0.6716262    -0.1528164    -0.1001790
  C       -0.8948800     0.0328190     0.0003190
  H        2.3009280     0.7259580     0.0001900
units angstrom
no_reorient  #important for SAPT in psi4, default
symmetry c1  #important for SAPT in psi4, default
}

set PROPERTIES_ORIGIN ["COM"]
properties('MP2/aug-cc-pvtz', properties = ['dipole'])
--------------------------------------------------------------------------

    Molecular point group: c1
  Charge       = -1
  Multiplicity = 1
  Basis Set: AUG-CC-PVTZ
    Blend: AUG-CC-PVTZ
  Basis Set: (AUG-CC-PVTZ AUX)
    Blend: AUG-CC-PVTZ-JKFIT

    Orbital Energies [Eh]
    ---------------------

    Doubly Occupied:

       1A    -20.461034     2A    -20.403160     3A    -20.327166
       4A    -20.324914     5A    -11.230124     6A    -11.179342
       7A     -1.300235     8A     -1.196795     9A     -1.190520
      10A     -1.101213    11A     -0.731861    12A     -0.576658
      13A     -0.547075    14A     -0.494708    15A     -0.469089
      16A     -0.442255    17A     -0.422465    18A     -0.376777
      19A     -0.332431    20A     -0.326896    21A     -0.243575
      22A     -0.230040    23A     -0.218154

  @DF-RHF Final Energy:  -375.96399592392447

   => Energetics <=

    Nuclear Repulsion Energy =            217.9856085007530737
    One-Electron Energy =                -959.6462316288580041
    Two-Electron Energy =                 365.6966272041804586
    Total Energy =                       -375.9639959239244718
  Basis Set: (AUG-CC-PVTZ AUX)
    Blend: AUG-CC-PVTZ-RI
    Molecular point group: c1

    Geometry (in Angstrom), charge = -1, multiplicity = 1:

       Center              X                  Y                   Z               Mass
    ------------   -----------------  -----------------  -----------------  -----------------
         O            1.397596906215     1.044645794073     0.013640378278    15.994914619570
         O            1.323138906215    -1.198996205927     0.013719378278    15.994914619570
         O           -1.487647093785    -1.051139205927     0.013183378278    15.994914619570
         O           -1.250673093785     1.237119794073     0.013276378278    15.994914619570
         C            0.697273106215    -0.144722605927    -0.086691621722    12.000000000000
         C           -0.869233093785     0.040912794073     0.013806378278    12.000000000000
         H            2.326574906215     0.734051794073     0.013677378278     1.007825032230

  Basis Set: AUG-CC-PVTZ
    Blend: AUG-CC-PVTZ
  Basis Set: (AUG-CC-PVTZ AUX)
    Blend: AUG-CC-PVTZ-JKFIT
	 Reference Energy          =    -375.9639959239244718 [Eh]
	 Singles Energy            =      -0.0000000000000000 [Eh]
	 Same-Spin Energy          =      -0.3591207078161310 [Eh]
	 Opposite-Spin Energy      =      -1.0182331587461482 [Eh]
	 Correlation Energy        =      -1.3773538665622791 [Eh]
	 Total Energy              =    -377.3413497904867313 [Eh]

	 ================> DF-SCS-MP2 Energies <==================
	-----------------------------------------------------------
	 SCS Same-Spin Scale       =       0.3333333333333333 [-]
	 SCS Opposite-Spin Scale   =       1.2000000000000000 [-]
	 SCS Same-Spin Energy      =      -0.1197069026053770 [Eh]
	 SCS Opposite-Spin Energy  =      -1.2218797904953778 [Eh]
	 SCS Correlation Energy    =      -1.3415866931007547 [Eh]
	 SCS Total Energy          =    -377.3055826170252089 [Eh]
	-----------------------------------------------------------

  Dipole Moment: [D]
     X:     4.9937      Y:     0.7421      Z:    -0.2015     Total:     5.0525

*** Psi4 exiting successfully. Buy a developer a beer!
