                               Psi4 1.4a2.dev612

  ==> Input File <==

--------------------------------------------------------------------------
#psi4
#
memory 32 gb

molecule  {
0 1
  O        0.0894740    -1.2706490     0.0016280
  N        1.0961490     0.8320480    -0.0012430
  C       -1.1354060    -0.5925990     0.0007920
  C       -1.7504730    -0.3080250    -1.2153360
  C       -1.7033180    -0.2150178     1.2160585
  C        1.2195230    -0.4906020     0.0005970
  C       -3.0144240     0.2837480    -1.2099290
  C       -3.0137120     0.2881830     1.2093930
  C       -3.6464470     0.5845060    -0.0006310
  C        2.4408500    -1.1790020     0.0015830
  C        3.6030640    -0.4211020     0.0005590
  C        3.5068820     0.9758400    -0.0013820
  C        2.2403890     1.5483070    -0.0022070
  H       -1.2410120    -0.5552270    -2.1426030
  H       -1.2397720    -0.5473760     2.1441080
  H       -3.5056790     0.5103880    -2.1530410
  H       -3.5044150     0.5182820     2.1519550
  H        2.4499920    -2.2642250     0.0030920
  H       -4.6315180     1.0439850    -0.0011840
  H        4.5737430    -0.9107530     0.0012630
  H        4.3934310     1.6024650    -0.0022300
  H        2.1135170     2.6292430    -0.0037130
units angstrom
no_reorient  #important for SAPT in psi4, default
symmetry c1  #important for SAPT in psi4, default
}

set PROPERTIES_ORIGIN ["COM"]
properties('MP2/aug-cc-pvtz', properties = ['dipole'])
--------------------------------------------------------------------------

    Molecular point group: c1
  Charge       = 0
  Multiplicity = 1
  Basis Set: AUG-CC-PVTZ
    Blend: AUG-CC-PVTZ
  Basis Set: (AUG-CC-PVTZ AUX)
    Blend: AUG-CC-PVTZ-JKFIT

    Orbital Energies [Eh]
    ---------------------

    Doubly Occupied:

       1A    -20.600538     2A    -15.565406     3A    -11.345457
       4A    -11.296899     5A    -11.284071     6A    -11.266659
       7A    -11.241787     8A    -11.240053     9A    -11.239236
      10A    -11.237844    11A    -11.234854    12A    -11.233781
      13A    -11.232800    14A     -1.433265    15A     -1.255311
      16A     -1.147295    17A     -1.093221    18A     -1.040035
      19A     -1.016422    20A     -0.996464    21A     -0.878326
      22A     -0.860398    23A     -0.835998    24A     -0.805080
      25A     -0.740087    26A     -0.705748    27A     -0.678794
      28A     -0.668806    29A     -0.658265    30A     -0.628282
      31A     -0.615049    32A     -0.594338    33A     -0.590540
      34A     -0.578973    35A     -0.569629    36A     -0.536291
      37A     -0.517326    38A     -0.513533    39A     -0.494736
      40A     -0.483078    41A     -0.431869    42A     -0.389731
      43A     -0.338195    44A     -0.330884    45A     -0.327478

  @DF-RHF Final Energy:  -551.27938097329309

   => Energetics <=

    Nuclear Repulsion Energy =            709.3240449599666135
    One-Electron Energy =               -2155.6611911907148169
    Two-Electron Energy =                 895.0577652574551166
    Total Energy =                       -551.2793809732930868
  Basis Set: (AUG-CC-PVTZ AUX)
    Blend: AUG-CC-PVTZ-RI
    Molecular point group: c1

    Geometry (in Angstrom), charge = 0, multiplicity = 1:

       Center              X                  Y                   Z               Mass
    ------------   -----------------  -----------------  -----------------  -----------------
         O            0.082766874131    -1.265158702339     0.001626640966    15.994914619570
         N            1.089441874131     0.837538297661    -0.001244359034    14.003074004430
         C           -1.142113125869    -0.587108702339     0.000790640966    12.000000000000
         C           -1.757180125869    -0.302534702339    -1.215337359034    12.000000000000
         C           -1.710025125869    -0.209527502339     1.216057140966    12.000000000000
         C            1.212815874131    -0.485111702339     0.000595640966    12.000000000000
         C           -3.021131125869     0.289238297661    -1.209930359034    12.000000000000
         C           -3.020419125869     0.293673297661     1.209391640966    12.000000000000
         C           -3.653154125869     0.589996297661    -0.000632359034    12.000000000000
         C            2.434142874131    -1.173511702339     0.001581640966    12.000000000000
         C            3.596356874131    -0.415611702339     0.000557640966    12.000000000000
         C            3.500174874131     0.981330297661    -0.001383359034    12.000000000000
         C            2.233681874131     1.553797297661    -0.002208359034    12.000000000000
         H           -1.247719125869    -0.549736702339    -2.142604359034     1.007825032230
         H           -1.246479125869    -0.541885702339     2.144106640966     1.007825032230
         H           -3.512386125869     0.515878297661    -2.153042359034     1.007825032230
         H           -3.511122125869     0.523772297661     2.151953640966     1.007825032230
         H            2.443284874131    -2.258734702339     0.003090640966     1.007825032230
         H           -4.638225125869     1.049475297661    -0.001185359034     1.007825032230
         H            4.567035874131    -0.905262702339     0.001261640966     1.007825032230
         H            4.386723874131     1.607955297661    -0.002231359034     1.007825032230
         H            2.106809874131     2.634733297661    -0.003714359034     1.007825032230

  Basis Set: AUG-CC-PVTZ
    Blend: AUG-CC-PVTZ
  Basis Set: (AUG-CC-PVTZ AUX)
    Blend: AUG-CC-PVTZ-JKFIT
	 Reference Energy          =    -551.2793809732930868 [Eh]
	 Singles Energy            =      -0.0000000000000000 [Eh]
	 Same-Spin Energy          =      -0.5998681600031439 [Eh]
	 Opposite-Spin Energy      =      -1.8253268171718700 [Eh]
	 Correlation Energy        =      -2.4251949771750141 [Eh]
	 Total Energy              =    -553.7045759504680973 [Eh]

	 ================> DF-SCS-MP2 Energies <==================
	-----------------------------------------------------------
	 SCS Same-Spin Scale       =       0.3333333333333333 [-]
	 SCS Opposite-Spin Scale   =       1.2000000000000000 [-]
	 SCS Same-Spin Energy      =      -0.1999560533343813 [Eh]
	 SCS Opposite-Spin Energy  =      -2.1903921806062439 [Eh]
	 SCS Correlation Energy    =      -2.3903482339406250 [Eh]
	 SCS Total Energy          =    -553.6697292072336722 [Eh]
	-----------------------------------------------------------

  Dipole Moment: [D]
     X:     1.3794      Y:     0.1826      Z:    -0.0086     Total:     1.3915

*** Psi4 exiting successfully. Buy a developer a beer!
