                               Psi4 1.4a2.dev612

  ==> Input File <==

--------------------------------------------------------------------------
#psi4
#
memory 32 gb

molecule  {
0 1
  O        0.0894740    -1.2706490     0.0016280
  N        1.0961490     0.8320480    -0.0012430
  C       -1.1354060    -0.5925990     0.0007920
  C       -1.7504730    -0.3080250    -1.2153360
  C       -1.7497660    -0.3035760     1.2162340
  C        1.2195230    -0.4906020     0.0005970
  C       -3.0144240     0.2837480    -1.2099290
  C       -3.0137120     0.2881830     1.2093930
  C       -3.6464470     0.5845060    -0.0006310
  C        2.4408569    -1.1792784    -0.1984168
  C        3.6030640    -0.4211020     0.0005590
  C        3.5068820     0.9758400    -0.0013820
  C        2.2403890     1.5483070    -0.0022070
  H       -1.2410120    -0.5552270    -2.1426030
  H       -1.2397720    -0.5473760     2.1441080
  H       -3.5056790     0.5103880    -2.1530410
  H       -3.5044150     0.5182820     2.1519550
  H        2.4499920    -2.2642250     0.0030920
  H       -4.6315180     1.0439850    -0.0011840
  H        4.5737430    -0.9107530     0.0012630
  H        4.3934310     1.6024650    -0.0022300
  H        2.1135170     2.6292430    -0.0037130
units angstrom
no_reorient  #important for SAPT in psi4, default
symmetry c1  #important for SAPT in psi4, default
}

set PROPERTIES_ORIGIN ["COM"]
properties('MP2/aug-cc-pvtz', properties = ['dipole'])
--------------------------------------------------------------------------

    Molecular point group: c1
  Charge       = 0
  Multiplicity = 1
  Basis Set: AUG-CC-PVTZ
    Blend: AUG-CC-PVTZ
  Basis Set: (AUG-CC-PVTZ AUX)
    Blend: AUG-CC-PVTZ-JKFIT

    Orbital Energies [Eh]
    ---------------------

    Doubly Occupied:

       1A    -20.601491     2A    -15.565568     3A    -11.348653
       4A    -11.296699     5A    -11.286539     6A    -11.270032
       7A    -11.244788     8A    -11.239029     9A    -11.238917
      10A    -11.237931    11A    -11.234037    12A    -11.233988
      13A    -11.233043    14A     -1.433852    15A     -1.255753
      16A     -1.148084    17A     -1.091485    18A     -1.039489
      19A     -1.017460    20A     -0.996133    21A     -0.877176
      22A     -0.860091    23A     -0.836156    24A     -0.805323
      25A     -0.739876    26A     -0.704847    27A     -0.678736
      28A     -0.665954    29A     -0.658976    30A     -0.626363
      31A     -0.612717    32A     -0.595902    33A     -0.591068
      34A     -0.578985    35A     -0.568147    36A     -0.534983
      37A     -0.516438    38A     -0.513883    39A     -0.495659
      40A     -0.483125    41A     -0.431596    42A     -0.389024
      43A     -0.338850    44A     -0.330876    45A     -0.328099

  @DF-RHF Final Energy:  -551.27127630214841

   => Energetics <=

    Nuclear Repulsion Energy =            708.6077218360071583
    One-Electron Energy =               -2154.2063603230240005
    Two-Electron Energy =                 894.3273621848684343
    Total Energy =                       -551.2712763021484079
  Basis Set: (AUG-CC-PVTZ AUX)
    Blend: AUG-CC-PVTZ-RI
    Molecular point group: c1

    Geometry (in Angstrom), charge = 0, multiplicity = 1:

       Center              X                  Y                   Z               Mass
    ------------   -----------------  -----------------  -----------------  -----------------
         O            0.086024595339    -1.258927188434     0.015643790861    15.994914619570
         N            1.092699595339     0.843769811566     0.012772790861    14.003074004430
         C           -1.138855404661    -0.580877188434     0.014807790861    12.000000000000
         C           -1.753922404661    -0.296303188434    -1.201320209139    12.000000000000
         C           -1.753215404661    -0.291854188434     1.230249790861    12.000000000000
         C            1.216073595339    -0.478880188434     0.014612790861    12.000000000000
         C           -3.017873404661     0.295469811566    -1.195913209139    12.000000000000
         C           -3.017161404661     0.299904811566     1.223408790861    12.000000000000
         C           -3.649896404661     0.596227811566     0.013384790861    12.000000000000
         C            2.437407495339    -1.167556588434    -0.184401009139    12.000000000000
         C            3.599614595339    -0.409380188434     0.014574790861    12.000000000000
         C            3.503432595339     0.987561811566     0.012633790861    12.000000000000
         C            2.236939595339     1.560028811566     0.011808790861    12.000000000000
         H           -1.244461404661    -0.543505188434    -2.128587209139     1.007825032230
         H           -1.243221404661    -0.535654188434     2.158123790861     1.007825032230
         H           -3.509128404661     0.522109811566    -2.139025209139     1.007825032230
         H           -3.507864404661     0.530003811566     2.165970790861     1.007825032230
         H            2.446542595339    -2.252503188434     0.017107790861     1.007825032230
         H           -4.634967404661     1.055706811566     0.012831790861     1.007825032230
         H            4.570293595339    -0.899031188434     0.015278790861     1.007825032230
         H            4.389981595339     1.614186811566     0.011785790861     1.007825032230
         H            2.110067595339     2.640964811566     0.010302790861     1.007825032230

  Basis Set: AUG-CC-PVTZ
    Blend: AUG-CC-PVTZ
  Basis Set: (AUG-CC-PVTZ AUX)
    Blend: AUG-CC-PVTZ-JKFIT
	 Reference Energy          =    -551.2712763021484079 [Eh]
	 Singles Energy            =      -0.0000000000000000 [Eh]
	 Same-Spin Energy          =      -0.5999655605935807 [Eh]
	 Opposite-Spin Energy      =      -1.8259093271737710 [Eh]
	 Correlation Energy        =      -2.4258748877673515 [Eh]
	 Total Energy              =    -553.6971511899157576 [Eh]

	 ================> DF-SCS-MP2 Energies <==================
	-----------------------------------------------------------
	 SCS Same-Spin Scale       =       0.3333333333333333 [-]
	 SCS Opposite-Spin Scale   =       1.2000000000000000 [-]
	 SCS Same-Spin Energy      =      -0.1999885201978602 [Eh]
	 SCS Opposite-Spin Energy  =      -2.1910911926085253 [Eh]
	 SCS Correlation Energy    =      -2.3910797128063854 [Eh]
	 SCS Total Energy          =    -553.6623560149547529 [Eh]
	-----------------------------------------------------------

  Dipole Moment: [D]
     X:     1.3815      Y:     0.2962      Z:     0.0944     Total:     1.4161

*** Psi4 exiting successfully. Buy a developer a beer!
