                               Psi4 1.4a2.dev612

  ==> Input File <==

--------------------------------------------------------------------------
#psi4
#
memory 32 gb

molecule  {
0 1
  O        0.0894740    -1.2706490     0.0016280
  N        1.0961490     0.8320480    -0.0012430
  C       -1.1354060    -0.5925990     0.0007920
  C       -1.7504730    -0.3080250    -1.2153360
  C       -1.6568700    -0.1264596     1.2158829
  C        1.2195230    -0.4906020     0.0005970
  C       -3.0144240     0.2837480    -1.2099290
  C       -3.0137120     0.2881830     1.2093930
  C       -3.6464470     0.5845060    -0.0006310
  C        2.4408500    -1.1790020     0.0015830
  C        3.6030640    -0.4211020     0.0005590
  C        3.5068820     0.9758400    -0.0013820
  C        2.2403890     1.5483070    -0.0022070
  H       -1.2410120    -0.5552270    -2.1426030
  H       -1.2397720    -0.5473760     2.1441080
  H       -3.5056790     0.5103880    -2.1530410
  H       -3.5044150     0.5182820     2.1519550
  H        2.4499920    -2.2642250     0.0030920
  H       -4.6315180     1.0439850    -0.0011840
  H        4.5737430    -0.9107530     0.0012630
  H        4.3934310     1.6024650    -0.0022300
  H        2.1135170     2.6292430    -0.0037130
units angstrom
no_reorient  #important for SAPT in psi4, default
symmetry c1  #important for SAPT in psi4, default
}

set PROPERTIES_ORIGIN ["COM"]
properties('MP2/aug-cc-pvtz', properties = ['dipole'])
--------------------------------------------------------------------------

    Molecular point group: c1
  Charge       = 0
  Multiplicity = 1
  Basis Set: AUG-CC-PVTZ
    Blend: AUG-CC-PVTZ
  Basis Set: (AUG-CC-PVTZ AUX)
    Blend: AUG-CC-PVTZ-JKFIT

    Orbital Energies [Eh]
    ---------------------

    Doubly Occupied:

       1A    -20.600674     2A    -15.565117     3A    -11.345407
       4A    -11.299055     5A    -11.283862     6A    -11.266502
       7A    -11.242858     8A    -11.241730     9A    -11.240672
      10A    -11.237728    11A    -11.237519    12A    -11.233653
      13A    -11.232606    14A     -1.433464    15A     -1.255115
      16A     -1.146117    17A     -1.093088    18A     -1.039794
      19A     -1.014796    20A     -0.996260    21A     -0.878065
      22A     -0.860250    23A     -0.835482    24A     -0.803815
      25A     -0.740048    26A     -0.705281    27A     -0.677338
      28A     -0.668748    29A     -0.656874    30A     -0.628108
      31A     -0.615240    32A     -0.594325    33A     -0.588241
      34A     -0.576879    35A     -0.569132    36A     -0.536079
      37A     -0.517034    38A     -0.512793    39A     -0.493353
      40A     -0.481610    41A     -0.431429    42A     -0.389609
      43A     -0.337878    44A     -0.331262    45A     -0.326249

  @DF-RHF Final Energy:  -551.26980483014063

   => Energetics <=

    Nuclear Repulsion Energy =            709.3508055783273676
    One-Electron Energy =               -2155.7189426009254021
    Two-Electron Energy =                 895.0983321924575193
    Total Energy =                       -551.2698048301406288
  Basis Set: (AUG-CC-PVTZ AUX)
    Blend: AUG-CC-PVTZ-RI
    Molecular point group: c1

    Geometry (in Angstrom), charge = 0, multiplicity = 1:

       Center              X                  Y                   Z               Mass
    ------------   -----------------  -----------------  -----------------  -----------------
         O            0.079508668907    -1.271370827510     0.001638958845    15.994914619570
         N            1.086183668907     0.831326172490    -0.001232041155    14.003074004430
         C           -1.145371331093    -0.593320827510     0.000802958845    12.000000000000
         C           -1.760438331093    -0.308746827510    -1.215325041155    12.000000000000
         C           -1.666835331093    -0.127181427510     1.215893858845    12.000000000000
         C            1.209557668907    -0.491323827510     0.000607958845    12.000000000000
         C           -3.024389331093     0.283026172490    -1.209918041155    12.000000000000
         C           -3.023677331093     0.287461172490     1.209403958845    12.000000000000
         C           -3.656412331093     0.583784172490    -0.000620041155    12.000000000000
         C            2.430884668907    -1.179723827510     0.001593958845    12.000000000000
         C            3.593098668907    -0.421823827510     0.000569958845    12.000000000000
         C            3.496916668907     0.975118172490    -0.001371041155    12.000000000000
         C            2.230423668907     1.547585172490    -0.002196041155    12.000000000000
         H           -1.250977331093    -0.555948827510    -2.142592041155     1.007825032230
         H           -1.249737331093    -0.548097827510     2.144118958845     1.007825032230
         H           -3.515644331093     0.509666172490    -2.153030041155     1.007825032230
         H           -3.514380331093     0.517560172490     2.151965958845     1.007825032230
         H            2.440026668907    -2.264946827510     0.003102958845     1.007825032230
         H           -4.641483331093     1.043263172490    -0.001173041155     1.007825032230
         H            4.563777668907    -0.911474827510     0.001273958845     1.007825032230
         H            4.383465668907     1.601743172490    -0.002219041155     1.007825032230
         H            2.103551668907     2.628521172490    -0.003702041155     1.007825032230

  Basis Set: AUG-CC-PVTZ
    Blend: AUG-CC-PVTZ
  Basis Set: (AUG-CC-PVTZ AUX)
    Blend: AUG-CC-PVTZ-JKFIT
	 Reference Energy          =    -551.2698048301406288 [Eh]
	 Singles Energy            =      -0.0000000000000000 [Eh]
	 Same-Spin Energy          =      -0.6004599065620588 [Eh]
	 Opposite-Spin Energy      =      -1.8269227727529462 [Eh]
	 Correlation Energy        =      -2.4273826793150048 [Eh]
	 Total Energy              =    -553.6971875094556026 [Eh]

	 ================> DF-SCS-MP2 Energies <==================
	-----------------------------------------------------------
	 SCS Same-Spin Scale       =       0.3333333333333333 [-]
	 SCS Opposite-Spin Scale   =       1.2000000000000000 [-]
	 SCS Same-Spin Energy      =      -0.2001533021873529 [Eh]
	 SCS Opposite-Spin Energy  =      -2.1923073273035354 [Eh]
	 SCS Correlation Energy    =      -2.3924606294908886 [Eh]
	 SCS Total Energy          =    -553.6622654596314987 [Eh]
	-----------------------------------------------------------

  Dipole Moment: [D]
     X:     1.3369      Y:     0.1557      Z:    -0.0531     Total:     1.3470

*** Psi4 exiting successfully. Buy a developer a beer!
