                               Psi4 1.4a2.dev612

  ==> Input File <==

--------------------------------------------------------------------------
#psi4
#
memory 32 gb

molecule  {
0 1
  O        0.0894740    -1.2706490     0.0016280
  N        1.0961490     0.8320480    -0.0012430
  C       -1.1354060    -0.5925990     0.0007920
  C       -1.7504730    -0.3080250    -1.2153360
  C       -1.6104220    -0.0379014     1.2157074
  C        1.2195230    -0.4906020     0.0005970
  C       -3.0144240     0.2837480    -1.2099290
  C       -3.0137120     0.2881830     1.2093930
  C       -3.6464470     0.5845060    -0.0006310
  C        2.4408500    -1.1790020     0.0015830
  C        3.6030640    -0.4211020     0.0005590
  C        3.5068820     0.9758400    -0.0013820
  C        2.2403890     1.5483070    -0.0022070
  H       -1.2410120    -0.5552270    -2.1426030
  H       -1.2397720    -0.5473760     2.1441080
  H       -3.5056790     0.5103880    -2.1530410
  H       -3.5044150     0.5182820     2.1519550
  H        2.4499920    -2.2642250     0.0030920
  H       -4.6315180     1.0439850    -0.0011840
  H        4.5737430    -0.9107530     0.0012630
  H        4.3934310     1.6024650    -0.0022300
  H        2.1135170     2.6292430    -0.0037130
units angstrom
no_reorient  #important for SAPT in psi4, default
symmetry c1  #important for SAPT in psi4, default
}

set PROPERTIES_ORIGIN ["COM"]
properties('MP2/aug-cc-pvtz', properties = ['dipole'])
--------------------------------------------------------------------------

    Molecular point group: c1
  Charge       = 0
  Multiplicity = 1
  Basis Set: AUG-CC-PVTZ
    Blend: AUG-CC-PVTZ
  Basis Set: (AUG-CC-PVTZ AUX)
    Blend: AUG-CC-PVTZ-JKFIT

    Orbital Energies [Eh]
    ---------------------

    Doubly Occupied:

       1A    -20.601049     2A    -15.564816     3A    -11.345453
       4A    -11.302808     5A    -11.283639     6A    -11.266338
       7A    -11.247016     8A    -11.243160     9A    -11.241699
      10A    -11.241558    11A    -11.237611    12A    -11.233473
      13A    -11.232327    14A     -1.433874    15A     -1.254931
      16A     -1.144499    17A     -1.092960    18A     -1.039564
      19A     -1.012442    20A     -0.995705    21A     -0.877760
      22A     -0.860163    23A     -0.834528    24A     -0.802032
      25A     -0.739820    26A     -0.704811    27A     -0.675475
      28A     -0.668599    29A     -0.654830    30A     -0.627720
      31A     -0.615157    32A     -0.594637    33A     -0.585145
      34A     -0.573844    35A     -0.568242    36A     -0.535876
      37A     -0.516576    38A     -0.511352    39A     -0.491369
      40A     -0.478555    41A     -0.430928    42A     -0.389494
      43A     -0.337933    44A     -0.331229    45A     -0.324745

  @DF-RHF Final Energy:  -551.25371223716058

   => Energetics <=

    Nuclear Repulsion Energy =            709.1713758744588176
    One-Electron Energy =               -2155.3586909363666564
    Two-Electron Energy =                 894.9336028247472541
    Total Energy =                       -551.2537122371605847
  Basis Set: (AUG-CC-PVTZ AUX)
    Blend: AUG-CC-PVTZ-RI
    Molecular point group: c1

    Geometry (in Angstrom), charge = 0, multiplicity = 1:

       Center              X                  Y                   Z               Mass
    ------------   -----------------  -----------------  -----------------  -----------------
         O            0.076250463682    -1.277582952681     0.001651269709    15.994914619570
         N            1.082925463682     0.825114047319    -0.001219730291    14.003074004430
         C           -1.148629536318    -0.599532952681     0.000815269709    12.000000000000
         C           -1.763696536318    -0.314958952681    -1.215312730291    12.000000000000
         C           -1.623645536318    -0.044835352681     1.215730669709    12.000000000000
         C            1.206299463682    -0.497535952681     0.000620269709    12.000000000000
         C           -3.027647536318     0.276814047319    -1.209905730291    12.000000000000
         C           -3.026935536318     0.281249047319     1.209416269709    12.000000000000
         C           -3.659670536318     0.577572047319    -0.000607730291    12.000000000000
         C            2.427626463682    -1.185935952681     0.001606269709    12.000000000000
         C            3.589840463682    -0.428035952681     0.000582269709    12.000000000000
         C            3.493658463682     0.968906047319    -0.001358730291    12.000000000000
         C            2.227165463682     1.541373047319    -0.002183730291    12.000000000000
         H           -1.254235536318    -0.562160952681    -2.142579730291     1.007825032230
         H           -1.252995536318    -0.554309952681     2.144131269709     1.007825032230
         H           -3.518902536318     0.503454047319    -2.153017730291     1.007825032230
         H           -3.517638536318     0.511348047319     2.151978269709     1.007825032230
         H            2.436768463682    -2.271158952681     0.003115269709     1.007825032230
         H           -4.644741536318     1.037051047319    -0.001160730291     1.007825032230
         H            4.560519463682    -0.917686952681     0.001286269709     1.007825032230
         H            4.380207463682     1.595531047319    -0.002206730291     1.007825032230
         H            2.100293463682     2.622309047319    -0.003689730291     1.007825032230

  Basis Set: AUG-CC-PVTZ
    Blend: AUG-CC-PVTZ
  Basis Set: (AUG-CC-PVTZ AUX)
    Blend: AUG-CC-PVTZ-JKFIT
	 Reference Energy          =    -551.2537122371605847 [Eh]
	 Singles Energy            =      -0.0000000000000000 [Eh]
	 Same-Spin Energy          =      -0.6013623887990722 [Eh]
	 Opposite-Spin Energy      =      -1.8294582880990449 [Eh]
	 Correlation Energy        =      -2.4308206768981169 [Eh]
	 Total Energy              =    -553.6845329140586500 [Eh]

	 ================> DF-SCS-MP2 Energies <==================
	-----------------------------------------------------------
	 SCS Same-Spin Scale       =       0.3333333333333333 [-]
	 SCS Opposite-Spin Scale   =       1.2000000000000000 [-]
	 SCS Same-Spin Energy      =      -0.2004541295996907 [Eh]
	 SCS Opposite-Spin Energy  =      -2.1953499457188537 [Eh]
	 SCS Correlation Energy    =      -2.3958040753185443 [Eh]
	 SCS Total Energy          =    -553.6495163124791361 [Eh]
	-----------------------------------------------------------

  Dipole Moment: [D]
     X:     1.2853      Y:     0.1344      Z:    -0.1320     Total:     1.2990

*** Psi4 exiting successfully. Buy a developer a beer!
