                               Psi4 1.4a2.dev612

  ==> Input File <==

--------------------------------------------------------------------------
#psi4
#
memory 32 gb

molecule  {
0 1
  O        0.0894740    -1.2706490     0.0016280
  N        1.0961490     0.8320480    -0.0012430
  C       -1.1354060    -0.5925990     0.0007920
  C       -1.7504730    -0.3080250    -1.2153360
  C       -1.7497660    -0.3035760     1.2162340
  C        1.2195230    -0.4906020     0.0005970
  C       -3.0144240     0.2837480    -1.2099290
  C       -3.0137120     0.2881830     1.2093930
  C       -3.6464470     0.5845060    -0.0006310
  C        2.4408535    -1.1791402    -0.0984169
  C        3.6030640    -0.4211020     0.0005590
  C        3.5068820     0.9758400    -0.0013820
  C        2.2403890     1.5483070    -0.0022070
  H       -1.2410120    -0.5552270    -2.1426030
  H       -1.2397720    -0.5473760     2.1441080
  H       -3.5056790     0.5103880    -2.1530410
  H       -3.5044150     0.5182820     2.1519550
  H        2.4499920    -2.2642250     0.0030920
  H       -4.6315180     1.0439850    -0.0011840
  H        4.5737430    -0.9107530     0.0012630
  H        4.3934310     1.6024650    -0.0022300
  H        2.1135170     2.6292430    -0.0037130
units angstrom
no_reorient  #important for SAPT in psi4, default
symmetry c1  #important for SAPT in psi4, default
}

set PROPERTIES_ORIGIN ["COM"]
properties('MP2/aug-cc-pvtz', properties = ['dipole'])
--------------------------------------------------------------------------

    Molecular point group: c1
  Charge       = 0
  Multiplicity = 1
  Basis Set: AUG-CC-PVTZ
    Blend: AUG-CC-PVTZ
  Basis Set: (AUG-CC-PVTZ AUX)
    Blend: AUG-CC-PVTZ-JKFIT

    Orbital Energies [Eh]
    ---------------------

    Doubly Occupied:

       1A    -20.600859     2A    -15.565672     3A    -11.346397
       4A    -11.296527     5A    -11.284849     6A    -11.267642
       7A    -11.242622     8A    -11.238891     9A    -11.238783
      10A    -11.237959    11A    -11.233863    12A    -11.233833
      13A    -11.232899    14A     -1.433432    15A     -1.255591
      16A     -1.147944    17A     -1.092893    18A     -1.040078
      19A     -1.017312    20A     -0.996341    21A     -0.878198
      22A     -0.860472    23A     -0.836000    24A     -0.805595
      25A     -0.739840    26A     -0.705731    27A     -0.679238
      28A     -0.668033    29A     -0.658902    30A     -0.627706
      31A     -0.614239    32A     -0.595170    33A     -0.591236
      34A     -0.579740    35A     -0.569537    36A     -0.536150
      37A     -0.517158    38A     -0.513857    39A     -0.495499
      40A     -0.483232    41A     -0.432126    42A     -0.389660
      43A     -0.338708    44A     -0.330721    45A     -0.327925

  @DF-RHF Final Energy:  -551.27985891893832

   => Energetics <=

    Nuclear Repulsion Energy =            708.9595029426108113
    One-Electron Energy =               -2154.9206040254825893
    Two-Electron Energy =                 894.6812421639333479
    Total Energy =                       -551.2798589189383165
  Basis Set: (AUG-CC-PVTZ AUX)
    Blend: AUG-CC-PVTZ-RI
    Molecular point group: c1

    Geometry (in Angstrom), charge = 0, multiplicity = 1:

       Center              X                  Y                   Z               Mass
    ------------   -----------------  -----------------  -----------------  -----------------
         O            0.086024833840    -1.258936882801     0.008629060482    15.994914619570
         N            1.092699833840     0.843760117199     0.005758060482    14.003074004430
         C           -1.138855166160    -0.580886882801     0.007793060482    12.000000000000
         C           -1.753922166160    -0.296312882801    -1.208334939518    12.000000000000
         C           -1.753215166160    -0.291863882801     1.223235060482    12.000000000000
         C            1.216073833840    -0.478889882801     0.007598060482    12.000000000000
         C           -3.017873166160     0.295460117199    -1.202927939518    12.000000000000
         C           -3.017161166160     0.299895117199     1.216394060482    12.000000000000
         C           -3.649896166160     0.596218117199     0.006370060482    12.000000000000
         C            2.437404333840    -1.167428082801    -0.091415839518    12.000000000000
         C            3.599614833840    -0.409389882801     0.007560060482    12.000000000000
         C            3.503432833840     0.987552117199     0.005619060482    12.000000000000
         C            2.236939833840     1.560019117199     0.004794060482    12.000000000000
         H           -1.244461166160    -0.543514882801    -2.135601939518     1.007825032230
         H           -1.243221166160    -0.535663882801     2.151109060482     1.007825032230
         H           -3.509128166160     0.522100117199    -2.146039939518     1.007825032230
         H           -3.507864166160     0.529994117199     2.158956060482     1.007825032230
         H            2.446542833840    -2.252512882801     0.010093060482     1.007825032230
         H           -4.634967166160     1.055697117199     0.005817060482     1.007825032230
         H            4.570293833840    -0.899040882801     0.008264060482     1.007825032230
         H            4.389981833840     1.614177117199     0.004771060482     1.007825032230
         H            2.110067833840     2.640955117199     0.003288060482     1.007825032230

  Basis Set: AUG-CC-PVTZ
    Blend: AUG-CC-PVTZ
  Basis Set: (AUG-CC-PVTZ AUX)
    Blend: AUG-CC-PVTZ-JKFIT
	 Reference Energy          =    -551.2798589189383165 [Eh]
	 Singles Energy            =      -0.0000000000000000 [Eh]
	 Same-Spin Energy          =      -0.5997013067934041 [Eh]
	 Opposite-Spin Energy      =      -1.8249946668673540 [Eh]
	 Correlation Energy        =      -2.4246959736607581 [Eh]
	 Total Energy              =    -553.7045548925990488 [Eh]

	 ================> DF-SCS-MP2 Energies <==================
	-----------------------------------------------------------
	 SCS Same-Spin Scale       =       0.3333333333333333 [-]
	 SCS Opposite-Spin Scale   =       1.2000000000000000 [-]
	 SCS Same-Spin Energy      =      -0.1999004355978014 [Eh]
	 SCS Opposite-Spin Energy  =      -2.1899936002408249 [Eh]
	 SCS Correlation Energy    =      -2.3898940358386263 [Eh]
	 SCS Total Energy          =    -553.6697529547769818 [Eh]
	-----------------------------------------------------------

  Dipole Moment: [D]
     X:     1.4041      Y:     0.2366      Z:     0.0456     Total:     1.4246

*** Psi4 exiting successfully. Buy a developer a beer!
