                               Psi4 1.4a2.dev612

  ==> Input File <==

--------------------------------------------------------------------------
#psi4
#
memory 32 gb

molecule  {
0 1
  O        0.0894740    -1.2706490     0.0016280
  N        1.0961490     0.8320480    -0.0012430
  C       -1.1354060    -0.5925990     0.0007920
  C       -1.7504730    -0.3080250    -1.2153360
  C       -1.6800940    -0.1707387     1.2159707
  C        1.2195230    -0.4906020     0.0005970
  C       -3.0144240     0.2837480    -1.2099290
  C       -3.0137120     0.2881830     1.2093930
  C       -3.6464470     0.5845060    -0.0006310
  C        2.4408500    -1.1790020     0.0015830
  C        3.6030640    -0.4211020     0.0005590
  C        3.5068820     0.9758400    -0.0013820
  C        2.2403890     1.5483070    -0.0022070
  H       -1.2410120    -0.5552270    -2.1426030
  H       -1.2397720    -0.5473760     2.1441080
  H       -3.5056790     0.5103880    -2.1530410
  H       -3.5044150     0.5182820     2.1519550
  H        2.4499920    -2.2642250     0.0030920
  H       -4.6315180     1.0439850    -0.0011840
  H        4.5737430    -0.9107530     0.0012630
  H        4.3934310     1.6024650    -0.0022300
  H        2.1135170     2.6292430    -0.0037130
units angstrom
no_reorient  #important for SAPT in psi4, default
symmetry c1  #important for SAPT in psi4, default
}

set PROPERTIES_ORIGIN ["COM"]
properties('MP2/aug-cc-pvtz', properties = ['dipole'])
--------------------------------------------------------------------------

    Molecular point group: c1
  Charge       = 0
  Multiplicity = 1
  Basis Set: AUG-CC-PVTZ
    Blend: AUG-CC-PVTZ
  Basis Set: (AUG-CC-PVTZ AUX)
    Blend: AUG-CC-PVTZ-JKFIT

    Orbital Energies [Eh]
    ---------------------

    Doubly Occupied:

       1A    -20.600575     2A    -15.565261     3A    -11.345418
       4A    -11.297767     5A    -11.283966     6A    -11.266580
       7A    -11.241754     8A    -11.241271     9A    -11.239827
      10A    -11.237785    11A    -11.235997    12A    -11.233728
      13A    -11.232718    14A     -1.433337    15A     -1.255210
      16A     -1.146772    17A     -1.093152    18A     -1.039914
      19A     -1.015706    20A     -0.996398    21A     -0.878199
      22A     -0.860316    23A     -0.835804    24A     -0.804523
      25A     -0.740098    26A     -0.705524    27A     -0.678148
      28A     -0.668785    29A     -0.657664    30A     -0.628224
      31A     -0.615174    32A     -0.594273    33A     -0.589542
      34A     -0.578061    35A     -0.569404    36A     -0.536184
      37A     -0.517207    38A     -0.513231    39A     -0.494120
      40A     -0.482521    41A     -0.431653    42A     -0.389668
      43A     -0.338003    44A     -0.331107    45A     -0.326918

  @DF-RHF Final Energy:  -551.27539123691975

   => Energetics <=

    Nuclear Repulsion Energy =            709.3641760199560622
    One-Electron Energy =               -2155.7441643250958805
    Two-Electron Energy =                 895.1045970682199595
    Total Energy =                       -551.2753912369197451
  Basis Set: (AUG-CC-PVTZ AUX)
    Blend: AUG-CC-PVTZ-RI
    Molecular point group: c1

    Geometry (in Angstrom), charge = 0, multiplicity = 1:

       Center              X                  Y                   Z               Mass
    ------------   -----------------  -----------------  -----------------  -----------------
         O            0.081137771519    -1.268264764925     0.001632799906    15.994914619570
         N            1.087812771519     0.834432235075    -0.001238200094    14.003074004430
         C           -1.143742228481    -0.590214764925     0.000796799906    12.000000000000
         C           -1.758809228481    -0.305640764925    -1.215331200094    12.000000000000
         C           -1.688430228481    -0.168354464925     1.215975499906    12.000000000000
         C            1.211186771519    -0.488217764925     0.000601799906    12.000000000000
         C           -3.022760228481     0.286132235075    -1.209924200094    12.000000000000
         C           -3.022048228481     0.290567235075     1.209397799906    12.000000000000
         C           -3.654783228481     0.586890235075    -0.000626200094    12.000000000000
         C            2.432513771519    -1.176617764925     0.001587799906    12.000000000000
         C            3.594727771519    -0.418717764925     0.000563799906    12.000000000000
         C            3.498545771519     0.978224235075    -0.001377200094    12.000000000000
         C            2.232052771519     1.550691235075    -0.002202200094    12.000000000000
         H           -1.249348228481    -0.552842764925    -2.142598200094     1.007825032230
         H           -1.248108228481    -0.544991764925     2.144112799906     1.007825032230
         H           -3.514015228481     0.512772235075    -2.153036200094     1.007825032230
         H           -3.512751228481     0.520666235075     2.151959799906     1.007825032230
         H            2.441655771519    -2.261840764925     0.003096799906     1.007825032230
         H           -4.639854228481     1.046369235075    -0.001179200094     1.007825032230
         H            4.565406771519    -0.908368764925     0.001267799906     1.007825032230
         H            4.385094771519     1.604849235075    -0.002225200094     1.007825032230
         H            2.105180771519     2.631627235075    -0.003708200094     1.007825032230

  Basis Set: AUG-CC-PVTZ
    Blend: AUG-CC-PVTZ
  Basis Set: (AUG-CC-PVTZ AUX)
    Blend: AUG-CC-PVTZ-JKFIT
	 Reference Energy          =    -551.2753912369197451 [Eh]
	 Singles Energy            =      -0.0000000000000000 [Eh]
	 Same-Spin Energy          =      -0.6001229753095445 [Eh]
	 Opposite-Spin Energy      =      -1.8259992449799087 [Eh]
	 Correlation Energy        =      -2.4261222202894532 [Eh]
	 Total Energy              =    -553.7015134572092165 [Eh]

	 ================> DF-SCS-MP2 Energies <==================
	-----------------------------------------------------------
	 SCS Same-Spin Scale       =       0.3333333333333333 [-]
	 SCS Opposite-Spin Scale   =       1.2000000000000000 [-]
	 SCS Same-Spin Energy      =      -0.2000409917698482 [Eh]
	 SCS Opposite-Spin Energy  =      -2.1911990939758903 [Eh]
	 SCS Correlation Energy    =      -2.3912400857457383 [Eh]
	 SCS Total Energy          =    -553.6666313226654665 [Eh]
	-----------------------------------------------------------

  Dipole Moment: [D]
     X:     1.3594      Y:     0.1684      Z:    -0.0264     Total:     1.3701

*** Psi4 exiting successfully. Buy a developer a beer!
