                               Psi4 1.4a2.dev612

  ==> Input File <==

--------------------------------------------------------------------------
#psi4
#
memory 32 gb

molecule  {
0 1
  O        0.0894740    -1.2706490     0.0016280
  N        1.0961490     0.8320480    -0.0012430
  C       -1.1354060    -0.5925990     0.0007920
  C       -1.7504730    -0.3080250    -1.2153360
  C       -1.7265420    -0.2592969     1.2161462
  C        1.2195230    -0.4906020     0.0005970
  C       -3.0144240     0.2837480    -1.2099290
  C       -3.0137120     0.2881830     1.2093930
  C       -3.6464470     0.5845060    -0.0006310
  C        2.4408500    -1.1790020     0.0015830
  C        3.6030640    -0.4211020     0.0005590
  C        3.5068820     0.9758400    -0.0013820
  C        2.2403890     1.5483070    -0.0022070
  H       -1.2410120    -0.5552270    -2.1426030
  H       -1.2397720    -0.5473760     2.1441080
  H       -3.5056790     0.5103880    -2.1530410
  H       -3.5044150     0.5182820     2.1519550
  H        2.4499920    -2.2642250     0.0030920
  H       -4.6315180     1.0439850    -0.0011840
  H        4.5737430    -0.9107530     0.0012630
  H        4.3934310     1.6024650    -0.0022300
  H        2.1135170     2.6292430    -0.0037130
units angstrom
no_reorient  #important for SAPT in psi4, default
symmetry c1  #important for SAPT in psi4, default
}

set PROPERTIES_ORIGIN ["COM"]
properties('MP2/aug-cc-pvtz', properties = ['dipole'])
--------------------------------------------------------------------------

    Molecular point group: c1
  Charge       = 0
  Multiplicity = 1
  Basis Set: AUG-CC-PVTZ
    Blend: AUG-CC-PVTZ
  Basis Set: (AUG-CC-PVTZ AUX)
    Blend: AUG-CC-PVTZ-JKFIT

    Orbital Energies [Eh]
    ---------------------

    Doubly Occupied:

       1A    -20.600563     2A    -15.565558     3A    -11.345526
       4A    -11.296464     5A    -11.284179     6A    -11.266743
       7A    -11.241831     8A    -11.239228     9A    -11.238887
      10A    -11.237910    11A    -11.234115    12A    -11.233805
      13A    -11.232846    14A     -1.433250    15A     -1.255423
      16A     -1.147674    17A     -1.093297    18A     -1.040155
      19A     -1.016942    20A     -0.996467    21A     -0.878448
      22A     -0.860495    23A     -0.836049    24A     -0.805474
      25A     -0.740005    26A     -0.705938    27A     -0.679231
      28A     -0.668812    29A     -0.658662    30A     -0.628282
      31A     -0.614877    32A     -0.594556    33A     -0.591141
      34A     -0.579619    35A     -0.569827    36A     -0.536402
      37A     -0.517386    38A     -0.513730    39A     -0.495185
      40A     -0.483319    41A     -0.432083    42A     -0.389803
      43A     -0.338424    44A     -0.330693    45A     -0.327840

  @DF-RHF Final Energy:  -551.28180397364576

   => Energetics <=

    Nuclear Repulsion Energy =            709.2290419968503556
    One-Electron Energy =               -2155.4674032821544643
    Two-Electron Energy =                 894.9565573116583437
    Total Energy =                       -551.2818039736457649
  Basis Set: (AUG-CC-PVTZ AUX)
    Blend: AUG-CC-PVTZ-RI
    Molecular point group: c1

    Geometry (in Angstrom), charge = 0, multiplicity = 1:

       Center              X                  Y                   Z               Mass
    ------------   -----------------  -----------------  -----------------  -----------------
         O            0.084395976744    -1.262052639754     0.001620489042    15.994914619570
         N            1.091070976744     0.840644360246    -0.001250510958    14.003074004430
         C           -1.140484023256    -0.584002639754     0.000784489042    12.000000000000
         C           -1.755551023256    -0.299428639754    -1.215343510958    12.000000000000
         C           -1.731620023256    -0.250700539754     1.216138689042    12.000000000000
         C            1.214444976744    -0.482005639754     0.000589489042    12.000000000000
         C           -3.019502023256     0.292344360246    -1.209936510958    12.000000000000
         C           -3.018790023256     0.296779360246     1.209385489042    12.000000000000
         C           -3.651525023256     0.593102360246    -0.000638510958    12.000000000000
         C            2.435771976744    -1.170405639754     0.001575489042    12.000000000000
         C            3.597985976744    -0.412505639754     0.000551489042    12.000000000000
         C            3.501803976744     0.984436360246    -0.001389510958    12.000000000000
         C            2.235310976744     1.556903360246    -0.002214510958    12.000000000000
         H           -1.246090023256    -0.546630639754    -2.142610510958     1.007825032230
         H           -1.244850023256    -0.538779639754     2.144100489042     1.007825032230
         H           -3.510757023256     0.518984360246    -2.153048510958     1.007825032230
         H           -3.509493023256     0.526878360246     2.151947489042     1.007825032230
         H            2.444913976744    -2.255628639754     0.003084489042     1.007825032230
         H           -4.636596023256     1.052581360246    -0.001191510958     1.007825032230
         H            4.568664976744    -0.902156639754     0.001255489042     1.007825032230
         H            4.388352976744     1.611061360246    -0.002237510958     1.007825032230
         H            2.108438976744     2.637839360246    -0.003720510958     1.007825032230

  Basis Set: AUG-CC-PVTZ
    Blend: AUG-CC-PVTZ
  Basis Set: (AUG-CC-PVTZ AUX)
    Blend: AUG-CC-PVTZ-JKFIT
	 Reference Energy          =    -551.2818039736457649 [Eh]
	 Singles Energy            =      -0.0000000000000000 [Eh]
	 Same-Spin Energy          =      -0.5996983019856640 [Eh]
	 Opposite-Spin Energy      =      -1.8249195385642787 [Eh]
	 Correlation Energy        =      -2.4246178405499426 [Eh]
	 Total Energy              =    -553.7064218141956644 [Eh]

	 ================> DF-SCS-MP2 Energies <==================
	-----------------------------------------------------------
	 SCS Same-Spin Scale       =       0.3333333333333333 [-]
	 SCS Opposite-Spin Scale   =       1.2000000000000000 [-]
	 SCS Same-Spin Energy      =      -0.1998994339952213 [Eh]
	 SCS Opposite-Spin Energy  =      -2.1899034462771345 [Eh]
	 SCS Correlation Energy    =      -2.3898028802723559 [Eh]
	 SCS Total Energy          =    -553.6716068539180924 [Eh]
	-----------------------------------------------------------

  Dipole Moment: [D]
     X:     1.3968      Y:     0.1985      Z:     0.0003     Total:     1.4109

*** Psi4 exiting successfully. Buy a developer a beer!
