                               Psi4 1.4a2.dev612

  ==> Input File <==

--------------------------------------------------------------------------
#psi4
#
memory 32 gb

molecule  {
0 1
  O        0.0894740    -1.2706490     0.0016280
  N        1.0961490     0.8320480    -0.0012430
  C       -1.1354060    -0.5925990     0.0007920
  C       -1.7504730    -0.3080250    -1.2153360
  C       -1.7497660    -0.3035760     1.2162340
  C        1.2195230    -0.4906020     0.0005970
  C       -3.0144240     0.2837480    -1.2099290
  C       -3.0137120     0.2881830     1.2093930
  C       -3.6464470     0.5845060    -0.0006310
  C        2.4408587    -1.1793475    -0.2484168
  C        3.6030640    -0.4211020     0.0005590
  C        3.5068820     0.9758400    -0.0013820
  C        2.2403890     1.5483070    -0.0022070
  H       -1.2410120    -0.5552270    -2.1426030
  H       -1.2397720    -0.5473760     2.1441080
  H       -3.5056790     0.5103880    -2.1530410
  H       -3.5044150     0.5182820     2.1519550
  H        2.4499920    -2.2642250     0.0030920
  H       -4.6315180     1.0439850    -0.0011840
  H        4.5737430    -0.9107530     0.0012630
  H        4.3934310     1.6024650    -0.0022300
  H        2.1135170     2.6292430    -0.0037130
units angstrom
no_reorient  #important for SAPT in psi4, default
symmetry c1  #important for SAPT in psi4, default
}

set PROPERTIES_ORIGIN ["COM"]
properties('MP2/aug-cc-pvtz', properties = ['dipole'])
--------------------------------------------------------------------------

    Molecular point group: c1
  Charge       = 0
  Multiplicity = 1
  Basis Set: AUG-CC-PVTZ
    Blend: AUG-CC-PVTZ
  Basis Set: (AUG-CC-PVTZ AUX)
    Blend: AUG-CC-PVTZ-JKFIT

    Orbital Energies [Eh]
    ---------------------

    Doubly Occupied:

       1A    -20.601967     2A    -15.565520     3A    -11.350294
       4A    -11.296829     5A    -11.287820     6A    -11.271771
       7A    -11.246362     8A    -11.239133     9A    -11.239020
      10A    -11.237938    11A    -11.234163    12A    -11.234111
      13A    -11.233151    14A     -1.434167    15A     -1.255898
      16A     -1.148190    17A     -1.090478    18A     -1.039039
      19A     -1.017572    20A     -0.995960    21A     -0.876476
      22A     -0.859813    23A     -0.836274    24A     -0.805141
      25A     -0.739947    26A     -0.704326    27A     -0.678409
      28A     -0.664673    29A     -0.658894    30A     -0.625579
      31A     -0.611372    32A     -0.596400    33A     -0.590996
      34A     -0.578467    35A     -0.567120    36A     -0.534041
      37A     -0.515873    38A     -0.513855    39A     -0.495777
      40A     -0.483033    41A     -0.431183    42A     -0.388583
      43A     -0.338966    44A     -0.331025    45A     -0.328231

  @DF-RHF Final Energy:  -551.26474738711795

   => Energetics <=

    Nuclear Repulsion Energy =            708.3482874348925407
    One-Electron Energy =               -2153.6783888580407620
    Two-Electron Energy =                 894.0653540360303850
    Total Energy =                       -551.2647473871179500
  Basis Set: (AUG-CC-PVTZ AUX)
    Blend: AUG-CC-PVTZ-RI
    Molecular point group: c1

    Geometry (in Angstrom), charge = 0, multiplicity = 1:

       Center              X                  Y                   Z               Mass
    ------------   -----------------  -----------------  -----------------  -----------------
         O            0.086024469074    -1.258922341251     0.019151159558    15.994914619570
         N            1.092699469074     0.843774658749     0.016280159558    14.003074004430
         C           -1.138855530926    -0.580872341251     0.018315159558    12.000000000000
         C           -1.753922530926    -0.296298341251    -1.197812840442    12.000000000000
         C           -1.753215530926    -0.291849341251     1.233757159558    12.000000000000
         C            1.216073469074    -0.478875341251     0.018120159558    12.000000000000
         C           -3.017873530926     0.295474658749    -1.192405840442    12.000000000000
         C           -3.017161530926     0.299909658749     1.226916159558    12.000000000000
         C           -3.649896530926     0.596232658749     0.016892159558    12.000000000000
         C            2.437409169074    -1.167620841251    -0.230893640442    12.000000000000
         C            3.599614469074    -0.409375341251     0.018082159558    12.000000000000
         C            3.503432469074     0.987566658749     0.016141159558    12.000000000000
         C            2.236939469074     1.560033658749     0.015316159558    12.000000000000
         H           -1.244461530926    -0.543500341251    -2.125079840442     1.007825032230
         H           -1.243221530926    -0.535649341251     2.161631159558     1.007825032230
         H           -3.509128530926     0.522114658749    -2.135517840442     1.007825032230
         H           -3.507864530926     0.530008658749     2.169478159558     1.007825032230
         H            2.446542469074    -2.252498341251     0.020615159558     1.007825032230
         H           -4.634967530926     1.055711658749     0.016339159558     1.007825032230
         H            4.570293469074    -0.899026341251     0.018786159558     1.007825032230
         H            4.389981469074     1.614191658749     0.015293159558     1.007825032230
         H            2.110067469074     2.640969658749     0.013810159558     1.007825032230

  Basis Set: AUG-CC-PVTZ
    Blend: AUG-CC-PVTZ
  Basis Set: (AUG-CC-PVTZ AUX)
    Blend: AUG-CC-PVTZ-JKFIT
	 Reference Energy          =    -551.2647473871179500 [Eh]
	 Singles Energy            =      -0.0000000000000000 [Eh]
	 Same-Spin Energy          =      -0.6001596345011480 [Eh]
	 Opposite-Spin Energy      =      -1.8266575734885948 [Eh]
	 Correlation Energy        =      -2.4268172079897425 [Eh]
	 Total Energy              =    -553.6915645951077067 [Eh]

	 ================> DF-SCS-MP2 Energies <==================
	-----------------------------------------------------------
	 SCS Same-Spin Scale       =       0.3333333333333333 [-]
	 SCS Opposite-Spin Scale   =       1.2000000000000000 [-]
	 SCS Same-Spin Energy      =      -0.2000532115003826 [Eh]
	 SCS Opposite-Spin Energy  =      -2.1919890881863138 [Eh]
	 SCS Correlation Energy    =      -2.3920422996866963 [Eh]
	 SCS Total Energy          =    -553.6567896868047001 [Eh]
	-----------------------------------------------------------

  Dipole Moment: [D]
     X:     1.3646      Y:     0.3403      Z:     0.1206     Total:     1.4115

*** Psi4 exiting successfully. Buy a developer a beer!
