                               Psi4 1.4a2.dev612

  ==> Input File <==

--------------------------------------------------------------------------
#psi4
#
memory 32 gb

molecule  {
0 1
  O        0.0894740    -1.2706490     0.0016280
  N        1.0961490     0.8320480    -0.0012430
  C       -1.1354060    -0.5925990     0.0007920
  C       -1.7504730    -0.3080250    -1.2153360
  C       -1.7497660    -0.3035760     1.2162340
  C        1.2195230    -0.4906020     0.0005970
  C       -3.0144240     0.2837480    -1.2099290
  C       -3.0137120     0.2881830     1.2093930
  C       -3.6464470     0.5845060    -0.0006310
  C        2.4408604    -1.1794166    -0.2984167
  C        3.6030640    -0.4211020     0.0005590
  C        3.5068820     0.9758400    -0.0013820
  C        2.2403890     1.5483070    -0.0022070
  H       -1.2410120    -0.5552270    -2.1426030
  H       -1.2397720    -0.5473760     2.1441080
  H       -3.5056790     0.5103880    -2.1530410
  H       -3.5044150     0.5182820     2.1519550
  H        2.4499920    -2.2642250     0.0030920
  H       -4.6315180     1.0439850    -0.0011840
  H        4.5737430    -0.9107530     0.0012630
  H        4.3934310     1.6024650    -0.0022300
  H        2.1135170     2.6292430    -0.0037130
units angstrom
no_reorient  #important for SAPT in psi4, default
symmetry c1  #important for SAPT in psi4, default
}

set PROPERTIES_ORIGIN ["COM"]
properties('MP2/aug-cc-pvtz', properties = ['dipole'])
--------------------------------------------------------------------------

    Molecular point group: c1
  Charge       = 0
  Multiplicity = 1
  Basis Set: AUG-CC-PVTZ
    Blend: AUG-CC-PVTZ
  Basis Set: (AUG-CC-PVTZ AUX)
    Blend: AUG-CC-PVTZ-JKFIT

    Orbital Energies [Eh]
    ---------------------

    Doubly Occupied:

       1A    -20.602551     2A    -15.565490     3A    -11.352237
       4A    -11.296987     5A    -11.289396     6A    -11.273833
       7A    -11.248228     8A    -11.239260     9A    -11.239146
      10A    -11.237976    11A    -11.234313    12A    -11.234264
      13A    -11.233285    14A     -1.434552    15A     -1.256098
      16A     -1.148322    17A     -1.089307    18A     -1.038478
      19A     -1.017709    20A     -0.995726    21A     -0.875690
      22A     -0.859480    23A     -0.836418    24A     -0.804942
      25A     -0.740074    26A     -0.703831    27A     -0.678054
      28A     -0.663512    29A     -0.658558    30A     -0.624853
      31A     -0.609545    32A     -0.596970    33A     -0.590944
      34A     -0.577892    35A     -0.565885    36A     -0.532836
      37A     -0.515227    38A     -0.513668    39A     -0.495920
      40A     -0.482901    41A     -0.430657    42A     -0.388083
      43A     -0.339117    44A     -0.331242    45A     -0.328393

  @DF-RHF Final Energy:  -551.25668149099829

   => Energetics <=

    Nuclear Repulsion Energy =            708.0361459054215629
    One-Electron Energy =               -2153.0419551409822816
    Two-Electron Energy =                 893.7491277445624291
    Total Energy =                       -551.2566814909982895
  Basis Set: (AUG-CC-PVTZ AUX)
    Blend: AUG-CC-PVTZ-RI
    Molecular point group: c1

    Geometry (in Angstrom), charge = 0, multiplicity = 1:

       Center              X                  Y                   Z               Mass
    ------------   -----------------  -----------------  -----------------  -----------------
         O            0.086024349823    -1.258917494067     0.022658521240    15.994914619570
         N            1.092699349823     0.843779505933     0.019787521240    14.003074004430
         C           -1.138855650177    -0.580867494067     0.021822521240    12.000000000000
         C           -1.753922650177    -0.296293494067    -1.194305478760    12.000000000000
         C           -1.753215650177    -0.291844494067     1.237264521240    12.000000000000
         C            1.216073349823    -0.478870494067     0.021627521240    12.000000000000
         C           -3.017873650177     0.295479505933    -1.188898478760    12.000000000000
         C           -3.017161650177     0.299914505933     1.230423521240    12.000000000000
         C           -3.649896650177     0.596237505933     0.020399521240    12.000000000000
         C            2.437410749823    -1.167685094067    -0.277386178760    12.000000000000
         C            3.599614349823    -0.409370494067     0.021589521240    12.000000000000
         C            3.503432349823     0.987571505933     0.019648521240    12.000000000000
         C            2.236939349823     1.560038505933     0.018823521240    12.000000000000
         H           -1.244461650177    -0.543495494067    -2.121572478760     1.007825032230
         H           -1.243221650177    -0.535644494067     2.165138521240     1.007825032230
         H           -3.509128650177     0.522119505933    -2.132010478760     1.007825032230
         H           -3.507864650177     0.530013505933     2.172985521240     1.007825032230
         H            2.446542349823    -2.252493494067     0.024122521240     1.007825032230
         H           -4.634967650177     1.055716505933     0.019846521240     1.007825032230
         H            4.570293349823    -0.899021494067     0.022293521240     1.007825032230
         H            4.389981349823     1.614196505933     0.018800521240     1.007825032230
         H            2.110067349823     2.640974505933     0.017317521240     1.007825032230

  Basis Set: AUG-CC-PVTZ
    Blend: AUG-CC-PVTZ
  Basis Set: (AUG-CC-PVTZ AUX)
    Blend: AUG-CC-PVTZ-JKFIT
	 Reference Energy          =    -551.2566814909982895 [Eh]
	 Singles Energy            =      -0.0000000000000000 [Eh]
	 Same-Spin Energy          =      -0.6003895255271148 [Eh]
	 Opposite-Spin Energy      =      -1.8275845293111663 [Eh]
	 Correlation Energy        =      -2.4279740548382813 [Eh]
	 Total Energy              =    -553.6846555458365629 [Eh]

	 ================> DF-SCS-MP2 Energies <==================
	-----------------------------------------------------------
	 SCS Same-Spin Scale       =       0.3333333333333333 [-]
	 SCS Opposite-Spin Scale   =       1.2000000000000000 [-]
	 SCS Same-Spin Energy      =      -0.2001298418423716 [Eh]
	 SCS Opposite-Spin Energy  =      -2.1931014351733995 [Eh]
	 SCS Correlation Energy    =      -2.3932312770157713 [Eh]
	 SCS Total Energy          =    -553.6499127680140191 [Eh]
	-----------------------------------------------------------

  Dipole Moment: [D]
     X:     1.3438      Y:     0.3934      Z:     0.1481     Total:     1.4080

*** Psi4 exiting successfully. Buy a developer a beer!
