                               Psi4 1.4a2.dev612

  ==> Input File <==

--------------------------------------------------------------------------
#psi4
#
memory 32 gb

molecule  {
0 1
  O        0.0894740    -1.2706490     0.0016280
  N        1.0961490     0.8320480    -0.0012430
  C       -1.1354060    -0.5925990     0.0007920
  C       -1.7504730    -0.3080250    -1.2153360
  C       -1.7497660    -0.3035760     1.2162340
  C        1.2195230    -0.4906020     0.0005970
  C       -3.0144240     0.2837480    -1.2099290
  C       -3.0137120     0.2881830     1.2093930
  C       -3.6464470     0.5845060    -0.0006310
  C        2.4408517    -1.1790711    -0.0484170
  C        3.6030640    -0.4211020     0.0005590
  C        3.5068820     0.9758400    -0.0013820
  C        2.2403890     1.5483070    -0.0022070
  H       -1.2410120    -0.5552270    -2.1426030
  H       -1.2397720    -0.5473760     2.1441080
  H       -3.5056790     0.5103880    -2.1530410
  H       -3.5044150     0.5182820     2.1519550
  H        2.4499920    -2.2642250     0.0030920
  H       -4.6315180     1.0439850    -0.0011840
  H        4.5737430    -0.9107530     0.0012630
  H        4.3934310     1.6024650    -0.0022300
  H        2.1135170     2.6292430    -0.0037130
units angstrom
no_reorient  #important for SAPT in psi4, default
symmetry c1  #important for SAPT in psi4, default
}

set PROPERTIES_ORIGIN ["COM"]
properties('MP2/aug-cc-pvtz', properties = ['dipole'])
--------------------------------------------------------------------------

    Molecular point group: c1
  Charge       = 0
  Multiplicity = 1
  Basis Set: AUG-CC-PVTZ
    Blend: AUG-CC-PVTZ
  Basis Set: (AUG-CC-PVTZ AUX)
    Blend: AUG-CC-PVTZ-JKFIT

    Orbital Energies [Eh]
    ---------------------

    Doubly Occupied:

       1A    -20.600703     2A    -15.565708     3A    -11.345821
       4A    -11.296485     5A    -11.284432     6A    -11.267036
       7A    -11.242071     8A    -11.238856     9A    -11.238750
      10A    -11.237977    11A    -11.233815    12A    -11.233799
      13A    -11.232863    14A     -1.433328    15A     -1.255558
      16A     -1.147910    17A     -1.093259    18A     -1.040225
      19A     -1.017276    20A     -0.996391    21A     -0.878473
      22A     -0.860572    23A     -0.835961    24A     -0.805670
      25A     -0.739845    26A     -0.705992    27A     -0.679380
      28A     -0.668608    29A     -0.658860    30A     -0.628096
      31A     -0.614568    32A     -0.594970    33A     -0.591299
      34A     -0.579940    35A     -0.569889    36A     -0.536425
      37A     -0.517330    38A     -0.513845    39A     -0.495460
      40A     -0.483257    41A     -0.432258    42A     -0.389829
      43A     -0.338675    44A     -0.330692    45A     -0.327883

  @DF-RHF Final Energy:  -551.28197850212234

   => Energetics <=

    Nuclear Repulsion Energy =            709.0485316894692005
    One-Electron Energy =               -2155.1009390524395712
    Two-Electron Energy =                 894.7704288608480283
    Total Energy =                       -551.2819785021223424
  Basis Set: (AUG-CC-PVTZ AUX)
    Blend: AUG-CC-PVTZ-RI
    Molecular point group: c1

    Geometry (in Angstrom), charge = 0, multiplicity = 1:

       Center              X                  Y                   Z               Mass
    ------------   -----------------  -----------------  -----------------  -----------------
         O            0.086024960106    -1.258941729985     0.005121698799    15.994914619570
         N            1.092699960106     0.843755270015     0.002250698799    14.003074004430
         C           -1.138855039894    -0.580891729985     0.004285698799    12.000000000000
         C           -1.753922039894    -0.296317729985    -1.211842301201    12.000000000000
         C           -1.753215039894    -0.291868729985     1.219727698799    12.000000000000
         C            1.216073960106    -0.478894729985     0.004090698799    12.000000000000
         C           -3.017873039894     0.295455270015    -1.206435301201    12.000000000000
         C           -3.017161039894     0.299890270015     1.212886698799    12.000000000000
         C           -3.649896039894     0.596213270015     0.002862698799    12.000000000000
         C            2.437402660106    -1.167363829985    -0.044923301201    12.000000000000
         C            3.599614960106    -0.409394729985     0.004052698799    12.000000000000
         C            3.503432960106     0.987547270015     0.002111698799    12.000000000000
         C            2.236939960106     1.560014270015     0.001286698799    12.000000000000
         H           -1.244461039894    -0.543519729985    -2.139109301201     1.007825032230
         H           -1.243221039894    -0.535668729985     2.147601698799     1.007825032230
         H           -3.509128039894     0.522095270015    -2.149547301201     1.007825032230
         H           -3.507864039894     0.529989270015     2.155448698799     1.007825032230
         H            2.446542960106    -2.252517729985     0.006585698799     1.007825032230
         H           -4.634967039894     1.055692270015     0.002309698799     1.007825032230
         H            4.570293960106    -0.899045729985     0.004756698799     1.007825032230
         H            4.389981960106     1.614172270015     0.001263698799     1.007825032230
         H            2.110067960106     2.640950270015    -0.000219301201     1.007825032230

  Basis Set: AUG-CC-PVTZ
    Blend: AUG-CC-PVTZ
  Basis Set: (AUG-CC-PVTZ AUX)
    Blend: AUG-CC-PVTZ-JKFIT
	 Reference Energy          =    -551.2819785021223424 [Eh]
	 Singles Energy            =      -0.0000000000000000 [Eh]
	 Same-Spin Energy          =      -0.5996360973382469 [Eh]
	 Opposite-Spin Energy      =      -1.8248186327197229 [Eh]
	 Correlation Energy        =      -2.4244547300579695 [Eh]
	 Total Energy              =    -553.7064332321803022 [Eh]

	 ================> DF-SCS-MP2 Energies <==================
	-----------------------------------------------------------
	 SCS Same-Spin Scale       =       0.3333333333333333 [-]
	 SCS Opposite-Spin Scale   =       1.2000000000000000 [-]
	 SCS Same-Spin Energy      =      -0.1998786991127489 [Eh]
	 SCS Opposite-Spin Energy  =      -2.1897823592636674 [Eh]
	 SCS Correlation Energy    =      -2.3896610583764164 [Eh]
	 SCS Total Energy          =    -553.6716395604987611 [Eh]
	-----------------------------------------------------------

  Dipole Moment: [D]
     X:     1.4097      Y:     0.2216      Z:     0.0226     Total:     1.4272

*** Psi4 exiting successfully. Buy a developer a beer!
