                               Psi4 1.4a2.dev612

  ==> Input File <==

--------------------------------------------------------------------------
#psi4
#
memory 32 gb

molecule  {
0 1
  O        0.0894740    -1.2706490     0.0016280
  N        1.0961490     0.8320480    -0.0012430
  C       -1.1354060    -0.5925990     0.0007920
  C       -1.7504730    -0.3080250    -1.2153360
  C       -1.6336460    -0.0821805     1.2157952
  C        1.2195230    -0.4906020     0.0005970
  C       -3.0144240     0.2837480    -1.2099290
  C       -3.0137120     0.2881830     1.2093930
  C       -3.6464470     0.5845060    -0.0006310
  C        2.4408500    -1.1790020     0.0015830
  C        3.6030640    -0.4211020     0.0005590
  C        3.5068820     0.9758400    -0.0013820
  C        2.2403890     1.5483070    -0.0022070
  H       -1.2410120    -0.5552270    -2.1426030
  H       -1.2397720    -0.5473760     2.1441080
  H       -3.5056790     0.5103880    -2.1530410
  H       -3.5044150     0.5182820     2.1519550
  H        2.4499920    -2.2642250     0.0030920
  H       -4.6315180     1.0439850    -0.0011840
  H        4.5737430    -0.9107530     0.0012630
  H        4.3934310     1.6024650    -0.0022300
  H        2.1135170     2.6292430    -0.0037130
units angstrom
no_reorient  #important for SAPT in psi4, default
symmetry c1  #important for SAPT in psi4, default
}

set PROPERTIES_ORIGIN ["COM"]
properties('MP2/aug-cc-pvtz', properties = ['dipole'])
--------------------------------------------------------------------------

    Molecular point group: c1
  Charge       = 0
  Multiplicity = 1
  Basis Set: AUG-CC-PVTZ
    Blend: AUG-CC-PVTZ
  Basis Set: (AUG-CC-PVTZ AUX)
    Blend: AUG-CC-PVTZ-JKFIT

    Orbital Energies [Eh]
    ---------------------

    Doubly Occupied:

       1A    -20.600833     2A    -15.564970     3A    -11.345420
       4A    -11.300744     5A    -11.283754     6A    -11.266422
       7A    -11.244784     8A    -11.241780     9A    -11.241713
      10A    -11.239385    11A    -11.237671    12A    -11.233564
      13A    -11.232471    14A     -1.433644    15A     -1.255023
      16A     -1.145352    17A     -1.093025    18A     -1.039676
      19A     -1.013701    20A     -0.996037    21A     -0.877920
      22A     -0.860200    23A     -0.835050    24A     -0.802975
      25A     -0.739949    26A     -0.705038    27A     -0.676424
      28A     -0.668687    29A     -0.655919    30A     -0.627937
      31A     -0.615236    32A     -0.594453    33A     -0.586744
      34A     -0.575447    35A     -0.568772    36A     -0.535977
      37A     -0.516819    38A     -0.512181    39A     -0.492441
      40A     -0.480303    41A     -0.431190    42A     -0.389553
      43A     -0.337849    44A     -0.331305    45A     -0.325516

  @DF-RHF Final Energy:  -551.26258847943052

   => Energetics <=

    Nuclear Repulsion Energy =            709.2857817443951944
    One-Electron Energy =               -2155.5890238551710354
    Two-Electron Energy =                 895.0406536313454353
    Total Energy =                       -551.2625884794305193
  Basis Set: (AUG-CC-PVTZ AUX)
    Blend: AUG-CC-PVTZ-RI
    Molecular point group: c1

    Geometry (in Angstrom), charge = 0, multiplicity = 1:

       Center              X                  Y                   Z               Mass
    ------------   -----------------  -----------------  -----------------  -----------------
         O            0.077879566294    -1.274476890095     0.001645110770    15.994914619570
         N            1.084554566294     0.828220109905    -0.001225889230    14.003074004430
         C           -1.147000433706    -0.596426890095     0.000809110770    12.000000000000
         C           -1.762067433706    -0.311852890095    -1.215318889230    12.000000000000
         C           -1.645240433706    -0.086008390095     1.215812310770    12.000000000000
         C            1.207928566294    -0.494429890095     0.000614110770    12.000000000000
         C           -3.026018433706     0.279920109905    -1.209911889230    12.000000000000
         C           -3.025306433706     0.284355109905     1.209410110770    12.000000000000
         C           -3.658041433706     0.580678109905    -0.000613889230    12.000000000000
         C            2.429255566294    -1.182829890095     0.001600110770    12.000000000000
         C            3.591469566294    -0.424929890095     0.000576110770    12.000000000000
         C            3.495287566294     0.972012109905    -0.001364889230    12.000000000000
         C            2.228794566294     1.544479109905    -0.002189889230    12.000000000000
         H           -1.252606433706    -0.559054890095    -2.142585889230     1.007825032230
         H           -1.251366433706    -0.551203890095     2.144125110770     1.007825032230
         H           -3.517273433706     0.506560109905    -2.153023889230     1.007825032230
         H           -3.516009433706     0.514454109905     2.151972110770     1.007825032230
         H            2.438397566294    -2.268052890095     0.003109110770     1.007825032230
         H           -4.643112433706     1.040157109905    -0.001166889230     1.007825032230
         H            4.562148566294    -0.914580890095     0.001280110770     1.007825032230
         H            4.381836566294     1.598637109905    -0.002212889230     1.007825032230
         H            2.101922566294     2.625415109905    -0.003695889230     1.007825032230

  Basis Set: AUG-CC-PVTZ
    Blend: AUG-CC-PVTZ
  Basis Set: (AUG-CC-PVTZ AUX)
    Blend: AUG-CC-PVTZ-JKFIT
	 Reference Energy          =    -551.2625884794305193 [Eh]
	 Singles Energy            =      -0.0000000000000000 [Eh]
	 Same-Spin Energy          =      -0.6008748357949637 [Eh]
	 Opposite-Spin Energy      =      -1.8280801192885019 [Eh]
	 Correlation Energy        =      -2.4289549550834657 [Eh]
	 Total Energy              =    -553.6915434345139602 [Eh]

	 ================> DF-SCS-MP2 Energies <==================
	-----------------------------------------------------------
	 SCS Same-Spin Scale       =       0.3333333333333333 [-]
	 SCS Opposite-Spin Scale   =       1.2000000000000000 [-]
	 SCS Same-Spin Energy      =      -0.2002916119316546 [Eh]
	 SCS Opposite-Spin Energy  =      -2.1936961431462021 [Eh]
	 SCS Correlation Energy    =      -2.3939877550778568 [Eh]
	 SCS Total Energy          =    -553.6565762345084067 [Eh]
	-----------------------------------------------------------

  Dipole Moment: [D]
     X:     1.3120      Y:     0.1443      Z:    -0.0885     Total:     1.3229

*** Psi4 exiting successfully. Buy a developer a beer!
