                               Psi4 1.4a2.dev612

  ==> Input File <==

--------------------------------------------------------------------------
#psi4
#
memory 32 gb

molecule  {
0 1
  O        0.0894740    -1.2706490     0.0016280
  N        1.0961490     0.8320480    -0.0012430
  C       -1.1354060    -0.5925990     0.0007920
  C       -1.7504730    -0.3080250    -1.2153360
  C       -1.7497660    -0.3035760     1.2162340
  C        1.2195230    -0.4906020     0.0005970
  C       -3.0144240     0.2837480    -1.2099290
  C       -3.0137120     0.2881830     1.2093930
  C       -3.6464470     0.5845060    -0.0006310
  C        2.4408552    -1.1792093    -0.1484169
  C        3.6030640    -0.4211020     0.0005590
  C        3.5068820     0.9758400    -0.0013820
  C        2.2403890     1.5483070    -0.0022070
  H       -1.2410120    -0.5552270    -2.1426030
  H       -1.2397720    -0.5473760     2.1441080
  H       -3.5056790     0.5103880    -2.1530410
  H       -3.5044150     0.5182820     2.1519550
  H        2.4499920    -2.2642250     0.0030920
  H       -4.6315180     1.0439850    -0.0011840
  H        4.5737430    -0.9107530     0.0012630
  H        4.3934310     1.6024650    -0.0022300
  H        2.1135170     2.6292430    -0.0037130
units angstrom
no_reorient  #important for SAPT in psi4, default
symmetry c1  #important for SAPT in psi4, default
}

set PROPERTIES_ORIGIN ["COM"]
properties('MP2/aug-cc-pvtz', properties = ['dipole'])
--------------------------------------------------------------------------

    Molecular point group: c1
  Charge       = 0
  Multiplicity = 1
  Basis Set: AUG-CC-PVTZ
    Blend: AUG-CC-PVTZ
  Basis Set: (AUG-CC-PVTZ AUX)
    Blend: AUG-CC-PVTZ-JKFIT

    Orbital Energies [Eh]
    ---------------------

    Doubly Occupied:

       1A    -20.601122     2A    -15.565622     3A    -11.347346
       4A    -11.296599     5A    -11.285549     6A    -11.268647
       7A    -11.243533     8A    -11.238948     9A    -11.238838
      10A    -11.237941    11A    -11.233937    12A    -11.233895
      13A    -11.232958    14A     -1.433607    15A     -1.255654
      16A     -1.148002    17A     -1.092297    18A     -1.039833
      19A     -1.017374    20A     -0.996257    21A     -0.877758
      22A     -0.860311    23A     -0.836065    24A     -0.805478
      25A     -0.739845    26A     -0.705333    27A     -0.679018
      28A     -0.667122    29A     -0.658953    30A     -0.627104
      31A     -0.613645    32A     -0.595487    33A     -0.591153
      34A     -0.579417    35A     -0.568955    36A     -0.535677
      37A     -0.516864    38A     -0.513873    39A     -0.495566
      40A     -0.483189    41A     -0.431907    42A     -0.389388
      43A     -0.338765    44A     -0.330779    45A     -0.327997

  @DF-RHF Final Energy:  -551.27630172993986

   => Energetics <=

    Nuclear Repulsion Energy =            708.8120963266050012
    One-Electron Energy =               -2154.6215805666361121
    Two-Electron Energy =                 894.5331825100911374
    Total Energy =                       -551.2763017299398598
  Basis Set: (AUG-CC-PVTZ AUX)
    Blend: AUG-CC-PVTZ-RI
    Molecular point group: c1

    Geometry (in Angstrom), charge = 0, multiplicity = 1:

       Center              X                  Y                   Z               Mass
    ------------   -----------------  -----------------  -----------------  -----------------
         O            0.086024714590    -1.258932035618     0.012136429178    15.994914619570
         N            1.092699714590     0.843764964382     0.009265429178    14.003074004430
         C           -1.138855285410    -0.580882035618     0.011300429178    12.000000000000
         C           -1.753922285410    -0.296308035618    -1.204827570822    12.000000000000
         C           -1.753215285410    -0.291859035618     1.226742429178    12.000000000000
         C            1.216073714590    -0.478885035618     0.011105429178    12.000000000000
         C           -3.017873285410     0.295464964382    -1.199420570822    12.000000000000
         C           -3.017161285410     0.299899964382     1.219901429178    12.000000000000
         C           -3.649896285410     0.596222964382     0.009877429178    12.000000000000
         C            2.437405914590    -1.167492335618    -0.137908470822    12.000000000000
         C            3.599614714590    -0.409385035618     0.011067429178    12.000000000000
         C            3.503432714590     0.987556964382     0.009126429178    12.000000000000
         C            2.236939714590     1.560023964382     0.008301429178    12.000000000000
         H           -1.244461285410    -0.543510035618    -2.132094570822     1.007825032230
         H           -1.243221285410    -0.535659035618     2.154616429178     1.007825032230
         H           -3.509128285410     0.522104964382    -2.142532570822     1.007825032230
         H           -3.507864285410     0.529998964382     2.162463429178     1.007825032230
         H            2.446542714590    -2.252508035618     0.013600429178     1.007825032230
         H           -4.634967285410     1.055701964382     0.009324429178     1.007825032230
         H            4.570293714590    -0.899036035618     0.011771429178     1.007825032230
         H            4.389981714590     1.614181964382     0.008278429178     1.007825032230
         H            2.110067714590     2.640959964382     0.006795429178     1.007825032230

  Basis Set: AUG-CC-PVTZ
    Blend: AUG-CC-PVTZ
  Basis Set: (AUG-CC-PVTZ AUX)
    Blend: AUG-CC-PVTZ-JKFIT
	 Reference Energy          =    -551.2763017299398598 [Eh]
	 Singles Energy            =      -0.0000000000000000 [Eh]
	 Same-Spin Energy          =      -0.5998117158475532 [Eh]
	 Opposite-Spin Energy      =      -1.8253532232169967 [Eh]
	 Correlation Energy        =      -2.4251649390645498 [Eh]
	 Total Energy              =    -553.7014666690043896 [Eh]

	 ================> DF-SCS-MP2 Energies <==================
	-----------------------------------------------------------
	 SCS Same-Spin Scale       =       0.3333333333333333 [-]
	 SCS Opposite-Spin Scale   =       1.2000000000000000 [-]
	 SCS Same-Spin Energy      =      -0.1999372386158511 [Eh]
	 SCS Opposite-Spin Energy  =      -2.1904238678603960 [Eh]
	 SCS Correlation Energy    =      -2.3903611064762469 [Eh]
	 SCS Total Energy          =    -553.6666628364160943 [Eh]
	-----------------------------------------------------------

  Dipole Moment: [D]
     X:     1.3947      Y:     0.2616      Z:     0.0694     Total:     1.4207

*** Psi4 exiting successfully. Buy a developer a beer!
