                               Psi4 1.3.2 release

  ==> Input File <==

--------------------------------------------------------------------------
#psi4
#
memory 32 gb

molecule  {
0 1
  O       -0.1816340    -0.4581900    -0.0001520
  O        1.1902440     1.3536890     0.0000850
  C       -1.3062030     0.4550440     0.0000220
  C       -2.5549260    -0.3966560     0.0000690
  C        1.0354490     0.1438350    -0.0001700
  C        2.1329550    -0.8859990     0.0000420
  H       -1.2412540     1.0963570     0.8832990
  H       -1.2414110     1.0964890    -0.8831720
  H       -3.4424010     0.2425350     0.0001940
  H       -2.5849670    -1.0330240    -0.8868250
  H       -2.5848130    -1.0331530     0.8868760
  H        2.0416630    -1.5248420    -0.8815190
  H        2.0422710    -1.5237540     0.8824640
  H        3.0983910    -0.3819430    -0.0005520
units angstrom
no_reorient  #important for SAPT in psi4, default
symmetry c1  #important for SAPT in psi4, default
}

set PROPERTIES_ORIGIN ["COM"]
properties('MP2/aug-cc-pvtz', properties = ['dipole'])
--------------------------------------------------------------------------

    Molecular point group: c1
  Charge       = 0
  Multiplicity = 1
  Basis Set: AUG-CC-PVTZ
    Blend: AUG-CC-PVTZ
  Basis Set: (AUG-CC-PVTZ AUX)
    Blend: AUG-CC-PVTZ-JKFIT

    Orbital Energies [Eh]
    ---------------------

    Doubly Occupied:

       1A    -20.601032     2A    -20.544034     3A    -11.381877
       4A    -11.288146     5A    -11.241608     6A    -11.225008
       7A     -1.451131     8A     -1.351155     9A     -1.054100
      10A     -1.000721    11A     -0.861904    12A     -0.779469
      13A     -0.688401    14A     -0.682213    15A     -0.661723
      16A     -0.608741    17A     -0.579602    18A     -0.565266
      19A     -0.550745    20A     -0.536395    21A     -0.512570
      22A     -0.500041    23A     -0.458356    24A     -0.446929

  @DF-RHF Final Energy:  -305.99074441656035

   => Energetics <=

    Nuclear Repulsion Energy =            243.1735194785627812
    One-Electron Energy =                -899.1861906530198212
    Two-Electron Energy =                 350.0219267578967219
    Total Energy =                       -305.9907444165603465
  Basis Set: (AUG-CC-PVTZ AUX)
    Blend: AUG-CC-PVTZ-RI
    Molecular point group: c1

    Geometry (in Angstrom), charge = 0, multiplicity = 1:

       Center              X                  Y                   Z               Mass
    ------------   -----------------  -----------------  -----------------  -----------------
         O           -0.225662248325    -0.492633433522    -0.000143542844    15.994914619570
         O            1.146215751675     1.319245566478     0.000093457156    15.994914619570
         C           -1.350231248325     0.420600566478     0.000030457156    12.000000000000
         C           -2.598954248325    -0.431099433522     0.000077457156    12.000000000000
         C            0.991420751675     0.109391566478    -0.000161542844    12.000000000000
         C            2.088926751675    -0.920442433522     0.000050457156    12.000000000000
         H           -1.285282248325     1.061913566478     0.883307457156     1.007825032230
         H           -1.285439248325     1.062045566478    -0.883163542844     1.007825032230
         H           -3.486429248325     0.208091566478     0.000202457156     1.007825032230
         H           -2.628995248325    -1.067467433522    -0.886816542844     1.007825032230
         H           -2.628841248325    -1.067596433522     0.886884457156     1.007825032230
         H            1.997634751675    -1.559285433522    -0.881510542844     1.007825032230
         H            1.998242751675    -1.558197433522     0.882472457156     1.007825032230
         H            3.054362751675    -0.416386433522    -0.000543542844     1.007825032230

  Basis Set: AUG-CC-PVTZ
    Blend: AUG-CC-PVTZ
  Basis Set: (AUG-CC-PVTZ AUX)
    Blend: AUG-CC-PVTZ-JKFIT
	 Reference Energy          =    -305.9907444165603465 [Eh]
	 Singles Energy            =      -0.0000000000000000 [Eh]
	 Same-Spin Energy          =      -0.2972522885003933 [Eh]
	 Opposite-Spin Energy      =      -0.9763290062147173 [Eh]
	 Correlation Energy        =      -1.2735812947151106 [Eh]
	 Total Energy              =    -307.2643257112754327 [Eh]

	 ================> DF-SCS-MP2 Energies <==================
	-----------------------------------------------------------
	 SCS Same-Spin Scale       =       0.3333333333333333 [-]
	 SCS Opposite-Spin Scale   =       1.2000000000000000 [-]
	 SCS Same-Spin Energy      =      -0.0990840961667978 [Eh]
	 SCS Opposite-Spin Energy  =      -1.1715948074576608 [Eh]
	 SCS Correlation Energy    =      -1.2706789036244586 [Eh]
	 SCS Total Energy          =    -307.2614233201848037 [Eh]
	-----------------------------------------------------------

  Dipole Moment: [D]
     X:    -0.9827      Y:    -1.6823      Z:     0.0000     Total:     1.9483

*** Psi4 exiting successfully. Buy a developer a beer!
