                               Psi4 1.3.2 release

  ==> Input File <==

--------------------------------------------------------------------------
#psi4
#
memory 32 gb

molecule  {
0 1
  O       -0.1816340    -0.4581900    -0.0001520
  O        1.1902440     1.3536890     0.0000850
  C       -1.3062030     0.4550440     0.0000220
  C       -2.5549260    -0.3966560     0.0000690
  C        1.0354490     0.1438350    -0.0001700
  C        2.1329739    -0.8859872    -0.1999580
  H       -1.2412540     1.0963570     0.8832990
  H       -1.2414110     1.0964890    -0.8831720
  H       -3.4424010     0.2425350     0.0001940
  H       -2.5849670    -1.0330240    -0.8868250
  H       -2.5848130    -1.0331530     0.8868760
  H        2.0416630    -1.5248420    -0.8815190
  H        2.0422710    -1.5237540     0.8824640
  H        3.0983910    -0.3819430    -0.0005520
units angstrom
no_reorient  #important for SAPT in psi4, default
symmetry c1  #important for SAPT in psi4, default
}

set PROPERTIES_ORIGIN ["COM"]
properties('MP2/aug-cc-pvtz', properties = ['dipole'])
--------------------------------------------------------------------------

    Molecular point group: c1
  Charge       = 0
  Multiplicity = 1
  Basis Set: AUG-CC-PVTZ
    Blend: AUG-CC-PVTZ
  Basis Set: (AUG-CC-PVTZ AUX)
    Blend: AUG-CC-PVTZ-JKFIT

    Orbital Energies [Eh]
    ---------------------

    Doubly Occupied:

       1A    -20.601335     2A    -20.545223     3A    -11.385294
       4A    -11.288414     5A    -11.247297     6A    -11.225167
       7A     -1.451641     8A     -1.352025     9A     -1.054311
      10A     -1.002729    11A     -0.863441    12A     -0.781614
      13A     -0.704075    14A     -0.681387    15A     -0.665218
      16A     -0.621629    17A     -0.583008    18A     -0.564395
      19A     -0.540365    20A     -0.521317    21A     -0.512860
      22A     -0.492435    23A     -0.458945    24A     -0.444319

  @DF-RHF Final Energy:  -305.94915123284932

   => Energetics <=

    Nuclear Repulsion Energy =            243.0185784734119920
    One-Electron Energy =                -898.7585746562862141
    Two-Electron Energy =                 349.7908449500248480
    Total Energy =                       -305.9491512328493172
  Basis Set: (AUG-CC-PVTZ AUX)
    Blend: AUG-CC-PVTZ-RI
    Molecular point group: c1

    Geometry (in Angstrom), charge = 0, multiplicity = 1:

       Center              X                  Y                   Z               Mass
    ------------   -----------------  -----------------  -----------------  -----------------
         O           -0.225664824063    -0.492635041655     0.027112945293    15.994914619570
         O            1.146213175937     1.319243958345     0.027349945293    15.994914619570
         C           -1.350233824063     0.420598958345     0.027286945293    12.000000000000
         C           -2.598956824063    -0.431101041655     0.027333945293    12.000000000000
         C            0.991418175937     0.109389958345     0.027094945293    12.000000000000
         C            2.088943075937    -0.920432241655    -0.172693054707    12.000000000000
         H           -1.285284824063     1.061911958345     0.910563945293     1.007825032230
         H           -1.285441824063     1.062043958345    -0.855907054707     1.007825032230
         H           -3.486431824063     0.208089958345     0.027458945293     1.007825032230
         H           -2.628997824063    -1.067469041655    -0.859560054707     1.007825032230
         H           -2.628843824063    -1.067598041655     0.914140945293     1.007825032230
         H            1.997632175937    -1.559287041655    -0.854254054707     1.007825032230
         H            1.998240175937    -1.558199041655     0.909728945293     1.007825032230
         H            3.054360175937    -0.416388041655     0.026712945293     1.007825032230

  Basis Set: AUG-CC-PVTZ
    Blend: AUG-CC-PVTZ
  Basis Set: (AUG-CC-PVTZ AUX)
    Blend: AUG-CC-PVTZ-JKFIT
	 Reference Energy          =    -305.9491512328493172 [Eh]
	 Singles Energy            =      -0.0000000000000000 [Eh]
	 Same-Spin Energy          =      -0.2977737473630149 [Eh]
	 Opposite-Spin Energy      =      -0.9781461067777207 [Eh]
	 Correlation Energy        =      -1.2759198541407355 [Eh]
	 Total Energy              =    -307.2250710869900558 [Eh]

	 ================> DF-SCS-MP2 Energies <==================
	-----------------------------------------------------------
	 SCS Same-Spin Scale       =       0.3333333333333333 [-]
	 SCS Opposite-Spin Scale   =       1.2000000000000000 [-]
	 SCS Same-Spin Energy      =      -0.0992579157876716 [Eh]
	 SCS Opposite-Spin Energy  =      -1.1737753281332648 [Eh]
	 SCS Correlation Energy    =      -1.2730332439209364 [Eh]
	 SCS Total Energy          =    -307.2221844767702805 [Eh]
	-----------------------------------------------------------

  Dipole Moment: [D]
     X:    -0.9999      Y:    -1.6384      Z:    -0.0408     Total:     1.9198

*** Psi4 exiting successfully. Buy a developer a beer!
