                               Psi4 1.3.2 release

  ==> Input File <==

--------------------------------------------------------------------------
#psi4
#
memory 32 gb

molecule  {
0 1
  O       -0.1816340    -0.4581900    -0.0001520
  O        1.1902440     1.3536890     0.0000850
  C       -1.3062030     0.4550440     0.0000220
  C       -2.5549260    -0.3966560     0.0000690
  C        1.0354490     0.1438350    -0.0001700
  C        2.1329597    -0.8859960    -0.0499580
  H       -1.2412540     1.0963570     0.8832990
  H       -1.2414110     1.0964890    -0.8831720
  H       -3.4424010     0.2425350     0.0001940
  H       -2.5849670    -1.0330240    -0.8868250
  H       -2.5848130    -1.0331530     0.8868760
  H        2.0416630    -1.5248420    -0.8815190
  H        2.0422710    -1.5237540     0.8824640
  H        3.0983910    -0.3819430    -0.0005520
units angstrom
no_reorient  #important for SAPT in psi4, default
symmetry c1  #important for SAPT in psi4, default
}

set PROPERTIES_ORIGIN ["COM"]
properties('MP2/aug-cc-pvtz', properties = ['dipole'])
--------------------------------------------------------------------------

    Molecular point group: c1
  Charge       = 0
  Multiplicity = 1
  Basis Set: AUG-CC-PVTZ
    Blend: AUG-CC-PVTZ
  Basis Set: (AUG-CC-PVTZ AUX)
    Blend: AUG-CC-PVTZ-JKFIT

    Orbital Energies [Eh]
    ---------------------

    Doubly Occupied:

       1A    -20.601051     2A    -20.544109     3A    -11.382093
       4A    -11.288162     5A    -11.241966     6A    -11.225018
       7A     -1.451163     8A     -1.351210     9A     -1.054110
      10A     -1.000837    11A     -0.861994    12A     -0.779587
      13A     -0.689481    14A     -0.682028    15A     -0.661983
      16A     -0.610379    17A     -0.580032    18A     -0.565376
      19A     -0.548555    20A     -0.535672    21A     -0.512591
      22A     -0.499702    23A     -0.458396    24A     -0.446790

  @DF-RHF Final Energy:  -305.98818718092025

   => Energetics <=

    Nuclear Repulsion Energy =            243.1637532440269922
    One-Electron Energy =                -899.1593142562887806
    Two-Electron Energy =                 350.0073738313415106
    Total Energy =                       -305.9881871809202494
  Basis Set: (AUG-CC-PVTZ AUX)
    Blend: AUG-CC-PVTZ-RI
    Molecular point group: c1

    Geometry (in Angstrom), charge = 0, multiplicity = 1:

       Center              X                  Y                   Z               Mass
    ------------   -----------------  -----------------  -----------------  -----------------
         O           -0.225662888853    -0.492633842370     0.006670579190    15.994914619570
         O            1.146215111147     1.319245157630     0.006907579190    15.994914619570
         C           -1.350231888853     0.420600157630     0.006844579190    12.000000000000
         C           -2.598954888853    -0.431099842370     0.006891579190    12.000000000000
         C            0.991420111147     0.109391157630     0.006652579190    12.000000000000
         C            2.088930811147    -0.920439842370    -0.043135420810    12.000000000000
         H           -1.285282888853     1.061913157630     0.890121579190     1.007825032230
         H           -1.285439888853     1.062045157630    -0.876349420810     1.007825032230
         H           -3.486429888853     0.208091157630     0.007016579190     1.007825032230
         H           -2.628995888853    -1.067467842370    -0.880002420810     1.007825032230
         H           -2.628841888853    -1.067596842370     0.893698579190     1.007825032230
         H            1.997634111147    -1.559285842370    -0.874696420810     1.007825032230
         H            1.998242111147    -1.558197842370     0.889286579190     1.007825032230
         H            3.054362111147    -0.416386842370     0.006270579190     1.007825032230

  Basis Set: AUG-CC-PVTZ
    Blend: AUG-CC-PVTZ
  Basis Set: (AUG-CC-PVTZ AUX)
    Blend: AUG-CC-PVTZ-JKFIT
	 Reference Energy          =    -305.9881871809202494 [Eh]
	 Singles Energy            =      -0.0000000000000000 [Eh]
	 Same-Spin Energy          =      -0.2972843084199731 [Eh]
	 Opposite-Spin Energy      =      -0.9764382979688754 [Eh]
	 Correlation Energy        =      -1.2737226063888485 [Eh]
	 Total Energy              =    -307.2619097873090936 [Eh]

	 ================> DF-SCS-MP2 Energies <==================
	-----------------------------------------------------------
	 SCS Same-Spin Scale       =       0.3333333333333333 [-]
	 SCS Opposite-Spin Scale   =       1.2000000000000000 [-]
	 SCS Same-Spin Energy      =      -0.0990947694733244 [Eh]
	 SCS Opposite-Spin Energy  =      -1.1717259575626504 [Eh]
	 SCS Correlation Energy    =      -1.2708207270359748 [Eh]
	 SCS Total Energy          =    -307.2590079079562315 [Eh]
	-----------------------------------------------------------

  Dipole Moment: [D]
     X:    -0.9837      Y:    -1.6794      Z:    -0.0116     Total:     1.9463

*** Psi4 exiting successfully. Buy a developer a beer!
