                               Psi4 1.3.2 release

  ==> Input File <==

--------------------------------------------------------------------------
#psi4
#
memory 32 gb

molecule  {
0 1
  O       -0.1816340    -0.4581900    -0.0001520
  O        1.1902440     1.3536890     0.0000850
  C       -1.3062030     0.4550440     0.0000220
  C       -2.5549260    -0.3966560     0.0000690
  C        1.0354490     0.1438350    -0.0001700
  C        2.1329692    -0.8859901    -0.1499580
  H       -1.2412540     1.0963570     0.8832990
  H       -1.2414110     1.0964890    -0.8831720
  H       -3.4424010     0.2425350     0.0001940
  H       -2.5849670    -1.0330240    -0.8868250
  H       -2.5848130    -1.0331530     0.8868760
  H        2.0416630    -1.5248420    -0.8815190
  H        2.0422710    -1.5237540     0.8824640
  H        3.0983910    -0.3819430    -0.0005520
units angstrom
no_reorient  #important for SAPT in psi4, default
symmetry c1  #important for SAPT in psi4, default
}

set PROPERTIES_ORIGIN ["COM"]
properties('MP2/aug-cc-pvtz', properties = ['dipole'])
--------------------------------------------------------------------------

    Molecular point group: c1
  Charge       = 0
  Multiplicity = 1
  Basis Set: AUG-CC-PVTZ
    Blend: AUG-CC-PVTZ
  Basis Set: (AUG-CC-PVTZ AUX)
    Blend: AUG-CC-PVTZ-JKFIT

    Orbital Energies [Eh]
    ---------------------

    Doubly Occupied:

       1A    -20.601202     2A    -20.544706     3A    -11.383812
       4A    -11.288297     5A    -11.244813     6A    -11.225097
       7A     -1.451419     8A     -1.351648     9A     -1.054206
      10A     -1.001808    11A     -0.862743    12A     -0.780608
      13A     -0.697489    14A     -0.681474    15A     -0.663879
      16A     -0.618486    17A     -0.581954    18A     -0.564996
      19A     -0.541787    20A     -0.527272    21A     -0.512748
      22A     -0.496330    23A     -0.458702    24A     -0.445567

  @DF-RHF Final Energy:  -305.96751293511903

   => Energetics <=

    Nuclear Repulsion Energy =            243.0860052219007343
    One-Electron Energy =                -898.9449507861638722
    Two-Electron Energy =                 349.8914326291441625
    Total Energy =                       -305.9675129351190321
  Basis Set: (AUG-CC-PVTZ AUX)
    Blend: AUG-CC-PVTZ-RI
    Molecular point group: c1

    Geometry (in Angstrom), charge = 0, multiplicity = 1:

       Center              X                  Y                   Z               Mass
    ------------   -----------------  -----------------  -----------------  -----------------
         O           -0.225664183536    -0.492634646436     0.020298823259    15.994914619570
         O            1.146213816464     1.319244353564     0.020535823259    15.994914619570
         C           -1.350233183536     0.420599353564     0.020472823259    12.000000000000
         C           -2.598956183536    -0.431100646436     0.020519823259    12.000000000000
         C            0.991418816464     0.109390353564     0.020280823259    12.000000000000
         C            2.088939016464    -0.920434746436    -0.129507176741    12.000000000000
         H           -1.285284183536     1.061912353564     0.903749823259     1.007825032230
         H           -1.285441183536     1.062044353564    -0.862721176741     1.007825032230
         H           -3.486431183536     0.208090353564     0.020644823259     1.007825032230
         H           -2.628997183536    -1.067468646436    -0.866374176741     1.007825032230
         H           -2.628843183536    -1.067597646436     0.907326823259     1.007825032230
         H            1.997632816464    -1.559286646436    -0.861068176741     1.007825032230
         H            1.998240816464    -1.558198646436     0.902914823259     1.007825032230
         H            3.054360816464    -0.416387646436     0.019898823259     1.007825032230

  Basis Set: AUG-CC-PVTZ
    Blend: AUG-CC-PVTZ
  Basis Set: (AUG-CC-PVTZ AUX)
    Blend: AUG-CC-PVTZ-JKFIT
	 Reference Energy          =    -305.9675129351190321 [Eh]
	 Singles Energy            =      -0.0000000000000000 [Eh]
	 Same-Spin Energy          =      -0.2975435278708450 [Eh]
	 Opposite-Spin Energy      =      -0.9773363914335145 [Eh]
	 Correlation Energy        =      -1.2748799193043596 [Eh]
	 Total Energy              =    -307.2423928544233718 [Eh]

	 ================> DF-SCS-MP2 Energies <==================
	-----------------------------------------------------------
	 SCS Same-Spin Scale       =       0.3333333333333333 [-]
	 SCS Opposite-Spin Scale   =       1.2000000000000000 [-]
	 SCS Same-Spin Energy      =      -0.0991811759569483 [Eh]
	 SCS Opposite-Spin Energy  =      -1.1728036697202173 [Eh]
	 SCS Correlation Energy    =      -1.2719848456771656 [Eh]
	 SCS Total Energy          =    -307.2394977807961709 [Eh]
	-----------------------------------------------------------

  Dipole Moment: [D]
     X:    -0.9922      Y:    -1.6569      Z:    -0.0327     Total:     1.9315

*** Psi4 exiting successfully. Buy a developer a beer!
