                               Psi4 1.3.2 release

  ==> Input File <==

--------------------------------------------------------------------------
#psi4
#
memory 32 gb

molecule  {
0 1
  O       -0.1816340    -0.4581900    -0.0001520
  O        1.1902440     1.3536890     0.0000850
  C       -1.3062030     0.4550440     0.0000220
  C       -2.5549260    -0.3966560     0.0000690
  C        1.0354490     0.1438350    -0.0001700
  C        2.1329834    -0.8859813    -0.2999580
  H       -1.2412540     1.0963570     0.8832990
  H       -1.2414110     1.0964890    -0.8831720
  H       -3.4424010     0.2425350     0.0001940
  H       -2.5849670    -1.0330240    -0.8868250
  H       -2.5848130    -1.0331530     0.8868760
  H        2.0416630    -1.5248420    -0.8815190
  H        2.0422710    -1.5237540     0.8824640
  H        3.0983910    -0.3819430    -0.0005520
units angstrom
no_reorient  #important for SAPT in psi4, default
symmetry c1  #important for SAPT in psi4, default
}

set PROPERTIES_ORIGIN ["COM"]
properties('MP2/aug-cc-pvtz', properties = ['dipole'])
--------------------------------------------------------------------------

    Molecular point group: c1
  Charge       = 0
  Multiplicity = 1
  Basis Set: AUG-CC-PVTZ
    Blend: AUG-CC-PVTZ
  Basis Set: (AUG-CC-PVTZ AUX)
    Blend: AUG-CC-PVTZ-JKFIT

    Orbital Energies [Eh]
    ---------------------

    Doubly Occupied:

       1A    -20.601719     2A    -20.546654     3A    -11.389400
       4A    -11.288749     5A    -11.254341     6A    -11.225369
       7A     -1.452259     8A     -1.353066     9A     -1.054724
      10A     -1.005689    11A     -0.865607    12A     -0.784980
      13A     -0.719615    14A     -0.681551    15A     -0.667792
      16A     -0.623580    17A     -0.585226    18A     -0.562832
      19A     -0.538342    20A     -0.514664    21A     -0.512586
      22A     -0.480253    23A     -0.459473    24A     -0.439675

  @DF-RHF Final Energy:  -305.89562936281970

   => Energetics <=

    Nuclear Repulsion Energy =            242.8284324441666513
    One-Electron Energy =                -898.2318260778874901
    Two-Electron Energy =                 349.5077642709011343
    Total Energy =                       -305.8956293628197045
  Basis Set: (AUG-CC-PVTZ AUX)
    Blend: AUG-CC-PVTZ-RI
    Molecular point group: c1

    Geometry (in Angstrom), charge = 0, multiplicity = 1:

       Center              X                  Y                   Z               Mass
    ------------   -----------------  -----------------  -----------------  -----------------
         O           -0.225666118746    -0.492635845722     0.040741189361    15.994914619570
         O            1.146211881254     1.319243154278     0.040978189361    15.994914619570
         C           -1.350235118746     0.420598154278     0.040915189361    12.000000000000
         C           -2.598958118746    -0.431101845722     0.040962189361    12.000000000000
         C            0.991416881254     0.109389154278     0.040723189361    12.000000000000
         C            2.088951281254    -0.920427145722    -0.259064810639    12.000000000000
         H           -1.285286118746     1.061911154278     0.924192189361     1.007825032230
         H           -1.285443118746     1.062043154278    -0.842278810639     1.007825032230
         H           -3.486433118746     0.208089154278     0.041087189361     1.007825032230
         H           -2.628999118746    -1.067469845722    -0.845931810639     1.007825032230
         H           -2.628845118746    -1.067598845722     0.927769189361     1.007825032230
         H            1.997630881254    -1.559287845722    -0.840625810639     1.007825032230
         H            1.998238881254    -1.558199845722     0.923357189361     1.007825032230
         H            3.054358881254    -0.416388845722     0.040341189361     1.007825032230

  Basis Set: AUG-CC-PVTZ
    Blend: AUG-CC-PVTZ
  Basis Set: (AUG-CC-PVTZ AUX)
    Blend: AUG-CC-PVTZ-JKFIT
	 Reference Energy          =    -305.8956293628197045 [Eh]
	 Singles Energy            =      -0.0000000000000000 [Eh]
	 Same-Spin Energy          =      -0.2984470010815296 [Eh]
	 Opposite-Spin Energy      =      -0.9805389241589659 [Eh]
	 Correlation Energy        =      -1.2789859252404956 [Eh]
	 Total Energy              =    -307.1746152880601812 [Eh]

	 ================> DF-SCS-MP2 Energies <==================
	-----------------------------------------------------------
	 SCS Same-Spin Scale       =       0.3333333333333333 [-]
	 SCS Opposite-Spin Scale   =       1.2000000000000000 [-]
	 SCS Same-Spin Energy      =      -0.0994823336938432 [Eh]
	 SCS Opposite-Spin Energy  =      -1.1766467089907591 [Eh]
	 SCS Correlation Energy    =      -1.2761290426846024 [Eh]
	 SCS Total Energy          =    -307.1717584055043062 [Eh]
	-----------------------------------------------------------

  Dipole Moment: [D]
     X:    -1.0236      Y:    -1.5917      Z:    -0.0477     Total:     1.8930

*** Psi4 exiting successfully. Buy a developer a beer!
