                               Psi4 1.3.2 release

  ==> Input File <==

--------------------------------------------------------------------------
#psi4
#
memory 32 gb

molecule  {
0 1
  O       -0.1816340    -0.4581900    -0.0001520
  O        1.1902440     1.3536890     0.0000850
  C       -1.3062030     0.4550440     0.0000220
  C       -2.5549260    -0.3966560     0.0000690
  C        1.0354490     0.1438350    -0.0001700
  C        2.1329645    -0.8859931    -0.0999580
  H       -1.2412540     1.0963570     0.8832990
  H       -1.2414110     1.0964890    -0.8831720
  H       -3.4424010     0.2425350     0.0001940
  H       -2.5849670    -1.0330240    -0.8868250
  H       -2.5848130    -1.0331530     0.8868760
  H        2.0416630    -1.5248420    -0.8815190
  H        2.0422710    -1.5237540     0.8824640
  H        3.0983910    -0.3819430    -0.0005520
units angstrom
no_reorient  #important for SAPT in psi4, default
symmetry c1  #important for SAPT in psi4, default
}

set PROPERTIES_ORIGIN ["COM"]
properties('MP2/aug-cc-pvtz', properties = ['dipole'])
--------------------------------------------------------------------------

    Molecular point group: c1
  Charge       = 0
  Multiplicity = 1
  Basis Set: AUG-CC-PVTZ
    Blend: AUG-CC-PVTZ
  Basis Set: (AUG-CC-PVTZ AUX)
    Blend: AUG-CC-PVTZ-JKFIT

    Orbital Energies [Eh]
    ---------------------

    Doubly Occupied:

       1A    -20.601107     2A    -20.544333     3A    -11.382741
       4A    -11.288213     5A    -11.243034     6A    -11.225047
       7A     -1.451259     8A     -1.351375     9A     -1.054143
      10A     -1.001190    11A     -0.862268    12A     -0.779953
      13A     -0.692557    14A     -0.681703    15A     -0.662737
      16A     -0.614284    17A     -0.580937    18A     -0.565352
      19A     -0.544470    20A     -0.532796    21A     -0.512652
      22A     -0.498583    23A     -0.458514    24A     -0.446355

  @DF-RHF Final Energy:  -305.98047645128622

   => Energetics <=

    Nuclear Repulsion Energy =            243.1345063930239121
    One-Electron Energy =                -899.0787561543307902
    Two-Electron Energy =                 349.9637733100206560
    Total Energy =                       -305.9804764512862221
  Basis Set: (AUG-CC-PVTZ AUX)
    Blend: AUG-CC-PVTZ-RI
    Molecular point group: c1

    Geometry (in Angstrom), charge = 0, multiplicity = 1:

       Center              X                  Y                   Z               Mass
    ------------   -----------------  -----------------  -----------------  -----------------
         O           -0.225663543008    -0.492634237589     0.013484701224    15.994914619570
         O            1.146214456992     1.319244762411     0.013721701224    15.994914619570
         C           -1.350232543008     0.420599762411     0.013658701224    12.000000000000
         C           -2.598955543008    -0.431100237589     0.013705701224    12.000000000000
         C            0.991419456992     0.109390762411     0.013466701224    12.000000000000
         C            2.088934956992    -0.920437337589    -0.086321298776    12.000000000000
         H           -1.285283543008     1.061912762411     0.896935701224     1.007825032230
         H           -1.285440543008     1.062044762411    -0.869535298776     1.007825032230
         H           -3.486430543008     0.208090762411     0.013830701224     1.007825032230
         H           -2.628996543008    -1.067468237589    -0.873188298776     1.007825032230
         H           -2.628842543008    -1.067597237589     0.900512701224     1.007825032230
         H            1.997633456992    -1.559286237589    -0.867882298776     1.007825032230
         H            1.998241456992    -1.558198237589     0.896100701224     1.007825032230
         H            3.054361456992    -0.416387237589     0.013084701224     1.007825032230

  Basis Set: AUG-CC-PVTZ
    Blend: AUG-CC-PVTZ
  Basis Set: (AUG-CC-PVTZ AUX)
    Blend: AUG-CC-PVTZ-JKFIT
	 Reference Energy          =    -305.9804764512862221 [Eh]
	 Singles Energy            =      -0.0000000000000000 [Eh]
	 Same-Spin Energy          =      -0.2973809798788046 [Eh]
	 Opposite-Spin Energy      =      -0.9767709445121101 [Eh]
	 Correlation Energy        =      -1.2741519243909147 [Eh]
	 Total Energy              =    -307.2546283756771572 [Eh]

	 ================> DF-SCS-MP2 Energies <==================
	-----------------------------------------------------------
	 SCS Same-Spin Scale       =       0.3333333333333333 [-]
	 SCS Opposite-Spin Scale   =       1.2000000000000000 [-]
	 SCS Same-Spin Energy      =      -0.0991269932929349 [Eh]
	 SCS Opposite-Spin Energy  =      -1.1721251334145322 [Eh]
	 SCS Correlation Energy    =      -1.2712521267074670 [Eh]
	 SCS Total Energy          =    -307.2517285779936742 [Eh]
	-----------------------------------------------------------

  Dipole Moment: [D]
     X:    -0.9868      Y:    -1.6708      Z:    -0.0228     Total:     1.9406

*** Psi4 exiting successfully. Buy a developer a beer!
