                               Psi4 1.3.2 release

  ==> Input File <==

--------------------------------------------------------------------------
#psi4
#
memory 32 gb

molecule  {
0 1
  O       -0.1816340    -0.4581900    -0.0001520
  O        1.1902440     1.3536890     0.0000850
  C       -1.3062030     0.4550440     0.0000220
  C       -2.5549260    -0.3966560     0.0000690
  C        1.0354490     0.1438350    -0.0001700
  C        2.1329787    -0.8859842    -0.2499580
  H       -1.2412540     1.0963570     0.8832990
  H       -1.2414110     1.0964890    -0.8831720
  H       -3.4424010     0.2425350     0.0001940
  H       -2.5849670    -1.0330240    -0.8868250
  H       -2.5848130    -1.0331530     0.8868760
  H        2.0416630    -1.5248420    -0.8815190
  H        2.0422710    -1.5237540     0.8824640
  H        3.0983910    -0.3819430    -0.0005520
units angstrom
no_reorient  #important for SAPT in psi4, default
symmetry c1  #important for SAPT in psi4, default
}

set PROPERTIES_ORIGIN ["COM"]
properties('MP2/aug-cc-pvtz', properties = ['dipole'])
--------------------------------------------------------------------------

    Molecular point group: c1
  Charge       = 0
  Multiplicity = 1
  Basis Set: AUG-CC-PVTZ
    Blend: AUG-CC-PVTZ
  Basis Set: (AUG-CC-PVTZ AUX)
    Blend: AUG-CC-PVTZ-JKFIT

    Orbital Energies [Eh]
    ---------------------

    Doubly Occupied:

       1A    -20.601508     2A    -20.545875     3A    -11.387166
       4A    -11.288566     5A    -11.250478     6A    -11.225258
       7A     -1.451922     8A     -1.352500     9A     -1.054476
      10A     -1.004005    11A     -0.864389    12A     -0.783049
      13A     -0.711741    14A     -0.681423    15A     -0.666559
      16A     -0.623282    17A     -0.584098    18A     -0.563649
      19A     -0.539331    20A     -0.516935    21A     -0.512920
      22A     -0.486793    23A     -0.459217    24A     -0.442436

  @DF-RHF Final Energy:  -305.92523234834528

   => Energetics <=

    Nuclear Repulsion Energy =            242.9326062974908496
    One-Electron Energy =                -898.5205207489078703
    Two-Electron Energy =                 349.6626821030716883
    Total Energy =                       -305.9252323483452756
  Basis Set: (AUG-CC-PVTZ AUX)
    Blend: AUG-CC-PVTZ-RI
    Molecular point group: c1

    Geometry (in Angstrom), charge = 0, multiplicity = 1:

       Center              X                  Y                   Z               Mass
    ------------   -----------------  -----------------  -----------------  -----------------
         O           -0.225665478219    -0.492635450503     0.033927067327    15.994914619570
         O            1.146212521781     1.319243549497     0.034164067327    15.994914619570
         C           -1.350234478219     0.420598549497     0.034101067327    12.000000000000
         C           -2.598957478219    -0.431101450503     0.034148067327    12.000000000000
         C            0.991417521781     0.109389549497     0.033909067327    12.000000000000
         C            2.088947221781    -0.920429650503    -0.215878932673    12.000000000000
         H           -1.285285478219     1.061911549497     0.917378067327     1.007825032230
         H           -1.285442478219     1.062043549497    -0.849092932673     1.007825032230
         H           -3.486432478219     0.208089549497     0.034273067327     1.007825032230
         H           -2.628998478219    -1.067469450503    -0.852745932673     1.007825032230
         H           -2.628844478219    -1.067598450503     0.920955067327     1.007825032230
         H            1.997631521781    -1.559287450503    -0.847439932673     1.007825032230
         H            1.998239521781    -1.558199450503     0.916543067327     1.007825032230
         H            3.054359521781    -0.416388450503     0.033527067327     1.007825032230

  Basis Set: AUG-CC-PVTZ
    Blend: AUG-CC-PVTZ
  Basis Set: (AUG-CC-PVTZ AUX)
    Blend: AUG-CC-PVTZ-JKFIT
	 Reference Energy          =    -305.9252323483452756 [Eh]
	 Singles Energy            =      -0.0000000000000000 [Eh]
	 Same-Spin Energy          =      -0.2980739396166727 [Eh]
	 Opposite-Spin Energy      =      -0.9792108024604956 [Eh]
	 Correlation Energy        =      -1.2772847420771685 [Eh]
	 Total Energy              =    -307.2025170904224183 [Eh]

	 ================> DF-SCS-MP2 Energies <==================
	-----------------------------------------------------------
	 SCS Same-Spin Scale       =       0.3333333333333333 [-]
	 SCS Opposite-Spin Scale   =       1.2000000000000000 [-]
	 SCS Same-Spin Energy      =      -0.0993579798722242 [Eh]
	 SCS Opposite-Spin Energy  =      -1.1750529629525948 [Eh]
	 SCS Correlation Energy    =      -1.2744109428248189 [Eh]
	 SCS Total Energy          =    -307.1996432911701049 [Eh]
	-----------------------------------------------------------

  Dipole Moment: [D]
     X:    -1.0103      Y:    -1.6162      Z:    -0.0461     Total:     1.9065

*** Psi4 exiting successfully. Buy a developer a beer!
