                               Psi4 1.3.2 release

  ==> Input File <==

--------------------------------------------------------------------------
#psi4
#
memory 32 gb

molecule  {
0 1
  C       -2.4205560     0.0000000     0.0118300
  C        1.9026710    -0.0000040     0.0093960
  C        1.1996400    -1.2063010     0.0018590
  C        1.1996470     1.2062960     0.0018580
  C       -0.1961990    -1.2029620    -0.0082140
  C       -0.1939414     1.2029669     0.2417769
  C       -0.9136400     0.0000050    -0.0165360
  H        2.9899420    -0.0000050     0.0144970
  H        1.7382270    -2.1512330     0.0030650
  H        1.7382400     2.1512250     0.0030610
  H       -0.7371330    -2.1480740    -0.0183500
  H       -0.7371210     2.1480830    -0.0183460
  H       -2.8237680    -0.8851500    -0.4884320
  H       -2.8237700     0.8853450    -0.4880880
  H       -2.7968300    -0.0002010     1.0407190
units angstrom
no_reorient  #important for SAPT in psi4, default
symmetry c1  #important for SAPT in psi4, default
}

set PROPERTIES_ORIGIN ["COM"]
properties('MP2/aug-cc-pvtz', properties = ['dipole'])
--------------------------------------------------------------------------

    Molecular point group: c1
  Charge       = 0
  Multiplicity = 1
  Basis Set: AUG-CC-PVTZ
    Blend: AUG-CC-PVTZ
  Basis Set: (AUG-CC-PVTZ AUX)
    Blend: AUG-CC-PVTZ-JKFIT

    Orbital Energies [Eh]
    ---------------------

    Doubly Occupied:

       1A    -11.247883     2A    -11.239775     3A    -11.238075
       4A    -11.235050     5A    -11.230241     6A    -11.229779
       7A    -11.225106     8A     -1.148415     9A     -1.042767
      10A     -1.007861    11A     -0.930739    12A     -0.821376
      13A     -0.793052    14A     -0.687326    15A     -0.629409
      16A     -0.627741    17A     -0.580965    18A     -0.575622
      19A     -0.561537    20A     -0.537001    21A     -0.491341
      22A     -0.482856    23A     -0.476475    24A     -0.334414
      25A     -0.322160

  @DF-RHF Final Energy:  -269.80981925624428

   => Energetics <=

    Nuclear Repulsion Energy =            268.1368721358103926
    One-Electron Energy =                -894.4994531208502622
    Two-Electron Energy =                 356.5527617287955309
    Total Energy =                       -269.8098192562442819
  Basis Set: (AUG-CC-PVTZ AUX)
    Blend: AUG-CC-PVTZ-RI
    Molecular point group: c1

    Geometry (in Angstrom), charge = 0, multiplicity = 1:

       Center              X                  Y                   Z               Mass
    ------------   -----------------  -----------------  -----------------  -----------------
         C           -2.458054750984    -0.000000007840    -0.020236673972    12.000000000000
         C            1.865172249016    -0.000004007840    -0.022670673972    12.000000000000
         C            1.162141249016    -1.206301007840    -0.030207673972    12.000000000000
         C            1.162148249016     1.206295992160    -0.030208673972    12.000000000000
         C           -0.233697750984    -1.202962007840    -0.040280673972    12.000000000000
         C           -0.231440150984     1.202966892160     0.209710226028    12.000000000000
         C           -0.951138750984     0.000004992160    -0.048602673972    12.000000000000
         H            2.952443249016    -0.000005007840    -0.017569673972     1.007825032230
         H            1.700728249016    -2.151233007840    -0.029001673972     1.007825032230
         H            1.700741249016     2.151224992160    -0.029005673972     1.007825032230
         H           -0.774631750984    -2.148074007840    -0.050416673972     1.007825032230
         H           -0.774619750984     2.148082992160    -0.050412673972     1.007825032230
         H           -2.861266750984    -0.885150007840    -0.520498673972     1.007825032230
         H           -2.861268750984     0.885344992160    -0.520154673972     1.007825032230
         H           -2.834328750984    -0.000201007840     1.008652326028     1.007825032230

  Basis Set: AUG-CC-PVTZ
    Blend: AUG-CC-PVTZ
  Basis Set: (AUG-CC-PVTZ AUX)
    Blend: AUG-CC-PVTZ-JKFIT
	 Reference Energy          =    -269.8098192562442819 [Eh]
	 Singles Energy            =      -0.0000000000000000 [Eh]
	 Same-Spin Energy          =      -0.3003699338793444 [Eh]
	 Opposite-Spin Energy      =      -0.9782619531939950 [Eh]
	 Correlation Energy        =      -1.2786318870733395 [Eh]
	 Total Energy              =    -271.0884511433176272 [Eh]

	 ================> DF-SCS-MP2 Energies <==================
	-----------------------------------------------------------
	 SCS Same-Spin Scale       =       0.3333333333333333 [-]
	 SCS Opposite-Spin Scale   =       1.2000000000000000 [-]
	 SCS Same-Spin Energy      =      -0.1001233112931148 [Eh]
	 SCS Opposite-Spin Energy  =      -1.1739143438327939 [Eh]
	 SCS Correlation Energy    =      -1.2740376551259087 [Eh]
	 SCS Total Energy          =    -271.0838569113701624 [Eh]
	-----------------------------------------------------------

  Dipole Moment: [D]
     X:    -0.3151      Y:    -0.1249      Z:    -0.1129     Total:     0.3573

*** Psi4 exiting successfully. Buy a developer a beer!
