                               Psi4 1.3.2 release

  ==> Input File <==

--------------------------------------------------------------------------
#psi4
#
memory 32 gb

molecule  {
0 1
  C       -2.4205560     0.0000000     0.0118300
  C        1.9026710    -0.0000040     0.0093960
  C        1.1996400    -1.2063010     0.0018590
  C        1.1996470     1.2062960     0.0018580
  C       -0.1961990    -1.2029620    -0.0082140
  C       -0.1961940     1.2029670    -0.0082130
  C       -0.9136400     0.0000050    -0.0165360
  H        2.9910009    -0.0000051    -0.1354993
  H        1.7382270    -2.1512330     0.0030650
  H        1.7382400     2.1512250     0.0030610
  H       -0.7371330    -2.1480740    -0.0183500
  H       -0.7371210     2.1480830    -0.0183460
  H       -2.8237680    -0.8851500    -0.4884320
  H       -2.8237700     0.8853450    -0.4880880
  H       -2.7968300    -0.0002010     1.0407190
units angstrom
no_reorient  #important for SAPT in psi4, default
symmetry c1  #important for SAPT in psi4, default
}

set PROPERTIES_ORIGIN ["COM"]
properties('MP2/aug-cc-pvtz', properties = ['dipole'])
--------------------------------------------------------------------------

    Molecular point group: c1
  Charge       = 0
  Multiplicity = 1
  Basis Set: AUG-CC-PVTZ
    Blend: AUG-CC-PVTZ
  Basis Set: (AUG-CC-PVTZ AUX)
    Blend: AUG-CC-PVTZ-JKFIT

    Orbital Energies [Eh]
    ---------------------

    Doubly Occupied:

       1A    -11.242459     2A    -11.235131     3A    -11.234941
       4A    -11.231443     5A    -11.230106     6A    -11.230037
       7A    -11.224768     8A     -1.150233     9A     -1.042831
      10A     -1.009903    11A     -0.931019    12A     -0.823387
      13A     -0.795555    14A     -0.689306    15A     -0.631723
      16A     -0.630197    17A     -0.582070    18A     -0.575676
      19A     -0.564527    20A     -0.538207    21A     -0.490360
      22A     -0.485212    23A     -0.482648    24A     -0.334085
      25A     -0.323415

  @DF-RHF Final Energy:  -269.82849673945105

   => Energetics <=

    Nuclear Repulsion Energy =            268.7473910620399806
    One-Electron Energy =                -895.7333000570710055
    Two-Electron Energy =                 357.1574122555799136
    Total Energy =                       -269.8284967394510545
  Basis Set: (AUG-CC-PVTZ AUX)
    Blend: AUG-CC-PVTZ-RI
    Molecular point group: c1

    Geometry (in Angstrom), charge = 0, multiplicity = 1:

       Center              X                  Y                   Z               Mass
    ------------   -----------------  -----------------  -----------------  -----------------
         C           -2.457772725341    -0.000000019780     0.013990567243    12.000000000000
         C            1.865454274659    -0.000004019780     0.011556567243    12.000000000000
         C            1.162423274659    -1.206301019780     0.004019567243    12.000000000000
         C            1.162430274659     1.206295980220     0.004018567243    12.000000000000
         C           -0.233415725341    -1.202962019780    -0.006053432757    12.000000000000
         C           -0.233410725341     1.202966980220    -0.006052432757    12.000000000000
         C           -0.950856725341     0.000004980220    -0.014375432757    12.000000000000
         H            2.953784174659    -0.000005119780    -0.133338732757     1.007825032230
         H            1.701010274659    -2.151233019780     0.005225567243     1.007825032230
         H            1.701023274659     2.151224980220     0.005221567243     1.007825032230
         H           -0.774349725341    -2.148074019780    -0.016189432757     1.007825032230
         H           -0.774337725341     2.148082980220    -0.016185432757     1.007825032230
         H           -2.860984725341    -0.885150019780    -0.486271432757     1.007825032230
         H           -2.860986725341     0.885344980220    -0.485927432757     1.007825032230
         H           -2.834046725341    -0.000201019780     1.042879567243     1.007825032230

  Basis Set: AUG-CC-PVTZ
    Blend: AUG-CC-PVTZ
  Basis Set: (AUG-CC-PVTZ AUX)
    Blend: AUG-CC-PVTZ-JKFIT
	 Reference Energy          =    -269.8284967394510545 [Eh]
	 Singles Energy            =      -0.0000000000000000 [Eh]
	 Same-Spin Energy          =      -0.2995547072651722 [Eh]
	 Opposite-Spin Energy      =      -0.9755564455208448 [Eh]
	 Correlation Energy        =      -1.2751111527860171 [Eh]
	 Total Energy              =    -271.1036078922370507 [Eh]

	 ================> DF-SCS-MP2 Energies <==================
	-----------------------------------------------------------
	 SCS Same-Spin Scale       =       0.3333333333333333 [-]
	 SCS Opposite-Spin Scale   =       1.2000000000000000 [-]
	 SCS Same-Spin Energy      =      -0.0998515690883907 [Eh]
	 SCS Opposite-Spin Energy  =      -1.1706677346250136 [Eh]
	 SCS Correlation Energy    =      -1.2705193037134044 [Eh]
	 SCS Total Energy          =    -271.0990160431644540 [Eh]
	-----------------------------------------------------------

  Dipole Moment: [D]
     X:    -0.3994      Y:    -0.0000      Z:    -0.0581     Total:     0.4037

*** Psi4 exiting successfully. Buy a developer a beer!
