                               Psi4 1.3.2 release

  ==> Input File <==

--------------------------------------------------------------------------
#psi4
#
memory 32 gb

molecule  {
0 1
  C       -2.4205560     0.0000000     0.0118300
  C        1.9026710    -0.0000040     0.0093960
  C        1.1996400    -1.2063010     0.0018590
  C        1.1996470     1.2062960     0.0018580
  C       -0.1961990    -1.2029620    -0.0082140
  C       -0.1961940     1.2029670    -0.0082130
  C       -0.9136400     0.0000050    -0.0165360
  H        2.9920598    -0.0000051    -0.2854955
  H        1.7382270    -2.1512330     0.0030650
  H        1.7382400     2.1512250     0.0030610
  H       -0.7371330    -2.1480740    -0.0183500
  H       -0.7371210     2.1480830    -0.0183460
  H       -2.8237680    -0.8851500    -0.4884320
  H       -2.8237700     0.8853450    -0.4880880
  H       -2.7968300    -0.0002010     1.0407190
units angstrom
no_reorient  #important for SAPT in psi4, default
symmetry c1  #important for SAPT in psi4, default
}

set PROPERTIES_ORIGIN ["COM"]
properties('MP2/aug-cc-pvtz', properties = ['dipole'])
--------------------------------------------------------------------------

    Molecular point group: c1
  Charge       = 0
  Multiplicity = 1
  Basis Set: AUG-CC-PVTZ
    Blend: AUG-CC-PVTZ
  Basis Set: (AUG-CC-PVTZ AUX)
    Blend: AUG-CC-PVTZ-JKFIT

    Orbital Energies [Eh]
    ---------------------

    Doubly Occupied:

       1A    -11.243195     2A    -11.235958     3A    -11.235539
       4A    -11.233871     5A    -11.230385     6A    -11.230324
       7A    -11.225185     8A     -1.150543     9A     -1.042673
      10A     -1.010292    11A     -0.930500    12A     -0.823720
      13A     -0.794539    14A     -0.686115    15A     -0.632062
      16A     -0.629795    17A     -0.582437    18A     -0.575993
      19A     -0.561638    20A     -0.538551    21A     -0.493562
      22A     -0.485595    23A     -0.477170    24A     -0.334426
      25A     -0.323189

  @DF-RHF Final Energy:  -269.82368123966910

   => Energetics <=

    Nuclear Repulsion Energy =            268.6369705125205769
    One-Electron Energy =                -895.5067874224619118
    Two-Electron Energy =                 357.0461356702722924
    Total Energy =                       -269.8236812396690993
  Basis Set: (AUG-CC-PVTZ AUX)
    Blend: AUG-CC-PVTZ-RI
    Molecular point group: c1

    Geometry (in Angstrom), charge = 0, multiplicity = 1:

       Center              X                  Y                   Z               Mass
    ------------   -----------------  -----------------  -----------------  -----------------
         C           -2.457784317300    -0.000000019780     0.015632601301    12.000000000000
         C            1.865442682700    -0.000004019780     0.013198601301    12.000000000000
         C            1.162411682700    -1.206301019780     0.005661601301    12.000000000000
         C            1.162418682700     1.206295980220     0.005660601301    12.000000000000
         C           -0.233427317300    -1.202962019780    -0.004411398699    12.000000000000
         C           -0.233422317300     1.202966980220    -0.004410398699    12.000000000000
         C           -0.950868317300     0.000004980220    -0.012733398699    12.000000000000
         H            2.954831482700    -0.000005119780    -0.281692898699     1.007825032230
         H            1.700998682700    -2.151233019780     0.006867601301     1.007825032230
         H            1.701011682700     2.151224980220     0.006863601301     1.007825032230
         H           -0.774361317300    -2.148074019780    -0.014547398699     1.007825032230
         H           -0.774349317300     2.148082980220    -0.014543398699     1.007825032230
         H           -2.860996317300    -0.885150019780    -0.484629398699     1.007825032230
         H           -2.860998317300     0.885344980220    -0.484285398699     1.007825032230
         H           -2.834058317300    -0.000201019780     1.044521601301     1.007825032230

  Basis Set: AUG-CC-PVTZ
    Blend: AUG-CC-PVTZ
  Basis Set: (AUG-CC-PVTZ AUX)
    Blend: AUG-CC-PVTZ-JKFIT
	 Reference Energy          =    -269.8236812396690993 [Eh]
	 Singles Energy            =      -0.0000000000000000 [Eh]
	 Same-Spin Energy          =      -0.2997686607604418 [Eh]
	 Opposite-Spin Energy      =      -0.9761506145536363 [Eh]
	 Correlation Energy        =      -1.2759192753140782 [Eh]
	 Total Energy              =    -271.0996005149831944 [Eh]

	 ================> DF-SCS-MP2 Energies <==================
	-----------------------------------------------------------
	 SCS Same-Spin Scale       =       0.3333333333333333 [-]
	 SCS Opposite-Spin Scale   =       1.2000000000000000 [-]
	 SCS Same-Spin Energy      =      -0.0999228869201473 [Eh]
	 SCS Opposite-Spin Energy  =      -1.1713807374643634 [Eh]
	 SCS Correlation Energy    =      -1.2713036243845108 [Eh]
	 SCS Total Energy          =    -271.0949848640536288 [Eh]
	-----------------------------------------------------------

  Dipole Moment: [D]
     X:    -0.4607      Y:    -0.0000      Z:    -0.1493     Total:     0.4843

*** Psi4 exiting successfully. Buy a developer a beer!
