                               Psi4 1.3.2 release

  ==> Input File <==

--------------------------------------------------------------------------
#psi4
#
memory 32 gb

molecule  {
0 1
  C       -2.4205560     0.0000000     0.0118300
  C        1.9026710    -0.0000040     0.0093960
  C        1.1996400    -1.2063010     0.0018590
  C        1.1996470     1.2062960     0.0018580
  C       -0.1961990    -1.2029620    -0.0082140
  C       -0.1961940     1.2029670    -0.0082130
  C       -0.9136400     0.0000050    -0.0165360
  H        2.9913539    -0.0000051    -0.1854980
  H        1.7382270    -2.1512330     0.0030650
  H        1.7382400     2.1512250     0.0030610
  H       -0.7371330    -2.1480740    -0.0183500
  H       -0.7371210     2.1480830    -0.0183460
  H       -2.8237680    -0.8851500    -0.4884320
  H       -2.8237700     0.8853450    -0.4880880
  H       -2.7968300    -0.0002010     1.0407190
units angstrom
no_reorient  #important for SAPT in psi4, default
symmetry c1  #important for SAPT in psi4, default
}

set PROPERTIES_ORIGIN ["COM"]
properties('MP2/aug-cc-pvtz', properties = ['dipole'])
--------------------------------------------------------------------------

    Molecular point group: c1
  Charge       = 0
  Multiplicity = 1
  Basis Set: AUG-CC-PVTZ
    Blend: AUG-CC-PVTZ
  Basis Set: (AUG-CC-PVTZ AUX)
    Blend: AUG-CC-PVTZ-JKFIT

    Orbital Energies [Eh]
    ---------------------

    Doubly Occupied:

       1A    -11.242653     2A    -11.235322     3A    -11.235097
       4A    -11.232108     5A    -11.230178     6A    -11.230112
       7A    -11.224879     8A     -1.150312     9A     -1.042784
      10A     -1.010004    11A     -0.930873    12A     -0.823473
      13A     -0.795268    14A     -0.688426    15A     -0.631811
      16A     -0.630092    17A     -0.582165    18A     -0.575737
      19A     -0.563796    20A     -0.538296    21A     -0.491492
      22A     -0.485311    23A     -0.480927    24A     -0.334174
      25A     -0.323354

  @DF-RHF Final Energy:  -269.82731407954867

   => Energetics <=

    Nuclear Repulsion Energy =            268.7180059831828203
    One-Electron Energy =                -895.6733559601549359
    Two-Electron Energy =                 357.1280358974234446
    Total Energy =                       -269.8273140795486711
  Basis Set: (AUG-CC-PVTZ AUX)
    Blend: AUG-CC-PVTZ-RI
    Molecular point group: c1

    Geometry (in Angstrom), charge = 0, multiplicity = 1:

       Center              X                  Y                   Z               Mass
    ------------   -----------------  -----------------  -----------------  -----------------
         C           -2.457776589692    -0.000000019780     0.014537911564    12.000000000000
         C            1.865450410308    -0.000004019780     0.012103911564    12.000000000000
         C            1.162419410308    -1.206301019780     0.004566911564    12.000000000000
         C            1.162426410308     1.206295980220     0.004565911564    12.000000000000
         C           -0.233419589692    -1.202962019780    -0.005506088436    12.000000000000
         C           -0.233414589692     1.202966980220    -0.005505088436    12.000000000000
         C           -0.950860589692     0.000004980220    -0.013828088436    12.000000000000
         H            2.954133310308    -0.000005119780    -0.182790088436     1.007825032230
         H            1.701006410308    -2.151233019780     0.005772911564     1.007825032230
         H            1.701019410308     2.151224980220     0.005768911564     1.007825032230
         H           -0.774353589692    -2.148074019780    -0.015642088436     1.007825032230
         H           -0.774341589692     2.148082980220    -0.015638088436     1.007825032230
         H           -2.860988589692    -0.885150019780    -0.485724088436     1.007825032230
         H           -2.860990589692     0.885344980220    -0.485380088436     1.007825032230
         H           -2.834050589692    -0.000201019780     1.043426911564     1.007825032230

  Basis Set: AUG-CC-PVTZ
    Blend: AUG-CC-PVTZ
  Basis Set: (AUG-CC-PVTZ AUX)
    Blend: AUG-CC-PVTZ-JKFIT
	 Reference Energy          =    -269.8273140795486711 [Eh]
	 Singles Energy            =      -0.0000000000000000 [Eh]
	 Same-Spin Energy          =      -0.2996118673730279 [Eh]
	 Opposite-Spin Energy      =      -0.9757068112221314 [Eh]
	 Correlation Energy        =      -1.2753186785951593 [Eh]
	 Total Energy              =    -271.1026327581438409 [Eh]

	 ================> DF-SCS-MP2 Energies <==================
	-----------------------------------------------------------
	 SCS Same-Spin Scale       =       0.3333333333333333 [-]
	 SCS Opposite-Spin Scale   =       1.2000000000000000 [-]
	 SCS Same-Spin Energy      =      -0.0998706224576759 [Eh]
	 SCS Opposite-Spin Energy  =      -1.1708481734665577 [Eh]
	 SCS Correlation Energy    =      -1.2707187959242336 [Eh]
	 SCS Total Energy          =    -271.0980328754728816 [Eh]
	-----------------------------------------------------------

  Dipole Moment: [D]
     X:    -0.4155      Y:    -0.0000      Z:    -0.0892     Total:     0.4250

*** Psi4 exiting successfully. Buy a developer a beer!
