                               Psi4 1.3.2 release

  ==> Input File <==

--------------------------------------------------------------------------
#psi4
#
memory 32 gb

molecule  {
0 1
  C       -2.4205560     0.0000000     0.0118300
  C        1.9026710    -0.0000040     0.0093960
  C        1.1996400    -1.2063010     0.0018590
  C        1.1996470     1.2062960     0.0018580
  C       -0.1961990    -1.2029620    -0.0082140
  C       -0.1961940     1.2029670    -0.0082130
  C       -0.9136400     0.0000050    -0.0165360
  H        2.9899420    -0.0000050     0.0144970
  H        1.7368249    -2.1517144     0.2030595
  H        1.7382400     2.1512250     0.0030610
  H       -0.7371330    -2.1480740    -0.0183500
  H       -0.7371210     2.1480830    -0.0183460
  H       -2.8237680    -0.8851500    -0.4884320
  H       -2.8237700     0.8853450    -0.4880880
  H       -2.7968300    -0.0002010     1.0407190
units angstrom
no_reorient  #important for SAPT in psi4, default
symmetry c1  #important for SAPT in psi4, default
}

set PROPERTIES_ORIGIN ["COM"]
properties('MP2/aug-cc-pvtz', properties = ['dipole'])
--------------------------------------------------------------------------

    Molecular point group: c1
  Charge       = 0
  Multiplicity = 1
  Basis Set: AUG-CC-PVTZ
    Blend: AUG-CC-PVTZ
  Basis Set: (AUG-CC-PVTZ AUX)
    Blend: AUG-CC-PVTZ-JKFIT

    Orbital Energies [Eh]
    ---------------------

    Doubly Occupied:

       1A    -11.242342     2A    -11.236404     3A    -11.234941
       4A    -11.230864     5A    -11.230382     6A    -11.230296
       7A    -11.224743     8A     -1.150267     9A     -1.042943
      10A     -1.009506    11A     -0.931374    12A     -0.822567
      13A     -0.795486    14A     -0.689990    15A     -0.631762
      16A     -0.628627    17A     -0.580901    18A     -0.575675
      19A     -0.565273    20A     -0.538226    21A     -0.491564
      22A     -0.486464    23A     -0.479936    24A     -0.333808
      25A     -0.323529

  @DF-RHF Final Energy:  -269.82731195715502

   => Energetics <=

    Nuclear Repulsion Energy =            268.7191638421793982
    One-Electron Energy =                -895.6772077673105059
    Two-Electron Energy =                 357.1307319679760326
    Total Energy =                       -269.8273119571550183
  Basis Set: (AUG-CC-PVTZ AUX)
    Blend: AUG-CC-PVTZ-RI
    Molecular point group: c1

    Geometry (in Angstrom), charge = 0, multiplicity = 1:

       Center              X                  Y                   Z               Mass
    ------------   -----------------  -----------------  -----------------  -----------------
         C           -2.457745784353     0.000005249094     0.010159158089    12.000000000000
         C            1.865481215647     0.000001249094     0.007725158089    12.000000000000
         C            1.162450215647    -1.206295750906     0.000188158089    12.000000000000
         C            1.162457215647     1.206301249094     0.000187158089    12.000000000000
         C           -0.233388784353    -1.202956750906    -0.009884841911    12.000000000000
         C           -0.233383784353     1.202972249094    -0.009883841911    12.000000000000
         C           -0.950829784353     0.000010249094    -0.018206841911    12.000000000000
         H            2.952752215647     0.000000249094     0.012826158089     1.007825032230
         H            1.699635115647    -2.151709150906     0.201388658089     1.007825032230
         H            1.701050215647     2.151230249094     0.001390158089     1.007825032230
         H           -0.774322784353    -2.148068750906    -0.020020841911     1.007825032230
         H           -0.774310784353     2.148088249094    -0.020016841911     1.007825032230
         H           -2.860957784353    -0.885144750906    -0.490102841911     1.007825032230
         H           -2.860959784353     0.885350249094    -0.489758841911     1.007825032230
         H           -2.834019784353    -0.000195750906     1.039048158089     1.007825032230

  Basis Set: AUG-CC-PVTZ
    Blend: AUG-CC-PVTZ
  Basis Set: (AUG-CC-PVTZ AUX)
    Blend: AUG-CC-PVTZ-JKFIT
	 Reference Energy          =    -269.8273119571550183 [Eh]
	 Singles Energy            =      -0.0000000000000000 [Eh]
	 Same-Spin Energy          =      -0.2996140747964013 [Eh]
	 Opposite-Spin Energy      =      -0.9757277661423236 [Eh]
	 Correlation Energy        =      -1.2753418409387249 [Eh]
	 Total Energy              =    -271.1026537980937405 [Eh]

	 ================> DF-SCS-MP2 Energies <==================
	-----------------------------------------------------------
	 SCS Same-Spin Scale       =       0.3333333333333333 [-]
	 SCS Opposite-Spin Scale   =       1.2000000000000000 [-]
	 SCS Same-Spin Energy      =      -0.0998713582654671 [Eh]
	 SCS Opposite-Spin Energy  =      -1.1708733193707883 [Eh]
	 SCS Correlation Energy    =      -1.2707446776362554 [Eh]
	 SCS Total Energy          =    -271.0980566347912486 [Eh]
	-----------------------------------------------------------

  Dipole Moment: [D]
     X:    -0.4006      Y:     0.0289      Z:     0.1603     Total:     0.4325

*** Psi4 exiting successfully. Buy a developer a beer!
