                               Psi4 1.3.2 release

  ==> Input File <==

--------------------------------------------------------------------------
#psi4
#
memory 32 gb

molecule  {
0 1
  C       -2.4205560     0.0000000     0.0118300
  C        1.9026710    -0.0000040     0.0093960
  C        1.1996400    -1.2063010     0.0018590
  C        1.1996470     1.2062960     0.0018580
  C       -0.1961990    -1.2029620    -0.0082140
  C       -0.1961940     1.2029670    -0.0082130
  C       -0.9136400     0.0000050    -0.0165360
  H        2.9899420    -0.0000050     0.0144970
  H        1.7382270    -2.1512330     0.0030650
  H        1.7382400     2.1512250     0.0030610
  H       -0.7395425    -2.1484831     0.2316381
  H       -0.7371210     2.1480830    -0.0183460
  H       -2.8237680    -0.8851500    -0.4884320
  H       -2.8237700     0.8853450    -0.4880880
  H       -2.7968300    -0.0002010     1.0407190
units angstrom
no_reorient  #important for SAPT in psi4, default
symmetry c1  #important for SAPT in psi4, default
}

set PROPERTIES_ORIGIN ["COM"]
properties('MP2/aug-cc-pvtz', properties = ['dipole'])
--------------------------------------------------------------------------

    Molecular point group: c1
  Charge       = 0
  Multiplicity = 1
  Basis Set: AUG-CC-PVTZ
    Blend: AUG-CC-PVTZ
  Basis Set: (AUG-CC-PVTZ AUX)
    Blend: AUG-CC-PVTZ-JKFIT

    Orbital Energies [Eh]
    ---------------------

    Doubly Occupied:

       1A    -11.242726     2A    -11.235448     3A    -11.235303
       4A    -11.232366     5A    -11.230761     6A    -11.230211
       7A    -11.224516     8A     -1.150292     9A     -1.043057
      10A     -1.009360    11A     -0.931164    12A     -0.822212
      13A     -0.795675    14A     -0.688791    15A     -0.631804
      16A     -0.628702    17A     -0.581376    18A     -0.574912
      19A     -0.565174    20A     -0.537785    21A     -0.491326
      22A     -0.486586    23A     -0.479201    24A     -0.333737
      25A     -0.323541

  @DF-RHF Final Energy:  -269.82587185148589

   => Energetics <=

    Nuclear Repulsion Energy =            268.6810286416836107
    One-Electron Energy =                -895.6017527263337570
    Two-Electron Energy =                 357.0948522331642607
    Total Energy =                       -269.8258718514858856
  Basis Set: (AUG-CC-PVTZ AUX)
    Blend: AUG-CC-PVTZ-RI
    Molecular point group: c1

    Geometry (in Angstrom), charge = 0, multiplicity = 1:

       Center              X                  Y                   Z               Mass
    ------------   -----------------  -----------------  -----------------  -----------------
         C           -2.457734756173     0.000004457613     0.009611869599    12.000000000000
         C            1.865492243827     0.000000457613     0.007177869599    12.000000000000
         C            1.162461243827    -1.206296542387    -0.000359130401    12.000000000000
         C            1.162468243827     1.206300457613    -0.000360130401    12.000000000000
         C           -0.233377756173    -1.202957542387    -0.010432130401    12.000000000000
         C           -0.233372756173     1.202971457613    -0.010431130401    12.000000000000
         C           -0.950818756173     0.000009457613    -0.018754130401    12.000000000000
         H            2.952763243827    -0.000000542387     0.012278869599     1.007825032230
         H            1.701048243827    -2.151228542387     0.000846869599     1.007825032230
         H            1.701061243827     2.151229457613     0.000842869599     1.007825032230
         H           -0.776721256173    -2.148478642387     0.229419969599     1.007825032230
         H           -0.774299756173     2.148087457613    -0.020564130401     1.007825032230
         H           -2.860946756173    -0.885145542387    -0.490650130401     1.007825032230
         H           -2.860948756173     0.885349457613    -0.490306130401     1.007825032230
         H           -2.834008756173    -0.000196542387     1.038500869599     1.007825032230

  Basis Set: AUG-CC-PVTZ
    Blend: AUG-CC-PVTZ
  Basis Set: (AUG-CC-PVTZ AUX)
    Blend: AUG-CC-PVTZ-JKFIT
	 Reference Energy          =    -269.8258718514858856 [Eh]
	 Singles Energy            =      -0.0000000000000000 [Eh]
	 Same-Spin Energy          =      -0.2996719749671093 [Eh]
	 Opposite-Spin Energy      =      -0.9758530152989344 [Eh]
	 Correlation Energy        =      -1.2755249902660437 [Eh]
	 Total Energy              =    -271.1013968417519209 [Eh]

	 ================> DF-SCS-MP2 Energies <==================
	-----------------------------------------------------------
	 SCS Same-Spin Scale       =       0.3333333333333333 [-]
	 SCS Opposite-Spin Scale   =       1.2000000000000000 [-]
	 SCS Same-Spin Energy      =      -0.0998906583223698 [Eh]
	 SCS Opposite-Spin Energy  =      -1.1710236183587213 [Eh]
	 SCS Correlation Energy    =      -1.2709142766810910 [Eh]
	 SCS Total Energy          =    -271.0967861281669684 [Eh]
	-----------------------------------------------------------

  Dipole Moment: [D]
     X:    -0.3585      Y:     0.0414      Z:     0.1821     Total:     0.4042

*** Psi4 exiting successfully. Buy a developer a beer!
