                               Psi4 1.3.2 release

  ==> Input File <==

--------------------------------------------------------------------------
#psi4
#
memory 32 gb

molecule  {
0 1
  C       -2.4205560     0.0000000     0.0118300
  C        1.9026710    -0.0000040     0.0093960
  C        1.1996400    -1.2063010     0.0018590
  C        1.1996470     1.2062960     0.0018580
  C       -0.1961990    -1.2029620    -0.0082140
  C       -0.1961940     1.2029670    -0.0082130
  C       -0.9136400     0.0000050    -0.0165360
  H        2.9917068    -0.0000051    -0.2354968
  H        1.7382270    -2.1512330     0.0030650
  H        1.7382400     2.1512250     0.0030610
  H       -0.7371330    -2.1480740    -0.0183500
  H       -0.7371210     2.1480830    -0.0183460
  H       -2.8237680    -0.8851500    -0.4884320
  H       -2.8237700     0.8853450    -0.4880880
  H       -2.7968300    -0.0002010     1.0407190
units angstrom
no_reorient  #important for SAPT in psi4, default
symmetry c1  #important for SAPT in psi4, default
}

set PROPERTIES_ORIGIN ["COM"]
properties('MP2/aug-cc-pvtz', properties = ['dipole'])
--------------------------------------------------------------------------

    Molecular point group: c1
  Charge       = 0
  Multiplicity = 1
  Basis Set: AUG-CC-PVTZ
    Blend: AUG-CC-PVTZ
  Basis Set: (AUG-CC-PVTZ AUX)
    Blend: AUG-CC-PVTZ-JKFIT

    Orbital Energies [Eh]
    ---------------------

    Doubly Occupied:

       1A    -11.242899     2A    -11.235586     3A    -11.235296
       4A    -11.232933     5A    -11.230271     6A    -11.230208
       7A    -11.225018     8A     -1.150416     9A     -1.042730
      10A     -1.010134    11A     -0.930697    12A     -0.823584
      13A     -0.794924    14A     -0.687350    15A     -0.631924
      16A     -0.629957    17A     -0.582287    18A     -0.575844
      19A     -0.562831    20A     -0.538411    21A     -0.492559
      22A     -0.485439    23A     -0.479103    24A     -0.334287
      25A     -0.323278

  @DF-RHF Final Energy:  -269.82572291093157

   => Energetics <=

    Nuclear Repulsion Energy =            268.6810378509227917
    One-Electron Energy =                -895.5975939216814368
    Two-Electron Energy =                 357.0908331598270138
    Total Energy =                       -269.8257229109315745
  Basis Set: (AUG-CC-PVTZ AUX)
    Blend: AUG-CC-PVTZ-RI
    Molecular point group: c1

    Geometry (in Angstrom), charge = 0, multiplicity = 1:

       Center              X                  Y                   Z               Mass
    ------------   -----------------  -----------------  -----------------  -----------------
         C           -2.457780452949    -0.000000019780     0.015085256980    12.000000000000
         C            1.865446547051    -0.000004019780     0.012651256980    12.000000000000
         C            1.162415547051    -1.206301019780     0.005114256980    12.000000000000
         C            1.162422547051     1.206295980220     0.005113256980    12.000000000000
         C           -0.233423452949    -1.202962019780    -0.004958743020    12.000000000000
         C           -0.233418452949     1.202966980220    -0.004957743020    12.000000000000
         C           -0.950864452949     0.000004980220    -0.013280743020    12.000000000000
         H            2.954482347051    -0.000005119780    -0.232241543020     1.007825032230
         H            1.701002547051    -2.151233019780     0.006320256980     1.007825032230
         H            1.701015547051     2.151224980220     0.006316256980     1.007825032230
         H           -0.774357452949    -2.148074019780    -0.015094743020     1.007825032230
         H           -0.774345452949     2.148082980220    -0.015090743020     1.007825032230
         H           -2.860992452949    -0.885150019780    -0.485176743020     1.007825032230
         H           -2.860994452949     0.885344980220    -0.484832743020     1.007825032230
         H           -2.834054452949    -0.000201019780     1.043974256980     1.007825032230

  Basis Set: AUG-CC-PVTZ
    Blend: AUG-CC-PVTZ
  Basis Set: (AUG-CC-PVTZ AUX)
    Blend: AUG-CC-PVTZ-JKFIT
	 Reference Energy          =    -269.8257229109315745 [Eh]
	 Singles Energy            =      -0.0000000000000000 [Eh]
	 Same-Spin Energy          =      -0.2996834527869497 [Eh]
	 Opposite-Spin Energy      =      -0.9759050472209334 [Eh]
	 Correlation Energy        =      -1.2755885000078830 [Eh]
	 Total Energy              =    -271.1013114109394451 [Eh]

	 ================> DF-SCS-MP2 Energies <==================
	-----------------------------------------------------------
	 SCS Same-Spin Scale       =       0.3333333333333333 [-]
	 SCS Opposite-Spin Scale   =       1.2000000000000000 [-]
	 SCS Same-Spin Energy      =      -0.0998944842623166 [Eh]
	 SCS Opposite-Spin Energy  =      -1.1710860566651200 [Eh]
	 SCS Correlation Energy    =      -1.2709805409274366 [Eh]
	 SCS Total Energy          =    -271.0967034518590140 [Eh]
	-----------------------------------------------------------

  Dipole Moment: [D]
     X:    -0.4360      Y:    -0.0000      Z:    -0.1196     Total:     0.4521

*** Psi4 exiting successfully. Buy a developer a beer!
