                               Psi4 1.3.2 release

  ==> Input File <==

--------------------------------------------------------------------------
#psi4
#
memory 32 gb

molecule  {
0 1
  C       -2.4205560     0.0000000     0.0118300
  C        1.9026710    -0.0000040     0.0093960
  C        1.1996400    -1.2063010     0.0018590
  C        1.1996470     1.2062960     0.0018580
  C       -0.1961990    -1.2029620    -0.0082140
  C       -0.1961940     1.2029670    -0.0082130
  C       -0.9136400     0.0000050    -0.0165360
  H        2.9899420    -0.0000050     0.0144970
  H        1.7361239    -2.1519551     0.3030568
  H        1.7382400     2.1512250     0.0030610
  H       -0.7371330    -2.1480740    -0.0183500
  H       -0.7371210     2.1480830    -0.0183460
  H       -2.8237680    -0.8851500    -0.4884320
  H       -2.8237700     0.8853450    -0.4880880
  H       -2.7968300    -0.0002010     1.0407190
units angstrom
no_reorient  #important for SAPT in psi4, default
symmetry c1  #important for SAPT in psi4, default
}

set PROPERTIES_ORIGIN ["COM"]
properties('MP2/aug-cc-pvtz', properties = ['dipole'])
--------------------------------------------------------------------------

    Molecular point group: c1
  Charge       = 0
  Multiplicity = 1
  Basis Set: AUG-CC-PVTZ
    Blend: AUG-CC-PVTZ
  Basis Set: (AUG-CC-PVTZ AUX)
    Blend: AUG-CC-PVTZ-JKFIT

    Orbital Energies [Eh]
    ---------------------

    Doubly Occupied:

       1A    -11.242533     2A    -11.238356     3A    -11.235142
       4A    -11.231290     5A    -11.230844     6A    -11.230762
       7A    -11.224903     8A     -1.150463     9A     -1.043028
      10A     -1.009229    11A     -0.931570    12A     -0.821842
      13A     -0.794938    14A     -0.689480    15A     -0.631991
      16A     -0.626635    17A     -0.579740    18A     -0.575401
      19A     -0.565278    20A     -0.538393    21A     -0.493764
      22A     -0.486688    23A     -0.476248    24A     -0.333650
      25A     -0.323628

  @DF-RHF Final Energy:  -269.82366272770832

   => Energetics <=

    Nuclear Repulsion Energy =            268.6383761581660679
    One-Electron Energy =                -895.5124811942706629
    Two-Electron Energy =                 357.0504423083962138
    Total Energy =                       -269.8236627277083244
  Basis Set: (AUG-CC-PVTZ AUX)
    Blend: AUG-CC-PVTZ-RI
    Molecular point group: c1

    Geometry (in Angstrom), charge = 0, multiplicity = 1:

       Center              X                  Y                   Z               Mass
    ------------   -----------------  -----------------  -----------------  -----------------
         C           -2.457738110386     0.000007884078     0.009064470542    12.000000000000
         C            1.865488889614     0.000003884078     0.006630470542    12.000000000000
         C            1.162457889614    -1.206293115922    -0.000906529458    12.000000000000
         C            1.162464889614     1.206303884078    -0.000907529458    12.000000000000
         C           -0.233381110386    -1.202954115922    -0.010979529458    12.000000000000
         C           -0.233376110386     1.202974884078    -0.010978529458    12.000000000000
         C           -0.950822110386     0.000012884078    -0.019301529458    12.000000000000
         H            2.952759889614     0.000002884078     0.011731470542     1.007825032230
         H            1.698941789614    -2.151947215922     0.300291270542     1.007825032230
         H            1.701057889614     2.151232884078     0.000295470542     1.007825032230
         H           -0.774315110386    -2.148066115922    -0.021115529458     1.007825032230
         H           -0.774303110386     2.148090884078    -0.021111529458     1.007825032230
         H           -2.860950110386    -0.885142115922    -0.491197529458     1.007825032230
         H           -2.860952110386     0.885352884078    -0.490853529458     1.007825032230
         H           -2.834012110386    -0.000193115922     1.037953470542     1.007825032230

  Basis Set: AUG-CC-PVTZ
    Blend: AUG-CC-PVTZ
  Basis Set: (AUG-CC-PVTZ AUX)
    Blend: AUG-CC-PVTZ-JKFIT
	 Reference Energy          =    -269.8236627277083244 [Eh]
	 Singles Energy            =      -0.0000000000000000 [Eh]
	 Same-Spin Energy          =      -0.2997827522445908 [Eh]
	 Opposite-Spin Energy      =      -0.9761968891224337 [Eh]
	 Correlation Energy        =      -1.2759796413670246 [Eh]
	 Total Energy              =    -271.0996423690753545 [Eh]

	 ================> DF-SCS-MP2 Energies <==================
	-----------------------------------------------------------
	 SCS Same-Spin Scale       =       0.3333333333333333 [-]
	 SCS Opposite-Spin Scale   =       1.2000000000000000 [-]
	 SCS Same-Spin Energy      =      -0.0999275840815303 [Eh]
	 SCS Opposite-Spin Energy  =      -1.1714362669469205 [Eh]
	 SCS Correlation Energy    =      -1.2713638510284508 [Eh]
	 SCS Total Energy          =    -271.0950265787367925 [Eh]
	-----------------------------------------------------------

  Dipole Moment: [D]
     X:    -0.4252      Y:     0.0655      Z:     0.2188     Total:     0.4826

*** Psi4 exiting successfully. Buy a developer a beer!
