                               Psi4 1.3.2 release

  ==> Input File <==

--------------------------------------------------------------------------
#psi4
#
memory 32 gb

molecule  {
0 1
  C       -2.4205560     0.0000000     0.0118300
  C        1.9026710    -0.0000040     0.0093960
  C        1.1996400    -1.2063010     0.0018590
  C        1.1996470     1.2062960     0.0018580
  C       -0.1961990    -1.2029620    -0.0082140
  C       -0.1961940     1.2029670    -0.0082130
  C       -0.9136400     0.0000050    -0.0165360
  H        2.9899420    -0.0000050     0.0144970
  H        1.7375260    -2.1514737     0.1030623
  H        1.7382400     2.1512250     0.0030610
  H       -0.7371330    -2.1480740    -0.0183500
  H       -0.7371210     2.1480830    -0.0183460
  H       -2.8237680    -0.8851500    -0.4884320
  H       -2.8237700     0.8853450    -0.4880880
  H       -2.7968300    -0.0002010     1.0407190
units angstrom
no_reorient  #important for SAPT in psi4, default
symmetry c1  #important for SAPT in psi4, default
}

set PROPERTIES_ORIGIN ["COM"]
properties('MP2/aug-cc-pvtz', properties = ['dipole'])
--------------------------------------------------------------------------

    Molecular point group: c1
  Charge       = 0
  Multiplicity = 1
  Basis Set: AUG-CC-PVTZ
    Blend: AUG-CC-PVTZ
  Basis Set: (AUG-CC-PVTZ AUX)
    Blend: AUG-CC-PVTZ-JKFIT

    Orbital Energies [Eh]
    ---------------------

    Doubly Occupied:

       1A    -11.242231     2A    -11.235222     3A    -11.234821
       4A    -11.230619     5A    -11.230102     6A    -11.230017
       7A    -11.224647     8A     -1.150156     9A     -1.042905
      10A     -1.009698    11A     -0.931259    12A     -0.823085
      13A     -0.795834    14A     -0.690368    15A     -0.631636
      16A     -0.629909    17A     -0.581674    18A     -0.575754
      19A     -0.565267    20A     -0.538125    21A     -0.489115
      22A     -0.486410    23A     -0.483159    24A     -0.333921
      25A     -0.323479

  @DF-RHF Final Energy:  -269.82931638250784

   => Energetics <=

    Nuclear Repulsion Energy =            268.7694642123394715
    One-Electron Energy =                -895.7787346584829038
    Two-Electron Energy =                 357.1799540636355914
    Total Energy =                       -269.8293163825078409
  Basis Set: (AUG-CC-PVTZ AUX)
    Blend: AUG-CC-PVTZ-RI
    Molecular point group: c1

    Geometry (in Angstrom), charge = 0, multiplicity = 1:

       Center              X                  Y                   Z               Mass
    ------------   -----------------  -----------------  -----------------  -----------------
         C           -2.457753459414     0.000002614110     0.011253844542    12.000000000000
         C            1.865473540586    -0.000001385890     0.008819844542    12.000000000000
         C            1.162442540586    -1.206298385890     0.001282844542    12.000000000000
         C            1.162449540586     1.206298614110     0.001281844542    12.000000000000
         C           -0.233396459414    -1.202959385890    -0.008790155458    12.000000000000
         C           -0.233391459414     1.202969614110    -0.008789155458    12.000000000000
         C           -0.950837459414     0.000007614110    -0.017112155458    12.000000000000
         H            2.952744540586    -0.000002385890     0.013920844542     1.007825032230
         H            1.700328540586    -2.151471085890     0.102486144542     1.007825032230
         H            1.701042540586     2.151227614110     0.002484844542     1.007825032230
         H           -0.774330459414    -2.148071385890    -0.018926155458     1.007825032230
         H           -0.774318459414     2.148085614110    -0.018922155458     1.007825032230
         H           -2.860965459414    -0.885147385890    -0.489008155458     1.007825032230
         H           -2.860967459414     0.885347614110    -0.488664155458     1.007825032230
         H           -2.834027459414    -0.000198385890     1.040142844542     1.007825032230

  Basis Set: AUG-CC-PVTZ
    Blend: AUG-CC-PVTZ
  Basis Set: (AUG-CC-PVTZ AUX)
    Blend: AUG-CC-PVTZ-JKFIT
	 Reference Energy          =    -269.8293163825078409 [Eh]
	 Singles Energy            =      -0.0000000000000000 [Eh]
	 Same-Spin Energy          =      -0.2995103886065414 [Eh]
	 Opposite-Spin Energy      =      -0.9754558893043040 [Eh]
	 Correlation Energy        =      -1.2749662779108455 [Eh]
	 Total Energy              =    -271.1042826604186757 [Eh]

	 ================> DF-SCS-MP2 Energies <==================
	-----------------------------------------------------------
	 SCS Same-Spin Scale       =       0.3333333333333333 [-]
	 SCS Opposite-Spin Scale   =       1.2000000000000000 [-]
	 SCS Same-Spin Energy      =      -0.0998367962021805 [Eh]
	 SCS Opposite-Spin Energy  =      -1.1705470671651648 [Eh]
	 SCS Correlation Energy    =      -1.2703838633673452 [Eh]
	 SCS Total Energy          =    -271.0997002458751695 [Eh]
	-----------------------------------------------------------

  Dipole Moment: [D]
     X:    -0.3850      Y:     0.0068      Z:     0.0993     Total:     0.3977

*** Psi4 exiting successfully. Buy a developer a beer!
