                               Psi4 1.3.2 release

  ==> Input File <==

--------------------------------------------------------------------------
#psi4
#
memory 32 gb

molecule  {
0 1
  C       -2.4205560     0.0000000     0.0118300
  C        1.9026710    -0.0000040     0.0093960
  C        1.1996400    -1.2063010     0.0018590
  C        1.1996470     1.2062960     0.0018580
  C       -0.1961990    -1.2029620    -0.0082140
  C       -0.1952929     1.2029670     0.0917829
  C       -0.9136400     0.0000050    -0.0165360
  H        2.9899420    -0.0000050     0.0144970
  H        1.7382270    -2.1512330     0.0030650
  H        1.7382400     2.1512250     0.0030610
  H       -0.7371330    -2.1480740    -0.0183500
  H       -0.7371210     2.1480830    -0.0183460
  H       -2.8237680    -0.8851500    -0.4884320
  H       -2.8237700     0.8853450    -0.4880880
  H       -2.7968300    -0.0002010     1.0407190
units angstrom
no_reorient  #important for SAPT in psi4, default
symmetry c1  #important for SAPT in psi4, default
}

set PROPERTIES_ORIGIN ["COM"]
properties('MP2/aug-cc-pvtz', properties = ['dipole'])
--------------------------------------------------------------------------

    Molecular point group: c1
  Charge       = 0
  Multiplicity = 1
  Basis Set: AUG-CC-PVTZ
    Blend: AUG-CC-PVTZ
  Basis Set: (AUG-CC-PVTZ AUX)
    Blend: AUG-CC-PVTZ-JKFIT

    Orbital Energies [Eh]
    ---------------------

    Doubly Occupied:

       1A    -11.243160     2A    -11.235544     3A    -11.235280
       4A    -11.230849     5A    -11.230469     6A    -11.229935
       7A    -11.224700     8A     -1.149860     9A     -1.042836
      10A     -1.009551    11A     -0.931118    12A     -0.822818
      13A     -0.795487    14A     -0.689878    15A     -0.631031
      16A     -0.629964    17A     -0.581730    18A     -0.575865
      19A     -0.564416    20A     -0.537980    21A     -0.489268
      22A     -0.485350    23A     -0.482950    24A     -0.334136
      25A     -0.323180

  @DF-RHF Final Energy:  -269.82663748337967

   => Energetics <=

    Nuclear Repulsion Energy =            268.6862798671673431
    One-Electron Energy =                -895.6111263958580366
    Two-Electron Energy =                 357.0982090453110800
    Total Energy =                       -269.8266374833796704
  Basis Set: (AUG-CC-PVTZ AUX)
    Blend: AUG-CC-PVTZ-RI
    Molecular point group: c1

    Geometry (in Angstrom), charge = 0, multiplicity = 1:

       Center              X                  Y                   Z               Mass
    ------------   -----------------  -----------------  -----------------  -----------------
         C           -2.457878588243    -0.000000020874    -0.000685542514    12.000000000000
         C            1.865348411757    -0.000004020874    -0.003119542514    12.000000000000
         C            1.162317411757    -1.206301020874    -0.010656542514    12.000000000000
         C            1.162324411757     1.206295979126    -0.010657542514    12.000000000000
         C           -0.233521588243    -1.202962020874    -0.020729542514    12.000000000000
         C           -0.232615488243     1.202966979126     0.079267357486    12.000000000000
         C           -0.950962588243     0.000004979126    -0.029051542514    12.000000000000
         H            2.952619411757    -0.000005020874     0.001981457486     1.007825032230
         H            1.700904411757    -2.151233020874    -0.009450542514     1.007825032230
         H            1.700917411757     2.151224979126    -0.009454542514     1.007825032230
         H           -0.774455588243    -2.148074020874    -0.030865542514     1.007825032230
         H           -0.774443588243     2.148082979126    -0.030861542514     1.007825032230
         H           -2.861090588243    -0.885150020874    -0.500947542514     1.007825032230
         H           -2.861092588243     0.885344979126    -0.500603542514     1.007825032230
         H           -2.834152588243    -0.000201020874     1.028203457486     1.007825032230

  Basis Set: AUG-CC-PVTZ
    Blend: AUG-CC-PVTZ
  Basis Set: (AUG-CC-PVTZ AUX)
    Blend: AUG-CC-PVTZ-JKFIT
	 Reference Energy          =    -269.8266374833796704 [Eh]
	 Singles Energy            =      -0.0000000000000000 [Eh]
	 Same-Spin Energy          =      -0.2996397658060503 [Eh]
	 Opposite-Spin Energy      =      -0.9758485122911771 [Eh]
	 Correlation Energy        =      -1.2754882780972274 [Eh]
	 Total Energy              =    -271.1021257614768842 [Eh]

	 ================> DF-SCS-MP2 Energies <==================
	-----------------------------------------------------------
	 SCS Same-Spin Scale       =       0.3333333333333333 [-]
	 SCS Opposite-Spin Scale   =       1.2000000000000000 [-]
	 SCS Same-Spin Energy      =      -0.0998799219353501 [Eh]
	 SCS Opposite-Spin Energy  =      -1.1710182147494124 [Eh]
	 SCS Correlation Energy    =      -1.2708981366847625 [Eh]
	 SCS Total Energy          =    -271.0975356200644342 [Eh]
	-----------------------------------------------------------

  Dipole Moment: [D]
     X:    -0.3672      Y:    -0.0215      Z:    -0.0212     Total:     0.3685

*** Psi4 exiting successfully. Buy a developer a beer!
