                               Psi4 1.3.2 release

  ==> Input File <==

--------------------------------------------------------------------------
#psi4
#
memory 32 gb

molecule  {
0 1
  C       -2.4205560     0.0000000     0.0118300
  C        1.9026710    -0.0000040     0.0093960
  C        1.1996400    -1.2063010     0.0018590
  C        1.1996470     1.2062960     0.0018580
  C       -0.1961990    -1.2029620    -0.0082140
  C       -0.1961940     1.2029670    -0.0082130
  C       -0.9136400     0.0000050    -0.0165360
  H        2.9899420    -0.0000050     0.0144970
  H        1.7382270    -2.1512330     0.0030650
  H        1.7382400     2.1512250     0.0030610
  H       -0.7390606    -2.1484013     0.1816404
  H       -0.7371210     2.1480830    -0.0183460
  H       -2.8237680    -0.8851500    -0.4884320
  H       -2.8237700     0.8853450    -0.4880880
  H       -2.7968300    -0.0002010     1.0407190
units angstrom
no_reorient  #important for SAPT in psi4, default
symmetry c1  #important for SAPT in psi4, default
}

set PROPERTIES_ORIGIN ["COM"]
properties('MP2/aug-cc-pvtz', properties = ['dipole'])
--------------------------------------------------------------------------

    Molecular point group: c1
  Charge       = 0
  Multiplicity = 1
  Basis Set: AUG-CC-PVTZ
    Blend: AUG-CC-PVTZ
  Basis Set: (AUG-CC-PVTZ AUX)
    Blend: AUG-CC-PVTZ-JKFIT

    Orbital Energies [Eh]
    ---------------------

    Doubly Occupied:

       1A    -11.242523     2A    -11.235234     3A    -11.235085
       4A    -11.231513     5A    -11.230668     6A    -11.230117
       7A    -11.224532     8A     -1.150221     9A     -1.042992
      10A     -1.009492    11A     -0.931177    12A     -0.822565
      13A     -0.795766    14A     -0.689374    15A     -0.631721
      16A     -0.629252    17A     -0.581561    18A     -0.575193
      19A     -0.565324    20A     -0.537927    21A     -0.490441
      22A     -0.486496    23A     -0.480758    24A     -0.333807
      25A     -0.323506

  @DF-RHF Final Energy:  -269.82742286109993

   => Energetics <=

    Nuclear Repulsion Energy =            268.7187950727325187
    One-Electron Energy =                -895.6779479552894827
    Two-Electron Energy =                 357.1317300214570309
    Total Energy =                       -269.8274228610999330
  Basis Set: (AUG-CC-PVTZ AUX)
    Blend: AUG-CC-PVTZ-RI
    Molecular point group: c1

    Geometry (in Angstrom), charge = 0, multiplicity = 1:

       Center              X                  Y                   Z               Mass
    ------------   -----------------  -----------------  -----------------  -----------------
         C           -2.457740031614     0.000003562135     0.010159202973    12.000000000000
         C            1.865486968386    -0.000000437865     0.007725202973    12.000000000000
         C            1.162455968386    -1.206297437865     0.000188202973    12.000000000000
         C            1.162462968386     1.206299562135     0.000187202973    12.000000000000
         C           -0.233383031614    -1.202958437865    -0.009884797027    12.000000000000
         C           -0.233378031614     1.202970562135    -0.009883797027    12.000000000000
         C           -0.950824031614     0.000008562135    -0.018206797027    12.000000000000
         H            2.952757968386    -0.000001437865     0.012826202973     1.007825032230
         H            1.701042968386    -2.151229437865     0.001394202973     1.007825032230
         H            1.701055968386     2.151228562135     0.001390202973     1.007825032230
         H           -0.776244631614    -2.148397737865     0.179969602973     1.007825032230
         H           -0.774305031614     2.148086562135    -0.020016797027     1.007825032230
         H           -2.860952031614    -0.885146437865    -0.490102797027     1.007825032230
         H           -2.860954031614     0.885348562135    -0.489758797027     1.007825032230
         H           -2.834014031614    -0.000197437865     1.039048202973     1.007825032230

  Basis Set: AUG-CC-PVTZ
    Blend: AUG-CC-PVTZ
  Basis Set: (AUG-CC-PVTZ AUX)
    Blend: AUG-CC-PVTZ-JKFIT
	 Reference Energy          =    -269.8274228610999330 [Eh]
	 Singles Energy            =      -0.0000000000000000 [Eh]
	 Same-Spin Energy          =      -0.2996000372548037 [Eh]
	 Opposite-Spin Energy      =      -0.9756698119130294 [Eh]
	 Correlation Energy        =      -1.2752698491678331 [Eh]
	 Total Energy              =    -271.1026927102677746 [Eh]

	 ================> DF-SCS-MP2 Energies <==================
	-----------------------------------------------------------
	 SCS Same-Spin Scale       =       0.3333333333333333 [-]
	 SCS Opposite-Spin Scale   =       1.2000000000000000 [-]
	 SCS Same-Spin Energy      =      -0.0998666790849346 [Eh]
	 SCS Opposite-Spin Energy  =      -1.1708037742956352 [Eh]
	 SCS Correlation Energy    =      -1.2706704533805697 [Eh]
	 SCS Total Energy          =    -271.0980933144804794 [Eh]
	-----------------------------------------------------------

  Dipole Moment: [D]
     X:    -0.3668      Y:     0.0258      Z:     0.1539     Total:     0.3986

*** Psi4 exiting successfully. Buy a developer a beer!
