                               Psi4 1.3.2 release

  ==> Input File <==

--------------------------------------------------------------------------
#psi4
#
memory 32 gb

molecule  {
0 1
  C       -2.4205560     0.0000000     0.0118300
  C        1.9026710    -0.0000040     0.0093960
  C        1.1996400    -1.2063010     0.0018590
  C        1.1996470     1.2062960     0.0018580
  C       -0.1961990    -1.2029620    -0.0082140
  C       -0.1961940     1.2029670    -0.0082130
  C       -0.9136400     0.0000050    -0.0165360
  H        2.9906479    -0.0000050    -0.0855005
  H        1.7382270    -2.1512330     0.0030650
  H        1.7382400     2.1512250     0.0030610
  H       -0.7371330    -2.1480740    -0.0183500
  H       -0.7371210     2.1480830    -0.0183460
  H       -2.8237680    -0.8851500    -0.4884320
  H       -2.8237700     0.8853450    -0.4880880
  H       -2.7968300    -0.0002010     1.0407190
units angstrom
no_reorient  #important for SAPT in psi4, default
symmetry c1  #important for SAPT in psi4, default
}

set PROPERTIES_ORIGIN ["COM"]
properties('MP2/aug-cc-pvtz', properties = ['dipole'])
--------------------------------------------------------------------------

    Molecular point group: c1
  Charge       = 0
  Multiplicity = 1
  Basis Set: AUG-CC-PVTZ
    Blend: AUG-CC-PVTZ
  Basis Set: (AUG-CC-PVTZ AUX)
    Blend: AUG-CC-PVTZ-JKFIT

    Orbital Energies [Eh]
    ---------------------

    Doubly Occupied:

       1A    -11.242317     2A    -11.234998     3A    -11.234829
       4A    -11.230958     5A    -11.230055     6A    -11.229982
       7A    -11.224687     8A     -1.150175     9A     -1.042868
      10A     -1.009831    11A     -0.931129    12A     -0.823326
      13A     -0.795771    14A     -0.689962    15A     -0.631659
      16A     -0.630272    17A     -0.582002    18A     -0.575662
      19A     -0.565020    20A     -0.538143    21A     -0.489162
      22A     -0.485141    23A     -0.484270    24A     -0.334021
      25A     -0.323458

  @DF-RHF Final Energy:  -269.82931007698915

   => Energetics <=

    Nuclear Repulsion Energy =            268.7687893158181964
    One-Electron Energy =                -895.7767997539749558
    Two-Electron Energy =                 357.1787003611676710
    Total Energy =                       -269.8293100769891453
  Basis Set: (AUG-CC-PVTZ AUX)
    Blend: AUG-CC-PVTZ-RI
    Molecular point group: c1

    Geometry (in Angstrom), charge = 0, multiplicity = 1:

       Center              X                  Y                   Z               Mass
    ------------   -----------------  -----------------  -----------------  -----------------
         C           -2.457768860989    -0.000000020874     0.013443221827    12.000000000000
         C            1.865458139011    -0.000004020874     0.011009221827    12.000000000000
         C            1.162427139011    -1.206301020874     0.003472221827    12.000000000000
         C            1.162434139011     1.206295979126     0.003471221827    12.000000000000
         C           -0.233411860989    -1.202962020874    -0.006600778173    12.000000000000
         C           -0.233406860989     1.202966979126    -0.006599778173    12.000000000000
         C           -0.950852860989     0.000004979126    -0.014922778173    12.000000000000
         H            2.953435039011    -0.000005020874    -0.083887278173     1.007825032230
         H            1.701014139011    -2.151233020874     0.004678221827     1.007825032230
         H            1.701027139011     2.151224979126     0.004674221827     1.007825032230
         H           -0.774345860989    -2.148074020874    -0.016736778173     1.007825032230
         H           -0.774333860989     2.148082979126    -0.016732778173     1.007825032230
         H           -2.860980860989    -0.885150020874    -0.486818778173     1.007825032230
         H           -2.860982860989     0.885344979126    -0.486474778173     1.007825032230
         H           -2.834042860989    -0.000201020874     1.042332221827     1.007825032230

  Basis Set: AUG-CC-PVTZ
    Blend: AUG-CC-PVTZ
  Basis Set: (AUG-CC-PVTZ AUX)
    Blend: AUG-CC-PVTZ-JKFIT
	 Reference Energy          =    -269.8293100769891453 [Eh]
	 Singles Energy            =      -0.0000000000000000 [Eh]
	 Same-Spin Energy          =      -0.2995127575755356 [Eh]
	 Opposite-Spin Energy      =      -0.9754522258255693 [Eh]
	 Correlation Energy        =      -1.2749649834011050 [Eh]
	 Total Energy              =    -271.1042750603902505 [Eh]

	 ================> DF-SCS-MP2 Energies <==================
	-----------------------------------------------------------
	 SCS Same-Spin Scale       =       0.3333333333333333 [-]
	 SCS Opposite-Spin Scale   =       1.2000000000000000 [-]
	 SCS Same-Spin Energy      =      -0.0998375858585119 [Eh]
	 SCS Opposite-Spin Energy  =      -1.1705426709906832 [Eh]
	 SCS Correlation Energy    =      -1.2703802568491951 [Eh]
	 SCS Total Energy          =    -271.0996903338383390 [Eh]
	-----------------------------------------------------------

  Dipole Moment: [D]
     X:    -0.3879      Y:    -0.0000      Z:    -0.0267     Total:     0.3888

*** Psi4 exiting successfully. Buy a developer a beer!
