                               Psi4 1.3.2 release

  ==> Input File <==

--------------------------------------------------------------------------
#psi4
#
memory 32 gb

molecule  {
0 1
  C       -2.4205560     0.0000000     0.0118300
  C        1.9026710    -0.0000040     0.0093960
  C        1.1996400    -1.2063010     0.0018590
  C        1.1996470     1.2062960     0.0018580
  C       -0.1961990    -1.2029620    -0.0082140
  C       -0.1943919     1.2029669     0.1917789
  C       -0.9136400     0.0000050    -0.0165360
  H        2.9899420    -0.0000050     0.0144970
  H        1.7382270    -2.1512330     0.0030650
  H        1.7382400     2.1512250     0.0030610
  H       -0.7371330    -2.1480740    -0.0183500
  H       -0.7371210     2.1480830    -0.0183460
  H       -2.8237680    -0.8851500    -0.4884320
  H       -2.8237700     0.8853450    -0.4880880
  H       -2.7968300    -0.0002010     1.0407190
units angstrom
no_reorient  #important for SAPT in psi4, default
symmetry c1  #important for SAPT in psi4, default
}

set PROPERTIES_ORIGIN ["COM"]
properties('MP2/aug-cc-pvtz', properties = ['dipole'])
--------------------------------------------------------------------------

    Molecular point group: c1
  Charge       = 0
  Multiplicity = 1
  Basis Set: AUG-CC-PVTZ
    Blend: AUG-CC-PVTZ
  Basis Set: (AUG-CC-PVTZ AUX)
    Blend: AUG-CC-PVTZ-JKFIT

    Orbital Energies [Eh]
    ---------------------

    Doubly Occupied:

       1A    -11.245899     2A    -11.237956     3A    -11.236864
       4A    -11.233288     5A    -11.230335     6A    -11.229837
       7A    -11.224935     8A     -1.149020     9A     -1.042779
      10A     -1.008605    11A     -0.930903    12A     -0.821938
      13A     -0.794060    14A     -0.688301    15A     -0.629808
      16A     -0.628901    17A     -0.581257    18A     -0.575699
      19A     -0.562735    20A     -0.537448    21A     -0.490779
      22A     -0.483925    23A     -0.478990    24A     -0.334293
      25A     -0.322565

  @DF-RHF Final Energy:  -269.81703946772438

   => Energetics <=

    Nuclear Repulsion Energy =            268.3712656377193184
    One-Electron Energy =                -894.9743688936383705
    Two-Electron Energy =                 356.7860637881946104
    Total Energy =                       -269.8170394677243848
  Basis Set: (AUG-CC-PVTZ AUX)
    Blend: AUG-CC-PVTZ-RI
    Molecular point group: c1

    Geometry (in Angstrom), charge = 0, multiplicity = 1:

       Center              X                  Y                   Z               Mass
    ------------   -----------------  -----------------  -----------------  -----------------
         C           -2.457996030070    -0.000000007840    -0.013719630153    12.000000000000
         C            1.865230969930    -0.000004007840    -0.016153630153    12.000000000000
         C            1.162199969930    -1.206301007840    -0.023690630153    12.000000000000
         C            1.162206969930     1.206295992160    -0.023691630153    12.000000000000
         C           -0.233639030070    -1.202962007840    -0.033763630153    12.000000000000
         C           -0.231831930070     1.202966892160     0.166229269847    12.000000000000
         C           -0.951080030070     0.000004992160    -0.042085630153    12.000000000000
         H            2.952501969930    -0.000005007840    -0.011052630153     1.007825032230
         H            1.700786969930    -2.151233007840    -0.022484630153     1.007825032230
         H            1.700799969930     2.151224992160    -0.022488630153     1.007825032230
         H           -0.774573030070    -2.148074007840    -0.043899630153     1.007825032230
         H           -0.774561030070     2.148082992160    -0.043895630153     1.007825032230
         H           -2.861208030070    -0.885150007840    -0.513981630153     1.007825032230
         H           -2.861210030070     0.885344992160    -0.513637630153     1.007825032230
         H           -2.834270030070    -0.000201007840     1.015169369847     1.007825032230

  Basis Set: AUG-CC-PVTZ
    Blend: AUG-CC-PVTZ
  Basis Set: (AUG-CC-PVTZ AUX)
    Blend: AUG-CC-PVTZ-JKFIT
	 Reference Energy          =    -269.8170394677243848 [Eh]
	 Singles Energy            =      -0.0000000000000000 [Eh]
	 Same-Spin Energy          =      -0.3000663351228402 [Eh]
	 Opposite-Spin Energy      =      -0.9772482555960735 [Eh]
	 Correlation Energy        =      -1.2773145907189138 [Eh]
	 Total Energy              =    -271.0943540584432867 [Eh]

	 ================> DF-SCS-MP2 Energies <==================
	-----------------------------------------------------------
	 SCS Same-Spin Scale       =       0.3333333333333333 [-]
	 SCS Opposite-Spin Scale   =       1.2000000000000000 [-]
	 SCS Same-Spin Energy      =      -0.1000221117076134 [Eh]
	 SCS Opposite-Spin Energy  =      -1.1726979067152883 [Eh]
	 SCS Correlation Energy    =      -1.2727200184229017 [Eh]
	 SCS Total Energy          =    -271.0897594861472726 [Eh]
	-----------------------------------------------------------

  Dipole Moment: [D]
     X:    -0.3371      Y:    -0.0812      Z:    -0.0815     Total:     0.3561

*** Psi4 exiting successfully. Buy a developer a beer!
