                               Psi4 1.3.2 release

  ==> Input File <==

--------------------------------------------------------------------------
#psi4
#
memory 32 gb

molecule  {
0 1
  C       -2.4205560     0.0000000     0.0118300
  C        1.9026710    -0.0000040     0.0093960
  C        1.1996400    -1.2063010     0.0018590
  C        1.1996470     1.2062960     0.0018580
  C       -0.1961990    -1.2029620    -0.0082140
  C       -0.1957435     1.2029670     0.0417850
  C       -0.9136400     0.0000050    -0.0165360
  H        2.9899420    -0.0000050     0.0144970
  H        1.7382270    -2.1512330     0.0030650
  H        1.7382400     2.1512250     0.0030610
  H       -0.7371330    -2.1480740    -0.0183500
  H       -0.7371210     2.1480830    -0.0183460
  H       -2.8237680    -0.8851500    -0.4884320
  H       -2.8237700     0.8853450    -0.4880880
  H       -2.7968300    -0.0002010     1.0407190
units angstrom
no_reorient  #important for SAPT in psi4, default
symmetry c1  #important for SAPT in psi4, default
}

set PROPERTIES_ORIGIN ["COM"]
properties('MP2/aug-cc-pvtz', properties = ['dipole'])
--------------------------------------------------------------------------

    Molecular point group: c1
  Charge       = 0
  Multiplicity = 1
  Basis Set: AUG-CC-PVTZ
    Blend: AUG-CC-PVTZ
  Basis Set: (AUG-CC-PVTZ AUX)
    Blend: AUG-CC-PVTZ-JKFIT

    Orbital Energies [Eh]
    ---------------------

    Doubly Occupied:

       1A    -11.242450     2A    -11.235014     3A    -11.234861
       4A    -11.230544     5A    -11.230188     6A    -11.229957
       7A    -11.224637     8A     -1.150069     9A     -1.042868
      10A     -1.009753    11A     -0.931182    12A     -0.823105
      13A     -0.795850    14A     -0.690338    15A     -0.631452
      16A     -0.630194    17A     -0.581878    18A     -0.575866
      19A     -0.564944    20A     -0.538086    21A     -0.488336
      22A     -0.485815    23A     -0.484380    24A     -0.334059
      25A     -0.323374

  @DF-RHF Final Energy:  -269.82906769807369

   => Energetics <=

    Nuclear Repulsion Energy =            268.7637245466257809
    One-Electron Energy =                -895.7671838570007594
    Two-Electron Energy =                 357.1743916123012923
    Total Energy =                       -269.8290676980736862
  Basis Set: (AUG-CC-PVTZ AUX)
    Blend: AUG-CC-PVTZ-RI
    Molecular point group: c1

    Geometry (in Angstrom), charge = 0, multiplicity = 1:

       Center              X                  Y                   Z               Mass
    ------------   -----------------  -----------------  -----------------  -----------------
         C           -2.457819854295    -0.000000020874     0.005831488270    12.000000000000
         C            1.865407145705    -0.000004020874     0.003397488270    12.000000000000
         C            1.162376145705    -1.206301020874    -0.004139511730    12.000000000000
         C            1.162383145705     1.206295979126    -0.004140511730    12.000000000000
         C           -0.233462854295    -1.202962020874    -0.014212511730    12.000000000000
         C           -0.233007354295     1.202966979126     0.035786488270    12.000000000000
         C           -0.950903854295     0.000004979126    -0.022534511730    12.000000000000
         H            2.952678145705    -0.000005020874     0.008498488270     1.007825032230
         H            1.700963145705    -2.151233020874    -0.002933511730     1.007825032230
         H            1.700976145705     2.151224979126    -0.002937511730     1.007825032230
         H           -0.774396854295    -2.148074020874    -0.024348511730     1.007825032230
         H           -0.774384854295     2.148082979126    -0.024344511730     1.007825032230
         H           -2.861031854295    -0.885150020874    -0.494430511730     1.007825032230
         H           -2.861033854295     0.885344979126    -0.494086511730     1.007825032230
         H           -2.834093854295    -0.000201020874     1.034720488270     1.007825032230

  Basis Set: AUG-CC-PVTZ
    Blend: AUG-CC-PVTZ
  Basis Set: (AUG-CC-PVTZ AUX)
    Blend: AUG-CC-PVTZ-JKFIT
	 Reference Energy          =    -269.8290676980736862 [Eh]
	 Singles Energy            =      -0.0000000000000000 [Eh]
	 Same-Spin Energy          =      -0.2995241843437146 [Eh]
	 Opposite-Spin Energy      =      -0.9754942043433972 [Eh]
	 Correlation Energy        =      -1.2750183886871118 [Eh]
	 Total Energy              =    -271.1040860867607876 [Eh]

	 ================> DF-SCS-MP2 Energies <==================
	-----------------------------------------------------------
	 SCS Same-Spin Scale       =       0.3333333333333333 [-]
	 SCS Opposite-Spin Scale   =       1.2000000000000000 [-]
	 SCS Same-Spin Energy      =      -0.0998413947812382 [Eh]
	 SCS Opposite-Spin Energy  =      -1.1705930452120765 [Eh]
	 SCS Correlation Energy    =      -1.2704344399933147 [Eh]
	 SCS Total Energy          =    -271.0995021380670096 [Eh]
	-----------------------------------------------------------

  Dipole Moment: [D]
     X:    -0.3753      Y:    -0.0059      Z:     0.0080     Total:     0.3755

*** Psi4 exiting successfully. Buy a developer a beer!
