                               Psi4 1.3.2 release

  ==> Input File <==

--------------------------------------------------------------------------
#psi4
#
memory 32 gb

molecule  {
0 1
  C       -2.4205560     0.0000000     0.0118300
  C        1.9026710    -0.0000040     0.0093960
  C        1.1996400    -1.2063010     0.0018590
  C        1.1996470     1.2062960     0.0018580
  C       -0.1961990    -1.2029620    -0.0082140
  C       -0.1961940     1.2029670    -0.0082130
  C       -0.9136400     0.0000050    -0.0165360
  H        2.9899420    -0.0000050     0.0144970
  H        1.7371754    -2.1515940     0.1530609
  H        1.7382400     2.1512250     0.0030610
  H       -0.7371330    -2.1480740    -0.0183500
  H       -0.7371210     2.1480830    -0.0183460
  H       -2.8237680    -0.8851500    -0.4884320
  H       -2.8237700     0.8853450    -0.4880880
  H       -2.7968300    -0.0002010     1.0407190
units angstrom
no_reorient  #important for SAPT in psi4, default
symmetry c1  #important for SAPT in psi4, default
}

set PROPERTIES_ORIGIN ["COM"]
properties('MP2/aug-cc-pvtz', properties = ['dipole'])
--------------------------------------------------------------------------

    Molecular point group: c1
  Charge       = 0
  Multiplicity = 1
  Basis Set: AUG-CC-PVTZ
    Blend: AUG-CC-PVTZ
  Basis Set: (AUG-CC-PVTZ AUX)
    Blend: AUG-CC-PVTZ-JKFIT

    Orbital Energies [Eh]
    ---------------------

    Doubly Occupied:

       1A    -11.242277     2A    -11.235712     3A    -11.234873
       4A    -11.230719     5A    -11.230219     6A    -11.230133
       7A    -11.224687     8A     -1.150201     9A     -1.042919
      10A     -1.009616    11A     -0.931307    12A     -0.822861
      13A     -0.795687    14A     -0.690203    15A     -0.631686
      16A     -0.629369    17A     -0.581346    18A     -0.575727
      19A     -0.565267    20A     -0.538168    21A     -0.490365
      22A     -0.486409    23A     -0.481616    24A     -0.333872
      25A     -0.323498

  @DF-RHF Final Energy:  -269.82850018075658

   => Energetics <=

    Nuclear Repulsion Energy =            268.7483348014357034
    One-Electron Energy =                -895.7361986323792280
    Two-Electron Energy =                 357.1593636501869469
    Total Energy =                       -269.8285001807565777
  Basis Set: (AUG-CC-PVTZ AUX)
    Blend: AUG-CC-PVTZ-RI
    Molecular point group: c1

    Geometry (in Angstrom), charge = 0, multiplicity = 1:

       Center              X                  Y                   Z               Mass
    ------------   -----------------  -----------------  -----------------  -----------------
         C           -2.457749621336     0.000003931054     0.010706501316    12.000000000000
         C            1.865477378664    -0.000000068946     0.008272501316    12.000000000000
         C            1.162446378664    -1.206297068946     0.000735501316    12.000000000000
         C            1.162453378664     1.206299931054     0.000734501316    12.000000000000
         C           -0.233392621336    -1.202958068946    -0.009337498684    12.000000000000
         C           -0.233387621336     1.202970931054    -0.009336498684    12.000000000000
         C           -0.950833621336     0.000008931054    -0.017659498684    12.000000000000
         H            2.952748378664    -0.000001068946     0.013373501316     1.007825032230
         H            1.699981778664    -2.151590068946     0.151937401316     1.007825032230
         H            1.701046378664     2.151228931054     0.001937501316     1.007825032230
         H           -0.774326621336    -2.148070068946    -0.019473498684     1.007825032230
         H           -0.774314621336     2.148086931054    -0.019469498684     1.007825032230
         H           -2.860961621336    -0.885146068946    -0.489555498684     1.007825032230
         H           -2.860963621336     0.885348931054    -0.489211498684     1.007825032230
         H           -2.834023621336    -0.000197068946     1.039595501316     1.007825032230

  Basis Set: AUG-CC-PVTZ
    Blend: AUG-CC-PVTZ
  Basis Set: (AUG-CC-PVTZ AUX)
    Blend: AUG-CC-PVTZ-JKFIT
	 Reference Energy          =    -269.8285001807565777 [Eh]
	 Singles Energy            =      -0.0000000000000000 [Eh]
	 Same-Spin Energy          =      -0.2995537183828597 [Eh]
	 Opposite-Spin Energy      =      -0.9755677387747402 [Eh]
	 Correlation Energy        =      -1.2751214571575999 [Eh]
	 Total Energy              =    -271.1036216379141592 [Eh]

	 ================> DF-SCS-MP2 Energies <==================
	-----------------------------------------------------------
	 SCS Same-Spin Scale       =       0.3333333333333333 [-]
	 SCS Opposite-Spin Scale   =       1.2000000000000000 [-]
	 SCS Same-Spin Energy      =      -0.0998512394609532 [Eh]
	 SCS Opposite-Spin Energy  =      -1.1706812865296883 [Eh]
	 SCS Correlation Energy    =      -1.2705325259906415 [Eh]
	 SCS Total Energy          =    -271.0990327067472094 [Eh]
	-----------------------------------------------------------

  Dipole Moment: [D]
     X:    -0.3917      Y:     0.0160      Z:     0.1300     Total:     0.4130

*** Psi4 exiting successfully. Buy a developer a beer!
