                               Psi4 1.3.2 release

  ==> Input File <==

--------------------------------------------------------------------------
#psi4
#
memory 32 gb

molecule  {
0 1
  C       -2.4205560     0.0000000     0.0118300
  C        1.9026710    -0.0000040     0.0093960
  C        1.1996400    -1.2063010     0.0018590
  C        1.1996470     1.2062960     0.0018580
  C       -0.1961990    -1.2029620    -0.0082140
  C       -0.1961940     1.2029670    -0.0082130
  C       -0.9136400     0.0000050    -0.0165360
  H        2.9899420    -0.0000050     0.0144970
  H        1.7382270    -2.1512330     0.0030650
  H        1.7382400     2.1512250     0.0030610
  H       -0.7385787    -2.1483195     0.1316428
  H       -0.7371210     2.1480830    -0.0183460
  H       -2.8237680    -0.8851500    -0.4884320
  H       -2.8237700     0.8853450    -0.4880880
  H       -2.7968300    -0.0002010     1.0407190
units angstrom
no_reorient  #important for SAPT in psi4, default
symmetry c1  #important for SAPT in psi4, default
}

set PROPERTIES_ORIGIN ["COM"]
properties('MP2/aug-cc-pvtz', properties = ['dipole'])
--------------------------------------------------------------------------

    Molecular point group: c1
  Charge       = 0
  Multiplicity = 1
  Basis Set: AUG-CC-PVTZ
    Blend: AUG-CC-PVTZ
  Basis Set: (AUG-CC-PVTZ AUX)
    Blend: AUG-CC-PVTZ-JKFIT

    Orbital Energies [Eh]
    ---------------------

    Doubly Occupied:

       1A    -11.242369     2A    -11.235072     3A    -11.234920
       4A    -11.230857     5A    -11.230582     6A    -11.230045
       7A    -11.224550     8A     -1.150170     9A     -1.042944
      10A     -1.009603    11A     -0.931192    12A     -0.822861
      13A     -0.795841    14A     -0.689858    15A     -0.631660
      16A     -0.629698    17A     -0.581718    18A     -0.575423
      19A     -0.565402    20A     -0.538026    21A     -0.489508
      22A     -0.486448    23A     -0.482204    24A     -0.333869
      25A     -0.323482

  @DF-RHF Final Energy:  -269.82857242492895

   => Energetics <=

    Nuclear Repulsion Energy =            268.7485705962872089
    One-Electron Energy =                -895.7376855011531234
    Two-Electron Energy =                 357.1605424799369644
    Total Energy =                       -269.8285724249289501
  Basis Set: (AUG-CC-PVTZ AUX)
    Blend: AUG-CC-PVTZ-RI
    Molecular point group: c1

    Geometry (in Angstrom), charge = 0, multiplicity = 1:

       Center              X                  Y                   Z               Mass
    ------------   -----------------  -----------------  -----------------  -----------------
         C           -2.457745307056     0.000002666656     0.010706535252    12.000000000000
         C            1.865481692944    -0.000001333344     0.008272535252    12.000000000000
         C            1.162450692944    -1.206298333344     0.000735535252    12.000000000000
         C            1.162457692944     1.206298666656     0.000734535252    12.000000000000
         C           -0.233388307056    -1.202959333344    -0.009337464748    12.000000000000
         C           -0.233383307056     1.202969666656    -0.009336464748    12.000000000000
         C           -0.950829307056     0.000007666656    -0.017659464748    12.000000000000
         H            2.952752692944    -0.000002333344     0.013373535252     1.007825032230
         H            1.701037692944    -2.151230333344     0.001941535252     1.007825032230
         H            1.701050692944     2.151227666656     0.001937535252     1.007825032230
         H           -0.775768007056    -2.148316833344     0.130519335252     1.007825032230
         H           -0.774310307056     2.148085666656    -0.019469464748     1.007825032230
         H           -2.860957307056    -0.885147333344    -0.489555464748     1.007825032230
         H           -2.860959307056     0.885347666656    -0.489211464748     1.007825032230
         H           -2.834019307056    -0.000198333344     1.039595535252     1.007825032230

  Basis Set: AUG-CC-PVTZ
    Blend: AUG-CC-PVTZ
  Basis Set: (AUG-CC-PVTZ AUX)
    Blend: AUG-CC-PVTZ-JKFIT
	 Reference Energy          =    -269.8285724249289501 [Eh]
	 Singles Energy            =      -0.0000000000000000 [Eh]
	 Same-Spin Energy          =      -0.2995439540315021 [Eh]
	 Opposite-Spin Energy      =      -0.9755313219835131 [Eh]
	 Correlation Energy        =      -1.2750752760150152 [Eh]
	 Total Energy              =    -271.1036477009439523 [Eh]

	 ================> DF-SCS-MP2 Energies <==================
	-----------------------------------------------------------
	 SCS Same-Spin Scale       =       0.3333333333333333 [-]
	 SCS Opposite-Spin Scale   =       1.2000000000000000 [-]
	 SCS Same-Spin Energy      =      -0.0998479846771674 [Eh]
	 SCS Opposite-Spin Energy  =      -1.1706375863802156 [Eh]
	 SCS Correlation Energy    =      -1.2704855710573830 [Eh]
	 SCS Total Energy          =    -271.0990579959863567 [Eh]
	-----------------------------------------------------------

  Dipole Moment: [D]
     X:    -0.3730      Y:     0.0138      Z:     0.1252     Total:     0.3937

*** Psi4 exiting successfully. Buy a developer a beer!
