                               Psi4 1.3.2 release

  ==> Input File <==

--------------------------------------------------------------------------
#psi4
#
memory 32 gb

molecule  {
0 1
  C       -2.4205560     0.0000000     0.0118300
  C        1.9026710    -0.0000040     0.0093960
  C        1.1996400    -1.2063010     0.0018590
  C        1.1996470     1.2062960     0.0018580
  C       -0.1961990    -1.2029620    -0.0082140
  C       -0.1934908     1.2029669     0.2917748
  C       -0.9136400     0.0000050    -0.0165360
  H        2.9899420    -0.0000050     0.0144970
  H        1.7382270    -2.1512330     0.0030650
  H        1.7382400     2.1512250     0.0030610
  H       -0.7371330    -2.1480740    -0.0183500
  H       -0.7371210     2.1480830    -0.0183460
  H       -2.8237680    -0.8851500    -0.4884320
  H       -2.8237700     0.8853450    -0.4880880
  H       -2.7968300    -0.0002010     1.0407190
units angstrom
no_reorient  #important for SAPT in psi4, default
symmetry c1  #important for SAPT in psi4, default
}

set PROPERTIES_ORIGIN ["COM"]
properties('MP2/aug-cc-pvtz', properties = ['dipole'])
--------------------------------------------------------------------------

    Molecular point group: c1
  Charge       = 0
  Multiplicity = 1
  Basis Set: AUG-CC-PVTZ
    Blend: AUG-CC-PVTZ
  Basis Set: (AUG-CC-PVTZ AUX)
    Blend: AUG-CC-PVTZ-JKFIT

    Orbital Energies [Eh]
    ---------------------

    Doubly Occupied:

       1A    -11.250236     2A    -11.241962     3A    -11.239579
       4A    -11.237122     5A    -11.230149     6A    -11.229730
       7A    -11.225311     8A     -1.147711     9A     -1.042776
      10A     -1.006942    11A     -0.930522    12A     -0.820758
      13A     -0.791897    14A     -0.686337    15A     -0.629113
      16A     -0.626270    17A     -0.580660    18A     -0.575606
      19A     -0.560116    20A     -0.536414    21A     -0.491768
      22A     -0.481513    23A     -0.473539    24A     -0.334600
      25A     -0.321706

  @DF-RHF Final Energy:  -269.80095387503712

   => Energetics <=

    Nuclear Repulsion Energy =            267.8540816843433845
    One-Electron Energy =                -893.9253979778416124
    Two-Electron Energy =                 356.2703624184611613
    Total Energy =                       -269.8009538750371235
  Basis Set: (AUG-CC-PVTZ AUX)
    Blend: AUG-CC-PVTZ-RI
    Molecular point group: c1

    Geometry (in Angstrom), charge = 0, multiplicity = 1:

       Center              X                  Y                   Z               Mass
    ------------   -----------------  -----------------  -----------------  -----------------
         C           -2.458113484932    -0.000000007840    -0.026753704757    12.000000000000
         C            1.865113515068    -0.000004007840    -0.029187704757    12.000000000000
         C            1.162082515068    -1.206301007840    -0.036724704757    12.000000000000
         C            1.162089515068     1.206295992160    -0.036725704757    12.000000000000
         C           -0.233756484932    -1.202962007840    -0.046797704757    12.000000000000
         C           -0.231048284932     1.202966892160     0.253191095243    12.000000000000
         C           -0.951197484932     0.000004992160    -0.055119704757    12.000000000000
         H            2.952384515068    -0.000005007840    -0.024086704757     1.007825032230
         H            1.700669515068    -2.151233007840    -0.035518704757     1.007825032230
         H            1.700682515068     2.151224992160    -0.035522704757     1.007825032230
         H           -0.774690484932    -2.148074007840    -0.056933704757     1.007825032230
         H           -0.774678484932     2.148082992160    -0.056929704757     1.007825032230
         H           -2.861325484932    -0.885150007840    -0.527015704757     1.007825032230
         H           -2.861327484932     0.885344992160    -0.526671704757     1.007825032230
         H           -2.834387484932    -0.000201007840     1.002135295243     1.007825032230

  Basis Set: AUG-CC-PVTZ
    Blend: AUG-CC-PVTZ
  Basis Set: (AUG-CC-PVTZ AUX)
    Blend: AUG-CC-PVTZ-JKFIT
	 Reference Energy          =    -269.8009538750371235 [Eh]
	 Singles Energy            =      -0.0000000000000000 [Eh]
	 Same-Spin Energy          =      -0.3007260125140899 [Eh]
	 Opposite-Spin Energy      =      -0.9794695040720990 [Eh]
	 Correlation Energy        =      -1.2801955165861889 [Eh]
	 Total Energy              =    -271.0811493916232848 [Eh]

	 ================> DF-SCS-MP2 Energies <==================
	-----------------------------------------------------------
	 SCS Same-Spin Scale       =       0.3333333333333333 [-]
	 SCS Opposite-Spin Scale   =       1.2000000000000000 [-]
	 SCS Same-Spin Energy      =      -0.1002420041713633 [Eh]
	 SCS Opposite-Spin Energy  =      -1.1753634048865187 [Eh]
	 SCS Correlation Energy    =      -1.2756054090578819 [Eh]
	 SCS Total Energy          =    -271.0765592840950262 [Eh]
	-----------------------------------------------------------

  Dipole Moment: [D]
     X:    -0.2888      Y:    -0.1773      Z:    -0.1451     Total:     0.3687

*** Psi4 exiting successfully. Buy a developer a beer!
