                               Psi4 1.3.2 release

  ==> Input File <==

--------------------------------------------------------------------------
#psi4
#
memory 32 gb

molecule  {
0 1
  C       -2.4205560     0.0000000     0.0118300
  C        1.9026710    -0.0000040     0.0093960
  C        1.1996400    -1.2063010     0.0018590
  C        1.1996470     1.2062960     0.0018580
  C       -0.1961990    -1.2029620    -0.0082140
  C       -0.1961940     1.2029670    -0.0082130
  C       -0.9136400     0.0000050    -0.0165360
  H        2.9899420    -0.0000050     0.0144970
  H        1.7364744    -2.1518347     0.2530581
  H        1.7382400     2.1512250     0.0030610
  H       -0.7371330    -2.1480740    -0.0183500
  H       -0.7371210     2.1480830    -0.0183460
  H       -2.8237680    -0.8851500    -0.4884320
  H       -2.8237700     0.8853450    -0.4880880
  H       -2.7968300    -0.0002010     1.0407190
units angstrom
no_reorient  #important for SAPT in psi4, default
symmetry c1  #important for SAPT in psi4, default
}

set PROPERTIES_ORIGIN ["COM"]
properties('MP2/aug-cc-pvtz', properties = ['dipole'])
--------------------------------------------------------------------------

    Molecular point group: c1
  Charge       = 0
  Multiplicity = 1
  Basis Set: AUG-CC-PVTZ
    Blend: AUG-CC-PVTZ
  Basis Set: (AUG-CC-PVTZ AUX)
    Blend: AUG-CC-PVTZ-JKFIT

    Orbital Energies [Eh]
    ---------------------

    Doubly Occupied:

       1A    -11.242427     2A    -11.237289     3A    -11.235030
       4A    -11.231055     5A    -11.230591     6A    -11.230507
       7A    -11.224815     8A     -1.150354     9A     -1.042979
      10A     -1.009376    11A     -0.931462    12A     -0.822221
      13A     -0.795235    14A     -0.689744    15A     -0.631863
      16A     -0.627706    17A     -0.580353    18A     -0.575578
      19A     -0.565280    20A     -0.538302    21A     -0.492698
      22A     -0.486559    23A     -0.478145    24A     -0.333733
      25A     -0.323572

  @DF-RHF Final Energy:  -269.82571330021966

   => Energetics <=

    Nuclear Repulsion Energy =            268.6823509728549766
    One-Electron Energy =                -895.6023812870680558
    Two-Electron Energy =                 357.0943170139934750
    Total Energy =                       -269.8257133002196611
  Basis Set: (AUG-CC-PVTZ AUX)
    Blend: AUG-CC-PVTZ-RI
    Molecular point group: c1

    Geometry (in Angstrom), charge = 0, multiplicity = 1:

       Center              X                  Y                   Z               Mass
    ------------   -----------------  -----------------  -----------------  -----------------
         C           -2.457741947369     0.000006566038     0.009611814863    12.000000000000
         C            1.865485052631     0.000002566038     0.007177814863    12.000000000000
         C            1.162454052631    -1.206294433962    -0.000359185137    12.000000000000
         C            1.162461052631     1.206302566038    -0.000360185137    12.000000000000
         C           -0.233384947369    -1.202955433962    -0.010432185137    12.000000000000
         C           -0.233379947369     1.202973566038    -0.010431185137    12.000000000000
         C           -0.950825947369     0.000011566038    -0.018754185137    12.000000000000
         H            2.952756052631     0.000001566038     0.012278814863     1.007825032230
         H            1.699288452631    -2.151828133962     0.250839914863     1.007825032230
         H            1.701054052631     2.151231566038     0.000842814863     1.007825032230
         H           -0.774318947369    -2.148067433962    -0.020568185137     1.007825032230
         H           -0.774306947369     2.148089566038    -0.020564185137     1.007825032230
         H           -2.860953947369    -0.885143433962    -0.490650185137     1.007825032230
         H           -2.860955947369     0.885351566038    -0.490306185137     1.007825032230
         H           -2.834015947369    -0.000194433962     1.038500814863     1.007825032230

  Basis Set: AUG-CC-PVTZ
    Blend: AUG-CC-PVTZ
  Basis Set: (AUG-CC-PVTZ AUX)
    Blend: AUG-CC-PVTZ-JKFIT
	 Reference Energy          =    -269.8257133002196611 [Eh]
	 Singles Energy            =      -0.0000000000000000 [Eh]
	 Same-Spin Energy          =      -0.2996907030142443 [Eh]
	 Opposite-Spin Energy      =      -0.9759375825049481 [Eh]
	 Correlation Energy        =      -1.2756282855191925 [Eh]
	 Total Energy              =    -271.1013415857388509 [Eh]

	 ================> DF-SCS-MP2 Energies <==================
	-----------------------------------------------------------
	 SCS Same-Spin Scale       =       0.3333333333333333 [-]
	 SCS Opposite-Spin Scale   =       1.2000000000000000 [-]
	 SCS Same-Spin Energy      =      -0.0998969010047481 [Eh]
	 SCS Opposite-Spin Energy  =      -1.1711250990059376 [Eh]
	 SCS Correlation Energy    =      -1.2710220000106858 [Eh]
	 SCS Total Energy          =    -271.0967353002303639 [Eh]
	-----------------------------------------------------------

  Dipole Moment: [D]
     X:    -0.4118      Y:     0.0454      Z:     0.1899     Total:     0.4558

*** Psi4 exiting successfully. Buy a developer a beer!
