                               Psi4 1.3.2 release

  ==> Input File <==

--------------------------------------------------------------------------
#psi4
#
memory 32 gb

molecule  {
0 1
  C       -2.4205560     0.0000000     0.0118300
  C        1.9026710    -0.0000040     0.0093960
  C        1.1996400    -1.2063010     0.0018590
  C        1.1996470     1.2062960     0.0018580
  C       -0.1961990    -1.2029620    -0.0082140
  C       -0.1961940     1.2029670    -0.0082130
  C       -0.9136400     0.0000050    -0.0165360
  H        2.9899420    -0.0000050     0.0144970
  H        1.7378765    -2.1513533     0.0530636
  H        1.7382400     2.1512250     0.0030610
  H       -0.7371330    -2.1480740    -0.0183500
  H       -0.7371210     2.1480830    -0.0183460
  H       -2.8237680    -0.8851500    -0.4884320
  H       -2.8237700     0.8853450    -0.4880880
  H       -2.7968300    -0.0002010     1.0407190
units angstrom
no_reorient  #important for SAPT in psi4, default
symmetry c1  #important for SAPT in psi4, default
}

set PROPERTIES_ORIGIN ["COM"]
properties('MP2/aug-cc-pvtz', properties = ['dipole'])
--------------------------------------------------------------------------

    Molecular point group: c1
  Charge       = 0
  Multiplicity = 1
  Basis Set: AUG-CC-PVTZ
    Blend: AUG-CC-PVTZ
  Basis Set: (AUG-CC-PVTZ AUX)
    Blend: AUG-CC-PVTZ-JKFIT

    Orbital Energies [Eh]
    ---------------------

    Doubly Occupied:

       1A    -11.242204     2A    -11.234951     3A    -11.234770
       4A    -11.230565     5A    -11.230032     6A    -11.229950
       7A    -11.224621     8A     -1.150131     9A     -1.042898
      10A     -1.009751    11A     -0.931231    12A     -0.823225
      13A     -0.795923    14A     -0.690474    15A     -0.631610
      16A     -0.630231    17A     -0.581874    18A     -0.575767
      19A     -0.565277    20A     -0.538100    21A     -0.487875
      22A     -0.486516    23A     -0.484456    24A     -0.333954
      25A     -0.323473

  @DF-RHF Final Energy:  -269.82979186937757

   => Energetics <=

    Nuclear Repulsion Energy =            268.7822546949567482
    One-Electron Energy =                -895.8043759956433405
    Two-Electron Energy =                 357.1923294313090764
    Total Energy =                       -269.8297918693775728
  Basis Set: (AUG-CC-PVTZ AUX)
    Blend: AUG-CC-PVTZ-RI
    Molecular point group: c1

    Geometry (in Angstrom), charge = 0, multiplicity = 1:

       Center              X                  Y                   Z               Mass
    ------------   -----------------  -----------------  -----------------  -----------------
         C           -2.457757296398     0.000001296070     0.011801188863    12.000000000000
         C            1.865469703602    -0.000002703930     0.009367188863    12.000000000000
         C            1.162438703602    -1.206299703930     0.001830188863    12.000000000000
         C            1.162445703602     1.206297296070     0.001829188863    12.000000000000
         C           -0.233400296398    -1.202960703930    -0.008242811137    12.000000000000
         C           -0.233395296398     1.202968296070    -0.008241811137    12.000000000000
         C           -0.950841296398     0.000006296070    -0.016564811137    12.000000000000
         H            2.952740703602    -0.000003703930     0.014468188863     1.007825032230
         H            1.700675203602    -2.151352003930     0.053034788863     1.007825032230
         H            1.701038703602     2.151226296070     0.003032188863     1.007825032230
         H           -0.774334296398    -2.148072703930    -0.018378811137     1.007825032230
         H           -0.774322296398     2.148084296070    -0.018374811137     1.007825032230
         H           -2.860969296398    -0.885148703930    -0.488460811137     1.007825032230
         H           -2.860971296398     0.885346296070    -0.488116811137     1.007825032230
         H           -2.834031296398    -0.000199703930     1.040690188863     1.007825032230

  Basis Set: AUG-CC-PVTZ
    Blend: AUG-CC-PVTZ
  Basis Set: (AUG-CC-PVTZ AUX)
    Blend: AUG-CC-PVTZ-JKFIT
	 Reference Energy          =    -269.8297918693775728 [Eh]
	 Singles Energy            =      -0.0000000000000000 [Eh]
	 Same-Spin Energy          =      -0.2994845888175193 [Eh]
	 Opposite-Spin Energy      =      -0.9753898222459252 [Eh]
	 Correlation Energy        =      -1.2748744110634445 [Eh]
	 Total Energy              =    -271.1046662804409948 [Eh]

	 ================> DF-SCS-MP2 Energies <==================
	-----------------------------------------------------------
	 SCS Same-Spin Scale       =       0.3333333333333333 [-]
	 SCS Opposite-Spin Scale   =       1.2000000000000000 [-]
	 SCS Same-Spin Energy      =      -0.0998281962725064 [Eh]
	 SCS Opposite-Spin Energy  =      -1.1704677866951101 [Eh]
	 SCS Correlation Energy    =      -1.2702959829676166 [Eh]
	 SCS Total Energy          =    -271.1000878523452116 [Eh]
	-----------------------------------------------------------

  Dipole Moment: [D]
     X:    -0.3807      Y:     0.0015      Z:     0.0682     Total:     0.3868

*** Psi4 exiting successfully. Buy a developer a beer!
