                               Psi4 1.3.2 release

  ==> Input File <==

--------------------------------------------------------------------------
#psi4
#
memory 32 gb

molecule  {
0 1
  C       -2.4205560     0.0000000     0.0118300
  C        1.9026710    -0.0000040     0.0093960
  C        1.1996400    -1.2063010     0.0018590
  C        1.1996470     1.2062960     0.0018580
  C       -0.1961990    -1.2029620    -0.0082140
  C       -0.1961940     1.2029670    -0.0082130
  C       -0.9136400     0.0000050    -0.0165360
  H        2.9899420    -0.0000050     0.0144970
  H        1.7382270    -2.1512330     0.0030650
  H        1.7382400     2.1512250     0.0030610
  H       -0.7400244    -2.1485649     0.2816357
  H       -0.7371210     2.1480830    -0.0183460
  H       -2.8237680    -0.8851500    -0.4884320
  H       -2.8237700     0.8853450    -0.4880880
  H       -2.7968300    -0.0002010     1.0407190
units angstrom
no_reorient  #important for SAPT in psi4, default
symmetry c1  #important for SAPT in psi4, default
}

set PROPERTIES_ORIGIN ["COM"]
properties('MP2/aug-cc-pvtz', properties = ['dipole'])
--------------------------------------------------------------------------

    Molecular point group: c1
  Charge       = 0
  Multiplicity = 1
  Basis Set: AUG-CC-PVTZ
    Blend: AUG-CC-PVTZ
  Basis Set: (AUG-CC-PVTZ AUX)
    Blend: AUG-CC-PVTZ-JKFIT

    Orbital Energies [Eh]
    ---------------------

    Doubly Occupied:

       1A    -11.242977     2A    -11.235717     3A    -11.235585
       4A    -11.233382     5A    -11.230874     6A    -11.230329
       7A    -11.224502     8A     -1.150383     9A     -1.043141
      10A     -1.009214    11A     -0.931152    12A     -0.821818
      13A     -0.795573    14A     -0.688133    15A     -0.631909
      16A     -0.628061    17A     -0.581173    18A     -0.574591
      19A     -0.564937    20A     -0.537594    21A     -0.492159
      22A     -0.486709    23A     -0.477536    24A     -0.333661
      25A     -0.323588

  @DF-RHF Final Energy:  -269.82387847030634

   => Energetics <=

    Nuclear Repulsion Energy =            268.6357507130074396
    One-Electron Energy =                -895.5098626079134192
    Two-Electron Energy =                 357.0502334245996963
    Total Energy =                       -269.8238784703063402
  Basis Set: (AUG-CC-PVTZ AUX)
    Blend: AUG-CC-PVTZ-RI
    Molecular point group: c1

    Geometry (in Angstrom), charge = 0, multiplicity = 1:

       Center              X                  Y                   Z               Mass
    ------------   -----------------  -----------------  -----------------  -----------------
         C           -2.457729480731     0.000005353092     0.009064537320    12.000000000000
         C            1.865497519269     0.000001353092     0.006630537320    12.000000000000
         C            1.162466519269    -1.206295646908    -0.000906462680    12.000000000000
         C            1.162473519269     1.206301353092    -0.000907462680    12.000000000000
         C           -0.233372480731    -1.202956646908    -0.010979462680    12.000000000000
         C           -0.233367480731     1.202972353092    -0.010978462680    12.000000000000
         C           -0.950813480731     0.000010353092    -0.019301462680    12.000000000000
         H            2.952768519269     0.000000353092     0.011731537320     1.007825032230
         H            1.701053519269    -2.151227646908     0.000299537320     1.007825032230
         H            1.701066519269     2.151230353092     0.000295537320     1.007825032230
         H           -0.777197880731    -2.148559546908     0.278870237320     1.007825032230
         H           -0.774294480731     2.148088353092    -0.021111462680     1.007825032230
         H           -2.860941480731    -0.885144646908    -0.491197462680     1.007825032230
         H           -2.860943480731     0.885350353092    -0.490853462680     1.007825032230
         H           -2.834003480731    -0.000195646908     1.037953537320     1.007825032230

  Basis Set: AUG-CC-PVTZ
    Blend: AUG-CC-PVTZ
  Basis Set: (AUG-CC-PVTZ AUX)
    Blend: AUG-CC-PVTZ-JKFIT
	 Reference Energy          =    -269.8238784703063402 [Eh]
	 Singles Energy            =      -0.0000000000000000 [Eh]
	 Same-Spin Energy          =      -0.2997588195194137 [Eh]
	 Opposite-Spin Energy      =      -0.9760822676078765 [Eh]
	 Correlation Energy        =      -1.2758410871272903 [Eh]
	 Total Energy              =    -271.0997195574336160 [Eh]

	 ================> DF-SCS-MP2 Energies <==================
	-----------------------------------------------------------
	 SCS Same-Spin Scale       =       0.3333333333333333 [-]
	 SCS Opposite-Spin Scale   =       1.2000000000000000 [-]
	 SCS Same-Spin Energy      =      -0.0999196065064712 [Eh]
	 SCS Opposite-Spin Energy  =      -1.1712987211294519 [Eh]
	 SCS Correlation Energy    =      -1.2712183276359230 [Eh]
	 SCS Total Energy          =    -271.0950967979422899 [Eh]
	-----------------------------------------------------------

  Dipole Moment: [D]
     X:    -0.3482      Y:     0.0604      Z:     0.2095     Total:     0.4108

*** Psi4 exiting successfully. Buy a developer a beer!
