                               Psi4 1.3.2 release

  ==> Input File <==

--------------------------------------------------------------------------
#psi4
#
memory 32 gb

molecule  {
0 1
  C       -2.4205560     0.0000000     0.0118300
  C        1.9026710    -0.0000040     0.0093960
  C        1.1996400    -1.2063010     0.0018590
  C        1.1996470     1.2062960     0.0018580
  C       -0.1961990    -1.2029620    -0.0082140
  C       -0.1948424     1.2029669     0.1417809
  C       -0.9136400     0.0000050    -0.0165360
  H        2.9899420    -0.0000050     0.0144970
  H        1.7382270    -2.1512330     0.0030650
  H        1.7382400     2.1512250     0.0030610
  H       -0.7371330    -2.1480740    -0.0183500
  H       -0.7371210     2.1480830    -0.0183460
  H       -2.8237680    -0.8851500    -0.4884320
  H       -2.8237700     0.8853450    -0.4880880
  H       -2.7968300    -0.0002010     1.0407190
units angstrom
no_reorient  #important for SAPT in psi4, default
symmetry c1  #important for SAPT in psi4, default
}

set PROPERTIES_ORIGIN ["COM"]
properties('MP2/aug-cc-pvtz', properties = ['dipole'])
--------------------------------------------------------------------------

    Molecular point group: c1
  Charge       = 0
  Multiplicity = 1
  Basis Set: AUG-CC-PVTZ
    Blend: AUG-CC-PVTZ
  Basis Set: (AUG-CC-PVTZ AUX)
    Blend: AUG-CC-PVTZ-JKFIT

    Orbital Energies [Eh]
    ---------------------

    Doubly Occupied:

       1A    -11.244316     2A    -11.236536     3A    -11.235937
       4A    -11.231874     5A    -11.230416     6A    -11.229892
       7A    -11.224800     8A     -1.149507     9A     -1.042804
      10A     -1.009169    11A     -0.931027    12A     -0.822424
      13A     -0.794883    14A     -0.689178    15A     -0.630404
      16A     -0.629601    17A     -0.581517    18A     -0.575796
      19A     -0.563690    20A     -0.537771    21A     -0.490087
      22A     -0.484746    23A     -0.481138    24A     -0.334209
      25A     -0.322907

  @DF-RHF Final Energy:  -269.82263657752588

   => Energetics <=

    Nuclear Repulsion Energy =            268.5550114106735577
    One-Electron Energy =                -895.3460368437018815
    Two-Electron Energy =                 356.9683888555024964
    Total Energy =                       -269.8226365775258841
  Basis Set: (AUG-CC-PVTZ AUX)
    Blend: AUG-CC-PVTZ-RI
    Molecular point group: c1

    Geometry (in Angstrom), charge = 0, multiplicity = 1:

       Center              X                  Y                   Z               Mass
    ------------   -----------------  -----------------  -----------------  -----------------
         C           -2.457937309157    -0.000000007840    -0.007202586334    12.000000000000
         C            1.865289690843    -0.000004007840    -0.009636586334    12.000000000000
         C            1.162258690843    -1.206301007840    -0.017173586334    12.000000000000
         C            1.162265690843     1.206295992160    -0.017174586334    12.000000000000
         C           -0.233580309157    -1.202962007840    -0.027246586334    12.000000000000
         C           -0.232223709157     1.202966892160     0.122748313666    12.000000000000
         C           -0.951021309157     0.000004992160    -0.035568586334    12.000000000000
         H            2.952560690843    -0.000005007840    -0.004535586334     1.007825032230
         H            1.700845690843    -2.151233007840    -0.015967586334     1.007825032230
         H            1.700858690843     2.151224992160    -0.015971586334     1.007825032230
         H           -0.774514309157    -2.148074007840    -0.037382586334     1.007825032230
         H           -0.774502309157     2.148082992160    -0.037378586334     1.007825032230
         H           -2.861149309157    -0.885150007840    -0.507464586334     1.007825032230
         H           -2.861151309157     0.885344992160    -0.507120586334     1.007825032230
         H           -2.834211309157    -0.000201007840     1.021686413666     1.007825032230

  Basis Set: AUG-CC-PVTZ
    Blend: AUG-CC-PVTZ
  Basis Set: (AUG-CC-PVTZ AUX)
    Blend: AUG-CC-PVTZ-JKFIT
	 Reference Energy          =    -269.8226365775258841 [Eh]
	 Singles Energy            =      -0.0000000000000000 [Eh]
	 Same-Spin Energy          =      -0.2998214085267443 [Eh]
	 Opposite-Spin Energy      =      -0.9764387739997112 [Eh]
	 Correlation Energy        =      -1.2762601825264555 [Eh]
	 Total Energy              =    -271.0988967600523551 [Eh]

	 ================> DF-SCS-MP2 Energies <==================
	-----------------------------------------------------------
	 SCS Same-Spin Scale       =       0.3333333333333333 [-]
	 SCS Opposite-Spin Scale   =       1.2000000000000000 [-]
	 SCS Same-Spin Energy      =      -0.0999404695089148 [Eh]
	 SCS Opposite-Spin Energy  =      -1.1717265287996534 [Eh]
	 SCS Correlation Energy    =      -1.2716669983085682 [Eh]
	 SCS Total Energy          =    -271.0943035758344308 [Eh]
	-----------------------------------------------------------

  Dipole Moment: [D]
     X:    -0.3545      Y:    -0.0466      Z:    -0.0509     Total:     0.3611

*** Psi4 exiting successfully. Buy a developer a beer!
