                               Psi4 1.3.2 release

  ==> Input File <==

--------------------------------------------------------------------------
#psi4
#
memory 32 gb

molecule  {
0 1
  C       -2.4205560     0.0000000     0.0118300
  C        1.9026710    -0.0000040     0.0093960
  C        1.1996400    -1.2063010     0.0018590
  C        1.1996470     1.2062960     0.0018580
  C       -0.1961990    -1.2029620    -0.0082140
  C       -0.1961940     1.2029670    -0.0082130
  C       -0.9136400     0.0000050    -0.0165360
  H        2.9899420    -0.0000050     0.0144970
  H        1.7382270    -2.1512330     0.0030650
  H        1.7382400     2.1512250     0.0030610
  H       -0.7380968    -2.1482376     0.0816452
  H       -0.7371210     2.1480830    -0.0183460
  H       -2.8237680    -0.8851500    -0.4884320
  H       -2.8237700     0.8853450    -0.4880880
  H       -2.7968300    -0.0002010     1.0407190
units angstrom
no_reorient  #important for SAPT in psi4, default
symmetry c1  #important for SAPT in psi4, default
}

set PROPERTIES_ORIGIN ["COM"]
properties('MP2/aug-cc-pvtz', properties = ['dipole'])
--------------------------------------------------------------------------

    Molecular point group: c1
  Charge       = 0
  Multiplicity = 1
  Basis Set: AUG-CC-PVTZ
    Blend: AUG-CC-PVTZ
  Basis Set: (AUG-CC-PVTZ AUX)
    Blend: AUG-CC-PVTZ-JKFIT

    Orbital Energies [Eh]
    ---------------------

    Doubly Occupied:

       1A    -11.242263     2A    -11.234961     3A    -11.234807
       4A    -11.230594     5A    -11.230321     6A    -11.229994
       7A    -11.224570     8A     -1.150138     9A     -1.042913
      10A     -1.009690    11A     -0.931205    12A     -0.823085
      13A     -0.795898    14A     -0.690219    15A     -0.631621
      16A     -0.630030    17A     -0.581839    18A     -0.575596
      19A     -0.565419    20A     -0.538085    21A     -0.488543
      22A     -0.486456    23A     -0.483512    24A     -0.333917
      25A     -0.323470

  @DF-RHF Final Energy:  -269.82935807565821

   => Energetics <=

    Nuclear Repulsion Energy =            268.7699604740642485
    One-Electron Energy =                -895.7803500185907524
    Two-Electron Energy =                 357.1810314688683548
    Total Energy =                       -269.8293580756582060
  Basis Set: (AUG-CC-PVTZ AUX)
    Blend: AUG-CC-PVTZ-RI
    Molecular point group: c1

    Geometry (in Angstrom), charge = 0, multiplicity = 1:

       Center              X                  Y                   Z               Mass
    ------------   -----------------  -----------------  -----------------  -----------------
         C           -2.457750582498     0.000001770083     0.011253867531    12.000000000000
         C            1.865476417502    -0.000002229917     0.008819867531    12.000000000000
         C            1.162445417502    -1.206299229917     0.001282867531    12.000000000000
         C            1.162452417502     1.206297770083     0.001281867531    12.000000000000
         C           -0.233393582498    -1.202960229917    -0.008790132469    12.000000000000
         C           -0.233388582498     1.202968770083    -0.008789132469    12.000000000000
         C           -0.950834582498     0.000006770083    -0.017112132469    12.000000000000
         H            2.952747417502    -0.000003229917     0.013920867531     1.007825032230
         H            1.701032417502    -2.151231229917     0.002488867531     1.007825032230
         H            1.701045417502     2.151226770083     0.002484867531     1.007825032230
         H           -0.775291382498    -2.148235829917     0.081069067531     1.007825032230
         H           -0.774315582498     2.148084770083    -0.018922132469     1.007825032230
         H           -2.860962582498    -0.885148229917    -0.489008132469     1.007825032230
         H           -2.860964582498     0.885346770083    -0.488664132469     1.007825032230
         H           -2.834024582498    -0.000199229917     1.040142867531     1.007825032230

  Basis Set: AUG-CC-PVTZ
    Blend: AUG-CC-PVTZ
  Basis Set: (AUG-CC-PVTZ AUX)
    Blend: AUG-CC-PVTZ-JKFIT
	 Reference Energy          =    -269.8293580756582060 [Eh]
	 Singles Energy            =      -0.0000000000000000 [Eh]
	 Same-Spin Energy          =      -0.2995044548999805 [Eh]
	 Opposite-Spin Energy      =      -0.9754359598463533 [Eh]
	 Correlation Energy        =      -1.2749404147463339 [Eh]
	 Total Energy              =    -271.1042984904045170 [Eh]

	 ================> DF-SCS-MP2 Energies <==================
	-----------------------------------------------------------
	 SCS Same-Spin Scale       =       0.3333333333333333 [-]
	 SCS Opposite-Spin Scale   =       1.2000000000000000 [-]
	 SCS Same-Spin Energy      =      -0.0998348182999935 [Eh]
	 SCS Opposite-Spin Energy  =      -1.1705231518156241 [Eh]
	 SCS Correlation Energy    =      -1.2703579701156176 [Eh]
	 SCS Total Energy          =    -271.0997160457738460 [Eh]
	-----------------------------------------------------------

  Dipole Moment: [D]
     X:    -0.3771      Y:     0.0055      Z:     0.0960     Total:     0.3891

*** Psi4 exiting successfully. Buy a developer a beer!
