                               Psi4 1.3.2 release

  ==> Input File <==

--------------------------------------------------------------------------
#psi4
#
memory 32 gb

molecule  {
0 1
  C       -2.4205560     0.0000000     0.0118300
  C        1.9026710    -0.0000040     0.0093960
  C        1.1996400    -1.2063010     0.0018590
  C        1.1996470     1.2062960     0.0018580
  C       -0.1961990    -1.2029620    -0.0082140
  C       -0.1961940     1.2029670    -0.0082130
  C       -0.9136400     0.0000050    -0.0165360
  H        2.9902950    -0.0000050    -0.0355018
  H        1.7382270    -2.1512330     0.0030650
  H        1.7382400     2.1512250     0.0030610
  H       -0.7371330    -2.1480740    -0.0183500
  H       -0.7371210     2.1480830    -0.0183460
  H       -2.8237680    -0.8851500    -0.4884320
  H       -2.8237700     0.8853450    -0.4880880
  H       -2.7968300    -0.0002010     1.0407190
units angstrom
no_reorient  #important for SAPT in psi4, default
symmetry c1  #important for SAPT in psi4, default
}

set PROPERTIES_ORIGIN ["COM"]
properties('MP2/aug-cc-pvtz', properties = ['dipole'])
--------------------------------------------------------------------------

    Molecular point group: c1
  Charge       = 0
  Multiplicity = 1
  Basis Set: AUG-CC-PVTZ
    Blend: AUG-CC-PVTZ
  Basis Set: (AUG-CC-PVTZ AUX)
    Blend: AUG-CC-PVTZ-JKFIT

    Orbital Energies [Eh]
    ---------------------

    Doubly Occupied:

       1A    -11.242230     2A    -11.234918     3A    -11.234759
       4A    -11.230662     5A    -11.230023     6A    -11.229945
       7A    -11.224634     8A     -1.150140     9A     -1.042890
      10A     -1.009787    11A     -0.931198    12A     -0.823288
      13A     -0.795907    14A     -0.690369    15A     -0.631620
      16A     -0.630316    17A     -0.581961    18A     -0.575696
      19A     -0.565276    20A     -0.538104    21A     -0.487914
      22A     -0.485783    23A     -0.485097    24A     -0.333982
      25A     -0.323480

  @DF-RHF Final Energy:  -269.82978639124161

   => Energetics <=

    Nuclear Repulsion Energy =            268.7818957687568968
    One-Electron Energy =                -895.8034073421168841
    Two-Electron Energy =                 357.1917251821183186
    Total Energy =                       -269.8297863912416119
  Basis Set: (AUG-CC-PVTZ AUX)
    Blend: AUG-CC-PVTZ-RI
    Molecular point group: c1

    Geometry (in Angstrom), charge = 0, multiplicity = 1:

       Center              X                  Y                   Z               Mass
    ------------   -----------------  -----------------  -----------------  -----------------
         C           -2.457764997733    -0.000000020874     0.012895877506    12.000000000000
         C            1.865462002267    -0.000004020874     0.010461877506    12.000000000000
         C            1.162431002267    -1.206301020874     0.002924877506    12.000000000000
         C            1.162438002267     1.206295979126     0.002923877506    12.000000000000
         C           -0.233407997733    -1.202962020874    -0.007148122494    12.000000000000
         C           -0.233402997733     1.202966979126    -0.007147122494    12.000000000000
         C           -0.950848997733     0.000004979126    -0.015470122494    12.000000000000
         H            2.953086002267    -0.000005020874    -0.034435922494     1.007825032230
         H            1.701018002267    -2.151233020874     0.004130877506     1.007825032230
         H            1.701031002267     2.151224979126     0.004126877506     1.007825032230
         H           -0.774341997733    -2.148074020874    -0.017284122494     1.007825032230
         H           -0.774329997733     2.148082979126    -0.017280122494     1.007825032230
         H           -2.860976997733    -0.885150020874    -0.487366122494     1.007825032230
         H           -2.860978997733     0.885344979126    -0.487022122494     1.007825032230
         H           -2.834038997733    -0.000201020874     1.041784877506     1.007825032230

  Basis Set: AUG-CC-PVTZ
    Blend: AUG-CC-PVTZ
  Basis Set: (AUG-CC-PVTZ AUX)
    Blend: AUG-CC-PVTZ-JKFIT
	 Reference Energy          =    -269.8297863912416119 [Eh]
	 Singles Energy            =      -0.0000000000000000 [Eh]
	 Same-Spin Energy          =      -0.2994866060919923 [Eh]
	 Opposite-Spin Energy      =      -0.9753906114565210 [Eh]
	 Correlation Energy        =      -1.2748772175485132 [Eh]
	 Total Energy              =    -271.1046636087901334 [Eh]

	 ================> DF-SCS-MP2 Energies <==================
	-----------------------------------------------------------
	 SCS Same-Spin Scale       =       0.3333333333333333 [-]
	 SCS Opposite-Spin Scale   =       1.2000000000000000 [-]
	 SCS Same-Spin Energy      =      -0.0998288686973308 [Eh]
	 SCS Opposite-Spin Energy  =      -1.1704687337478250 [Eh]
	 SCS Correlation Energy    =      -1.2702976024451558 [Eh]
	 SCS Total Energy          =    -271.1000839936867806 [Eh]
	-----------------------------------------------------------

  Dipole Moment: [D]
     X:    -0.3810      Y:    -0.0000      Z:     0.0051     Total:     0.3810

*** Psi4 exiting successfully. Buy a developer a beer!
