                               Psi4 1.3.2 release

  ==> Input File <==

--------------------------------------------------------------------------
#psi4
#
memory 32 gb

molecule  {
0 1
  C       -2.4205560     0.0000000     0.0118300
  C        1.9026710    -0.0000040     0.0093960
  C        1.1996400    -1.2063010     0.0018590
  C        1.1996470     1.2062960     0.0018580
  C       -0.1961990    -1.2029620    -0.0082140
  C       -0.1961940     1.2029670    -0.0082130
  C       -0.9136400     0.0000050    -0.0165360
  H        2.9899420    -0.0000050     0.0144970
  H        1.7382270    -2.1512330     0.0030650
  H        1.7382400     2.1512250     0.0030610
  H       -0.7376149    -2.1481558     0.0316476
  H       -0.7371210     2.1480830    -0.0183460
  H       -2.8237680    -0.8851500    -0.4884320
  H       -2.8237700     0.8853450    -0.4880880
  H       -2.7968300    -0.0002010     1.0407190
units angstrom
no_reorient  #important for SAPT in psi4, default
symmetry c1  #important for SAPT in psi4, default
}

set PROPERTIES_ORIGIN ["COM"]
properties('MP2/aug-cc-pvtz', properties = ['dipole'])
--------------------------------------------------------------------------

    Molecular point group: c1
  Charge       = 0
  Multiplicity = 1
  Basis Set: AUG-CC-PVTZ
    Blend: AUG-CC-PVTZ
  Basis Set: (AUG-CC-PVTZ AUX)
    Blend: AUG-CC-PVTZ-JKFIT

    Orbital Energies [Eh]
    ---------------------

    Doubly Occupied:

       1A    -11.242205     2A    -11.234900     3A    -11.234745
       4A    -11.230558     5A    -11.230066     6A    -11.229955
       7A    -11.224590     8A     -1.150123     9A     -1.042897
      10A     -1.009746    11A     -0.931215    12A     -0.823225
      13A     -0.795936    14A     -0.690441    15A     -0.631602
      16A     -0.630242    17A     -0.581916    18A     -0.575711
      19A     -0.565383    20A     -0.538106    21A     -0.487622
      22A     -0.486550    23A     -0.484579    24A     -0.333951
      25A     -0.323469

  @DF-RHF Final Energy:  -269.82980993688312

   => Energetics <=

    Nuclear Repulsion Energy =            268.7826698848190290
    One-Electron Energy =                -895.8054960661611403
    Two-Electron Energy =                 357.1930162444589882
    Total Energy =                       -269.8298099368831231
  Basis Set: (AUG-CC-PVTZ AUX)
    Blend: AUG-CC-PVTZ-RI
    Molecular point group: c1

    Geometry (in Angstrom), charge = 0, multiplicity = 1:

       Center              X                  Y                   Z               Mass
    ------------   -----------------  -----------------  -----------------  -----------------
         C           -2.457755857939     0.000000874604     0.011801199811    12.000000000000
         C            1.865471142061    -0.000003125396     0.009367199811    12.000000000000
         C            1.162440142061    -1.206300125396     0.001830199811    12.000000000000
         C            1.162447142061     1.206296874604     0.001829199811    12.000000000000
         C           -0.233398857939    -1.202961125396    -0.008242800189    12.000000000000
         C           -0.233393857939     1.202967874604    -0.008241800189    12.000000000000
         C           -0.950839857939     0.000005874604    -0.016564800189    12.000000000000
         H            2.952742142061    -0.000004125396     0.014468199811     1.007825032230
         H            1.701027142061    -2.151232125396     0.003036199811     1.007825032230
         H            1.701040142061     2.151225874604     0.003032199811     1.007825032230
         H           -0.774814757939    -2.148154925396     0.031618799811     1.007825032230
         H           -0.774320857939     2.148083874604    -0.018374800189     1.007825032230
         H           -2.860967857939    -0.885149125396    -0.488460800189     1.007825032230
         H           -2.860969857939     0.885345874604    -0.488116800189     1.007825032230
         H           -2.834029857939    -0.000200125396     1.040690199811     1.007825032230

  Basis Set: AUG-CC-PVTZ
    Blend: AUG-CC-PVTZ
  Basis Set: (AUG-CC-PVTZ AUX)
    Blend: AUG-CC-PVTZ-JKFIT
	 Reference Energy          =    -269.8298099368831231 [Eh]
	 Singles Energy            =      -0.0000000000000000 [Eh]
	 Same-Spin Energy          =      -0.2994819878181691 [Eh]
	 Opposite-Spin Energy      =      -0.9753818913726110 [Eh]
	 Correlation Energy        =      -1.2748638791907800 [Eh]
	 Total Energy              =    -271.1046738160738983 [Eh]

	 ================> DF-SCS-MP2 Energies <==================
	-----------------------------------------------------------
	 SCS Same-Spin Scale       =       0.3333333333333333 [-]
	 SCS Opposite-Spin Scale   =       1.2000000000000000 [-]
	 SCS Same-Spin Energy      =      -0.0998273292727230 [Eh]
	 SCS Opposite-Spin Energy  =      -1.1704582696471331 [Eh]
	 SCS Correlation Energy    =      -1.2702855989198560 [Eh]
	 SCS Total Energy          =    -271.1000955358030069 [Eh]
	-----------------------------------------------------------

  Dipole Moment: [D]
     X:    -0.3790      Y:     0.0008      Z:     0.0666     Total:     0.3848

*** Psi4 exiting successfully. Buy a developer a beer!
