                               Psi4 1.3.2 release

  ==> Input File <==

--------------------------------------------------------------------------
#psi4
#
memory 32 gb

molecule  {
-2 1
  O        2.8770000    -0.6176760    -0.6980330
  O       -2.2079270    -0.9616680     0.8025740
  O        2.2079310     0.9617400     0.8024790
  O       -2.8769990     0.6175240    -0.6981300
  C        0.5469100    -0.5337200    -0.1005860
  C       -0.5469140     0.5337860    -0.1005900
  C        2.0389728    -0.0873119    -0.1352921
  C       -2.0084780     0.0045020     0.0018680
  H        0.4732740    -1.1622260    -0.9983970
  H        0.3493020    -1.1927530     0.7554060
  H       -0.4732950     1.1622160    -0.9984660
  H       -0.3492490     1.1928820     0.7553450
units angstrom
no_reorient  #important for SAPT in psi4, default
symmetry c1  #important for SAPT in psi4, default
}

set PROPERTIES_ORIGIN ["COM"]
properties('MP2/aug-cc-pvtz', properties = ['dipole'])
--------------------------------------------------------------------------

    Molecular point group: c1
  Charge       = -2
  Multiplicity = 1
  Basis Set: AUG-CC-PVTZ
    Blend: AUG-CC-PVTZ
  Basis Set: (AUG-CC-PVTZ AUX)
    Blend: AUG-CC-PVTZ-JKFIT

    Orbital Energies [Eh]
    ---------------------

    Doubly Occupied:

       1A    -20.224148     2A    -20.187334     3A    -20.185292
       4A    -20.151958     5A    -11.027656     6A    -11.026258
       7A    -10.928705     8A    -10.923978     9A     -1.126603
      10A     -1.050159    11A     -0.951075    12A     -0.892486
      13A     -0.735217    14A     -0.587486    15A     -0.414081
      16A     -0.399896    17A     -0.343081    18A     -0.328797
      19A     -0.307496    20A     -0.291566    21A     -0.280980
      22A     -0.264435    23A     -0.238525    24A     -0.192678
      25A     -0.177471    26A     -0.109006    27A     -0.097734
      28A     -0.087740    29A     -0.076459    30A     -0.066632
      31A     -0.062552

  @DF-RHF Final Energy:  -453.35811829574925

   => Energetics <=

    Nuclear Repulsion Energy =            337.8112178081860861
    One-Electron Energy =               -1314.8637102676650557
    Two-Electron Energy =                 523.6943741637297762
    Total Energy =                       -453.3581182957492501
  Basis Set: (AUG-CC-PVTZ AUX)
    Blend: AUG-CC-PVTZ-RI
    Molecular point group: c1

    Geometry (in Angstrom), charge = -2, multiplicity = 1:

       Center              X                  Y                   Z               Mass
    ------------   -----------------  -----------------  -----------------  -----------------
         O            2.873845109899    -0.609107098631    -0.687999988109    15.994914619570
         O           -2.211081890101    -0.953099098631     0.812607011891    15.994914619570
         O            2.204776109899     0.970308901369     0.812512011891    15.994914619570
         O           -2.880153890101     0.626092901369    -0.688096988109    15.994914619570
         C            0.543755109899    -0.525151098631    -0.090552988109    12.000000000000
         C           -0.550068890101     0.542354901369    -0.090556988109    12.000000000000
         C            2.035817909899    -0.078742998631    -0.125259088109    12.000000000000
         C           -2.011632890101     0.013070901369     0.011901011891    12.000000000000
         H            0.470119109899    -1.153657098631    -0.988363988109     1.007825032230
         H            0.346147109899    -1.184184098631     0.765439011891     1.007825032230
         H           -0.476449890101     1.170784901369    -0.988432988109     1.007825032230
         H           -0.352403890101     1.201450901369     0.765378011891     1.007825032230

  Basis Set: AUG-CC-PVTZ
    Blend: AUG-CC-PVTZ
  Basis Set: (AUG-CC-PVTZ AUX)
    Blend: AUG-CC-PVTZ-JKFIT
	 Reference Energy          =    -453.3581182957492501 [Eh]
	 Singles Energy            =      -0.0000000000000000 [Eh]
	 Same-Spin Energy          =      -0.4508913802424264 [Eh]
	 Opposite-Spin Energy      =      -1.3284750756371371 [Eh]
	 Correlation Energy        =      -1.7793664558795634 [Eh]
	 Total Energy              =    -455.1374847516287900 [Eh]

	 ================> DF-SCS-MP2 Energies <==================
	-----------------------------------------------------------
	 SCS Same-Spin Scale       =       0.3333333333333333 [-]
	 SCS Opposite-Spin Scale   =       1.2000000000000000 [-]
	 SCS Same-Spin Energy      =      -0.1502971267474754 [Eh]
	 SCS Opposite-Spin Energy  =      -1.5941700907645644 [Eh]
	 SCS Correlation Energy    =      -1.7444672175120399 [Eh]
	 SCS Total Energy          =    -455.1025855132613174 [Eh]
	-----------------------------------------------------------

  Dipole Moment: [D]
     X:     0.4548      Y:    -1.2459      Z:    -1.4521     Total:     1.9667

*** Psi4 exiting successfully. Buy a developer a beer!
