                               Psi4 1.3.2 release

  ==> Input File <==

--------------------------------------------------------------------------
#psi4
#
memory 32 gb

molecule  {
-2 1
  O        2.8770000    -0.6176760    -0.6980330
  O       -2.2079270    -0.9616680     0.8025740
  O        2.2079310     0.9617400     0.8024790
  O       -2.8769990     0.6175240    -0.6981300
  C        0.5469100    -0.5337200    -0.1005860
  C       -0.5469140     0.5337860    -0.1005900
  C        2.0018177     0.0087840     0.0245894
  C       -2.0084780     0.0045020     0.0018680
  H        0.4732740    -1.1622260    -0.9983970
  H        0.3493020    -1.1927530     0.7554060
  H       -0.4732950     1.1622160    -0.9984660
  H       -0.3492490     1.1928820     0.7553450
units angstrom
no_reorient  #important for SAPT in psi4, default
symmetry c1  #important for SAPT in psi4, default
}

set PROPERTIES_ORIGIN ["COM"]
properties('MP2/aug-cc-pvtz', properties = ['dipole'])
--------------------------------------------------------------------------

    Molecular point group: c1
  Charge       = -2
  Multiplicity = 1
  Basis Set: AUG-CC-PVTZ
    Blend: AUG-CC-PVTZ
  Basis Set: (AUG-CC-PVTZ AUX)
    Blend: AUG-CC-PVTZ-JKFIT

    Orbital Energies [Eh]
    ---------------------

    Doubly Occupied:

       1A    -20.192391     2A    -20.188695     3A    -20.186744
       4A    -20.182487     5A    -11.029104     6A    -11.028623
       7A    -10.926294     8A    -10.925461     9A     -1.054948
      10A     -1.051404    11A     -0.952472    12A     -0.949264
      13A     -0.738060    14A     -0.583828    15A     -0.404131
      16A     -0.401105    17A     -0.331412    18A     -0.327557
      19A     -0.300003    20A     -0.287755    21A     -0.276100
      22A     -0.247217    23A     -0.236444    24A     -0.188561
      25A     -0.179852    26A     -0.108770    27A     -0.100812
      28A     -0.097453    29A     -0.088849    30A     -0.087811
      31A     -0.074034

  @DF-RHF Final Energy:  -453.39548192220286

   => Energetics <=

    Nuclear Repulsion Energy =            337.8728634787265150
    One-Electron Energy =               -1315.0814063114630699
    Two-Electron Energy =                 523.8130609105337498
    Total Energy =                       -453.3954819222028618
  Basis Set: (AUG-CC-PVTZ AUX)
    Blend: AUG-CC-PVTZ-RI
    Molecular point group: c1

    Geometry (in Angstrom), charge = -2, multiplicity = 1:

       Center              X                  Y                   Z               Mass
    ------------   -----------------  -----------------  -----------------  -----------------
         O            2.877688377857    -0.619047114763    -0.704537891278    15.994914619570
         O           -2.207238622143    -0.963039114763     0.796069108722    15.994914619570
         O            2.208619377857     0.960368885237     0.795974108722    15.994914619570
         O           -2.876310622143     0.616152885237    -0.704634891278    15.994914619570
         C            0.547598377857    -0.535091114763    -0.107090891278    12.000000000000
         C           -0.546225622143     0.532414885237    -0.107094891278    12.000000000000
         C            2.002506077857     0.007412885237     0.018084508722    12.000000000000
         C           -2.007789622143     0.003130885237    -0.004636891278    12.000000000000
         H            0.473962377857    -1.163597114763    -1.004901891278     1.007825032230
         H            0.349990377857    -1.194124114763     0.748901108722     1.007825032230
         H           -0.472606622143     1.160844885237    -1.004970891278     1.007825032230
         H           -0.348560622143     1.191510885237     0.748840108722     1.007825032230

  Basis Set: AUG-CC-PVTZ
    Blend: AUG-CC-PVTZ
  Basis Set: (AUG-CC-PVTZ AUX)
    Blend: AUG-CC-PVTZ-JKFIT
	 Reference Energy          =    -453.3954819222028618 [Eh]
	 Singles Energy            =      -0.0000000000000000 [Eh]
	 Same-Spin Energy          =      -0.4506633071065135 [Eh]
	 Opposite-Spin Energy      =      -1.3275481321646083 [Eh]
	 Correlation Energy        =      -1.7782114392711219 [Eh]
	 Total Energy              =    -455.1736933614739655 [Eh]

	 ================> DF-SCS-MP2 Energies <==================
	-----------------------------------------------------------
	 SCS Same-Spin Scale       =       0.3333333333333333 [-]
	 SCS Opposite-Spin Scale   =       1.2000000000000000 [-]
	 SCS Same-Spin Energy      =      -0.1502211023688378 [Eh]
	 SCS Opposite-Spin Energy  =      -1.5930577585975298 [Eh]
	 SCS Correlation Energy    =      -1.7432788609663676 [Eh]
	 SCS Total Energy          =    -455.1387607831692321 [Eh]
	-----------------------------------------------------------

  Dipole Moment: [D]
     X:    -0.1064      Y:     0.1994      Z:    -0.0024     Total:     0.2261

*** Psi4 exiting successfully. Buy a developer a beer!
