                               Psi4 1.3.2 release

  ==> Input File <==

--------------------------------------------------------------------------
#psi4
#
memory 32 gb

molecule  {
-2 1
  O        2.8770000    -0.6176760    -0.6980330
  O       -2.2079270    -0.9616680     0.8025740
  O        2.2079310     0.9617400     0.8024790
  O       -2.8769990     0.6175240    -0.6981300
  C        0.5469100    -0.5337200    -0.1005860
  C       -0.5469140     0.5337860    -0.1005900
  C        1.9619540     0.0725515     0.1377863
  C       -2.0084780     0.0045020     0.0018680
  H        0.4732740    -1.1622260    -0.9983970
  H        0.3493020    -1.1927530     0.7554060
  H       -0.4732950     1.1622160    -0.9984660
  H       -0.3492490     1.1928820     0.7553450
units angstrom
no_reorient  #important for SAPT in psi4, default
symmetry c1  #important for SAPT in psi4, default
}

set PROPERTIES_ORIGIN ["COM"]
properties('MP2/aug-cc-pvtz', properties = ['dipole'])
--------------------------------------------------------------------------

    Molecular point group: c1
  Charge       = -2
  Multiplicity = 1
  Basis Set: AUG-CC-PVTZ
    Blend: AUG-CC-PVTZ
  Basis Set: (AUG-CC-PVTZ AUX)
    Blend: AUG-CC-PVTZ-JKFIT

    Orbital Energies [Eh]
    ---------------------

    Doubly Occupied:

       1A    -20.221470     2A    -20.190154     3A    -20.188303
       4A    -20.153679     5A    -11.030654     6A    -11.024921
       7A    -10.928767     8A    -10.926464     9A     -1.126897
      10A     -1.053112    11A     -0.953974    12A     -0.892502
      13A     -0.741397    14A     -0.583665    15A     -0.416636
      16A     -0.404901    17A     -0.347985    18A     -0.333749
      19A     -0.304519    20A     -0.287150    21A     -0.283512
      22A     -0.264564    23A     -0.242358    24A     -0.195789
      25A     -0.186185    26A     -0.107514    27A     -0.098037
      28A     -0.090536    29A     -0.085383    30A     -0.068560
      31A     -0.058436

  @DF-RHF Final Energy:  -453.36043327167977

   => Energetics <=

    Nuclear Repulsion Energy =            338.4372703774843671
    One-Electron Energy =               -1316.0118632787227853
    Two-Electron Energy =                 524.2141596295587078
    Total Energy =                       -453.3604332716797671
  Basis Set: (AUG-CC-PVTZ AUX)
    Blend: AUG-CC-PVTZ-RI
    Molecular point group: c1

    Geometry (in Angstrom), charge = -2, multiplicity = 1:

       Center              X                  Y                   Z               Mass
    ------------   -----------------  -----------------  -----------------  -----------------
         O            2.881811819346    -0.625643129563    -0.716246809266    15.994914619570
         O           -2.203115180654    -0.969635129563     0.784360190734    15.994914619570
         O            2.212742819346     0.953772870437     0.784265190734    15.994914619570
         O           -2.872187180654     0.609556870437    -0.716343809266    15.994914619570
         C            0.551721819346    -0.541687129563    -0.118799809266    12.000000000000
         C           -0.542102180654     0.525818870437    -0.118803809266    12.000000000000
         C            1.966765819346     0.064584370437     0.119572490734    12.000000000000
         C           -2.003666180654    -0.003465129563    -0.016345809266    12.000000000000
         H            0.478085819346    -1.170193129563    -1.016610809266     1.007825032230
         H            0.354113819346    -1.200720129563     0.737192190734     1.007825032230
         H           -0.468483180654     1.154248870437    -1.016679809266     1.007825032230
         H           -0.344437180654     1.184914870437     0.737131190734     1.007825032230

  Basis Set: AUG-CC-PVTZ
    Blend: AUG-CC-PVTZ
  Basis Set: (AUG-CC-PVTZ AUX)
    Blend: AUG-CC-PVTZ-JKFIT
	 Reference Energy          =    -453.3604332716797671 [Eh]
	 Singles Energy            =      -0.0000000000000000 [Eh]
	 Same-Spin Energy          =      -0.4508688885847378 [Eh]
	 Opposite-Spin Energy      =      -1.3282524126110835 [Eh]
	 Correlation Energy        =      -1.7791213011958213 [Eh]
	 Total Energy              =    -455.1395545728755678 [Eh]

	 ================> DF-SCS-MP2 Energies <==================
	-----------------------------------------------------------
	 SCS Same-Spin Scale       =       0.3333333333333333 [-]
	 SCS Opposite-Spin Scale   =       1.2000000000000000 [-]
	 SCS Same-Spin Energy      =      -0.1502896295282459 [Eh]
	 SCS Opposite-Spin Energy  =      -1.5939028951333001 [Eh]
	 SCS Correlation Energy    =      -1.7441925246615460 [Eh]
	 SCS Total Energy          =    -455.1046257963413382 [Eh]
	-----------------------------------------------------------

  Dipole Moment: [D]
     X:    -0.7830      Y:     1.1850      Z:     1.0335     Total:     1.7566

*** Psi4 exiting successfully. Buy a developer a beer!
