                               Psi4 1.3.2 release

  ==> Input File <==

--------------------------------------------------------------------------
#psi4
#
memory 32 gb

molecule  {
-2 1
  O        2.9379519    -0.5616023    -0.6658814
  O       -2.2079270    -0.9616680     0.8025740
  O        2.2079310     0.9617400     0.8024790
  O       -2.8769990     0.6175240    -0.6981300
  C        0.5469100    -0.5337200    -0.1005860
  C       -0.5469140     0.5337860    -0.1005900
  C        2.0084700    -0.0044810     0.0018080
  C       -2.0084780     0.0045020     0.0018680
  H        0.4732740    -1.1622260    -0.9983970
  H        0.3493020    -1.1927530     0.7554060
  H       -0.4732950     1.1622160    -0.9984660
  H       -0.3492490     1.1928820     0.7553450
units angstrom
no_reorient  #important for SAPT in psi4, default
symmetry c1  #important for SAPT in psi4, default
}

set PROPERTIES_ORIGIN ["COM"]
properties('MP2/aug-cc-pvtz', properties = ['dipole'])
--------------------------------------------------------------------------

    Molecular point group: c1
  Charge       = -2
  Multiplicity = 1
  Basis Set: AUG-CC-PVTZ
    Blend: AUG-CC-PVTZ
  Basis Set: (AUG-CC-PVTZ AUX)
    Blend: AUG-CC-PVTZ-JKFIT

    Orbital Energies [Eh]
    ---------------------

    Doubly Occupied:

       1A    -20.189899     2A    -20.187995     3A    -20.186095
       4A    -20.180958     5A    -11.030563     6A    -11.027181
       7A    -10.930910     8A    -10.928070     9A     -1.053129
      10A     -1.050892    11A     -0.953716    12A     -0.944756
      13A     -0.740655    14A     -0.587167    15A     -0.404402
      16A     -0.400899    17A     -0.332994    18A     -0.327574
      19A     -0.299355    20A     -0.286878    21A     -0.277209
      22A     -0.246619    23A     -0.236175    24A     -0.189591
      25A     -0.180811    26A     -0.111441    27A     -0.099885
      28A     -0.093023    29A     -0.089488    30A     -0.083970
      31A     -0.077960

  @DF-RHF Final Energy:  -453.39529905612687

   => Energetics <=

    Nuclear Repulsion Energy =            337.5559103566115482
    One-Electron Energy =               -1314.4418965006505005
    Two-Electron Energy =                 523.4906870879120788
    Total Energy =                       -453.3952990561268734
  Basis Set: (AUG-CC-PVTZ AUX)
    Blend: AUG-CC-PVTZ-RI
    Molecular point group: c1

    Geometry (in Angstrom), charge = -2, multiplicity = 1:

       Center              X                  Y                   Z               Mass
    ------------   -----------------  -----------------  -----------------  -----------------
         O            2.929548481279    -0.569332417850    -0.674462692506    15.994914619570
         O           -2.216330418721    -0.969398117850     0.793992707494    15.994914619570
         O            2.199527581279     0.954009882150     0.793897707494    15.994914619570
         O           -2.885402418721     0.609793882150    -0.706711292506    15.994914619570
         C            0.538506581279    -0.541450117850    -0.109167292506    12.000000000000
         C           -0.555317418721     0.526055882150    -0.109171292506    12.000000000000
         C            2.000066581279    -0.012211117850    -0.006773292506    12.000000000000
         C           -2.016881418721    -0.003228117850    -0.006713292506    12.000000000000
         H            0.464870581279    -1.169956117850    -1.006978292506     1.007825032230
         H            0.340898581279    -1.200483117850     0.746824707494     1.007825032230
         H           -0.481698418721     1.154485882150    -1.007047292506     1.007825032230
         H           -0.357652418721     1.185151882150     0.746763707494     1.007825032230

  Basis Set: AUG-CC-PVTZ
    Blend: AUG-CC-PVTZ
  Basis Set: (AUG-CC-PVTZ AUX)
    Blend: AUG-CC-PVTZ-JKFIT
	 Reference Energy          =    -453.3952990561268734 [Eh]
	 Singles Energy            =      -0.0000000000000000 [Eh]
	 Same-Spin Energy          =      -0.4505932341234632 [Eh]
	 Opposite-Spin Energy      =      -1.3274375574415653 [Eh]
	 Correlation Energy        =      -1.7780307915650286 [Eh]
	 Total Energy              =    -455.1733298476918890 [Eh]

	 ================> DF-SCS-MP2 Energies <==================
	-----------------------------------------------------------
	 SCS Same-Spin Scale       =       0.3333333333333333 [-]
	 SCS Opposite-Spin Scale   =       1.2000000000000000 [-]
	 SCS Same-Spin Energy      =      -0.1501977447078211 [Eh]
	 SCS Opposite-Spin Energy  =      -1.5929250689298784 [Eh]
	 SCS Correlation Energy    =      -1.7431228136376995 [Eh]
	 SCS Total Energy          =    -455.1384218697645565 [Eh]
	-----------------------------------------------------------

  Dipole Moment: [D]
     X:    -0.1852      Y:    -0.0763      Z:    -0.2498     Total:     0.3202

*** Psi4 exiting successfully. Buy a developer a beer!
