                               Psi4 1.3.2 release

  ==> Input File <==

--------------------------------------------------------------------------
#psi4
#
memory 32 gb

molecule  {
-2 1
  O        2.8770000    -0.6176760    -0.6980330
  O       -2.2079270    -0.9616680     0.8025740
  O        2.2079310     0.9617400     0.8024790
  O       -2.8769990     0.6175240    -0.6981300
  C        0.5469100    -0.5337200    -0.1005860
  C       -0.6185165     0.4550877    -0.1083692
  C        2.0084700    -0.0044810     0.0018080
  C       -2.0084780     0.0045020     0.0018680
  H        0.4732740    -1.1622260    -0.9983970
  H        0.3493020    -1.1927530     0.7554060
  H       -0.4732950     1.1622160    -0.9984660
  H       -0.3492490     1.1928820     0.7553450
units angstrom
no_reorient  #important for SAPT in psi4, default
symmetry c1  #important for SAPT in psi4, default
}

set PROPERTIES_ORIGIN ["COM"]
properties('MP2/aug-cc-pvtz', properties = ['dipole'])
--------------------------------------------------------------------------

    Molecular point group: c1
  Charge       = -2
  Multiplicity = 1
  Basis Set: AUG-CC-PVTZ
    Blend: AUG-CC-PVTZ
  Basis Set: (AUG-CC-PVTZ AUX)
    Blend: AUG-CC-PVTZ-JKFIT

    Orbital Energies [Eh]
    ---------------------

    Doubly Occupied:

       1A    -20.191003     2A    -20.188662     3A    -20.187335
       4A    -20.184550     5A    -11.032808     6A    -11.024883
       7A    -10.933439     8A    -10.928389     9A     -1.054575
      10A     -1.052903    11A     -0.954394    12A     -0.952637
      13A     -0.741325    14A     -0.594284    15A     -0.409125
      16A     -0.401655    17A     -0.331057    18A     -0.326346
      19A     -0.306392    20A     -0.289470    21A     -0.280504
      22A     -0.247445    23A     -0.232727    24A     -0.179061
      25A     -0.160448    26A     -0.112414    27A     -0.100203
      28A     -0.098344    29A     -0.090364    30A     -0.088477
      31A     -0.084373

  @DF-RHF Final Energy:  -453.38411489276865

   => Energetics <=

    Nuclear Repulsion Energy =            338.5983858216337694
    One-Electron Energy =               -1316.4458136121236294
    Two-Electron Energy =                 524.4633128977211527
    Total Energy =                       -453.3841148927687073
  Basis Set: (AUG-CC-PVTZ AUX)
    Blend: AUG-CC-PVTZ-RI
    Molecular point group: c1

    Geometry (in Angstrom), charge = -2, multiplicity = 1:

       Center              X                  Y                   Z               Mass
    ------------   -----------------  -----------------  -----------------  -----------------
         O            2.884406729376    -0.609534568593    -0.701376748534    15.994914619570
         O           -2.200520270624    -0.953526568593     0.799230251466    15.994914619570
         O            2.215337729376     0.969881431407     0.799135251466    15.994914619570
         O           -2.869592270624     0.625665431407    -0.701473748534    15.994914619570
         C            0.554316729376    -0.525578568593    -0.103929748534    12.000000000000
         C           -0.611109770624     0.463229131407    -0.111712948534    12.000000000000
         C            2.015876729376     0.003660431407    -0.001535748534    12.000000000000
         C           -2.001071270624     0.012643431407    -0.001475748534    12.000000000000
         H            0.480680729376    -1.154084568593    -1.001740748534     1.007825032230
         H            0.356708729376    -1.184611568593     0.752062251466     1.007825032230
         H           -0.465888270624     1.170357431407    -1.001809748534     1.007825032230
         H           -0.341842270624     1.201023431407     0.752001251466     1.007825032230

  Basis Set: AUG-CC-PVTZ
    Blend: AUG-CC-PVTZ
  Basis Set: (AUG-CC-PVTZ AUX)
    Blend: AUG-CC-PVTZ-JKFIT
	 Reference Energy          =    -453.3841148927686504 [Eh]
	 Singles Energy            =      -0.0000000000000000 [Eh]
	 Same-Spin Energy          =      -0.4515184140797879 [Eh]
	 Opposite-Spin Energy      =      -1.3290791565683375 [Eh]
	 Correlation Energy        =      -1.7805975706481254 [Eh]
	 Total Energy              =    -455.1647124634167767 [Eh]

	 ================> DF-SCS-MP2 Energies <==================
	-----------------------------------------------------------
	 SCS Same-Spin Scale       =       0.3333333333333333 [-]
	 SCS Opposite-Spin Scale   =       1.2000000000000000 [-]
	 SCS Same-Spin Energy      =      -0.1505061380265960 [Eh]
	 SCS Opposite-Spin Energy  =      -1.5948949878820049 [Eh]
	 SCS Correlation Energy    =      -1.7454011259086009 [Eh]
	 SCS Total Energy          =    -455.1295160186772364 [Eh]
	-----------------------------------------------------------

  Dipole Moment: [D]
     X:     0.1122      Y:    -0.0808      Z:    -0.2305     Total:     0.2688

*** Psi4 exiting successfully. Buy a developer a beer!
