                               Psi4 1.3.2 release

  ==> Input File <==

--------------------------------------------------------------------------
#psi4
#
memory 32 gb

molecule  {
-2 1
  O        2.9083083    -0.5911393    -0.6810192
  O       -2.2079270    -0.9616680     0.8025740
  O        2.2079310     0.9617400     0.8024790
  O       -2.8769990     0.6175240    -0.6981300
  C        0.5469100    -0.5337200    -0.1005860
  C       -0.5469140     0.5337860    -0.1005900
  C        2.0084700    -0.0044810     0.0018080
  C       -2.0084780     0.0045020     0.0018680
  H        0.4732740    -1.1622260    -0.9983970
  H        0.3493020    -1.1927530     0.7554060
  H       -0.4732950     1.1622160    -0.9984660
  H       -0.3492490     1.1928820     0.7553450
units angstrom
no_reorient  #important for SAPT in psi4, default
symmetry c1  #important for SAPT in psi4, default
}

set PROPERTIES_ORIGIN ["COM"]
properties('MP2/aug-cc-pvtz', properties = ['dipole'])
--------------------------------------------------------------------------

    Molecular point group: c1
  Charge       = -2
  Multiplicity = 1
  Basis Set: AUG-CC-PVTZ
    Blend: AUG-CC-PVTZ
  Basis Set: (AUG-CC-PVTZ AUX)
    Blend: AUG-CC-PVTZ-JKFIT

    Orbital Energies [Eh]
    ---------------------

    Doubly Occupied:

       1A    -20.189187     2A    -20.187309     3A    -20.187252
       4A    -20.183745     5A    -11.029717     6A    -11.028010
       7A    -10.928398     8A    -10.926879     9A     -1.052528
      10A     -1.050776    11A     -0.952983    12A     -0.948539
      13A     -0.739116    14A     -0.585656    15A     -0.403680
      16A     -0.401033    17A     -0.332001    18A     -0.327191
      19A     -0.299175    20A     -0.287504    21A     -0.277155
      22A     -0.246583    23A     -0.236036    24A     -0.188705
      25A     -0.179917    26A     -0.110943    27A     -0.099457
      28A     -0.095307    29A     -0.089196    30A     -0.086109
      31A     -0.076624

  @DF-RHF Final Energy:  -453.39617254820149

   => Energetics <=

    Nuclear Repulsion Energy =            337.6724213947196063
    One-Electron Energy =               -1314.6837712809879122
    Two-Electron Energy =                 523.6151773380669283
    Total Energy =                       -453.3961725482014344
  Basis Set: (AUG-CC-PVTZ AUX)
    Blend: AUG-CC-PVTZ-RI
    Molecular point group: c1

    Geometry (in Angstrom), charge = -2, multiplicity = 1:

       Center              X                  Y                   Z               Mass
    ------------   -----------------  -----------------  -----------------  -----------------
         O            2.903991968023    -0.594797028493    -0.687513380896    15.994914619570
         O           -2.212243331977    -0.965325728493     0.796079819104    15.994914619570
         O            2.203614668023     0.958082271507     0.795984819104    15.994914619570
         O           -2.881315331977     0.613866271507    -0.704624180896    15.994914619570
         C            0.542593668023    -0.537377728493    -0.107080180896    12.000000000000
         C           -0.551230331977     0.530128271507    -0.107084180896    12.000000000000
         C            2.004153668023    -0.008138728493    -0.004686180896    12.000000000000
         C           -2.012794331977     0.000844271507    -0.004626180896    12.000000000000
         H            0.468957668023    -1.165883728493    -1.004891180896     1.007825032230
         H            0.344985668023    -1.196410728493     0.748911819104     1.007825032230
         H           -0.477611331977     1.158558271507    -1.004960180896     1.007825032230
         H           -0.353565331977     1.189224271507     0.748850819104     1.007825032230

  Basis Set: AUG-CC-PVTZ
    Blend: AUG-CC-PVTZ
  Basis Set: (AUG-CC-PVTZ AUX)
    Blend: AUG-CC-PVTZ-JKFIT
	 Reference Energy          =    -453.3961725482014913 [Eh]
	 Singles Energy            =      -0.0000000000000000 [Eh]
	 Same-Spin Energy          =      -0.4506116779313637 [Eh]
	 Opposite-Spin Energy      =      -1.3274643784563818 [Eh]
	 Correlation Energy        =      -1.7780760563877456 [Eh]
	 Total Energy              =    -455.1742486045892520 [Eh]

	 ================> DF-SCS-MP2 Energies <==================
	-----------------------------------------------------------
	 SCS Same-Spin Scale       =       0.3333333333333333 [-]
	 SCS Opposite-Spin Scale   =       1.2000000000000000 [-]
	 SCS Same-Spin Energy      =      -0.1502038926437879 [Eh]
	 SCS Opposite-Spin Energy  =      -1.5929572541476580 [Eh]
	 SCS Correlation Energy    =      -1.7431611467914458 [Eh]
	 SCS Total Energy          =    -455.1393336949929562 [Eh]
	-----------------------------------------------------------

  Dipole Moment: [D]
     X:    -0.0940      Y:    -0.0362      Z:    -0.2296     Total:     0.2507

*** Psi4 exiting successfully. Buy a developer a beer!
