                               Psi4 1.4a3.dev225

  ==> Input File <==

--------------------------------------------------------------------------
#psi4
#
memory 32 gb

molecule  {
-2 1
  O        2.8298160     0.5705000    -0.7641870
  O       -2.1982280     0.9008650     0.8437030
  O        2.1982240    -0.9008500     0.8437280
  O       -2.8298110    -0.5705100    -0.7641920
  C        0.5292590     0.5488480    -0.0770140
  C       -0.5292600    -0.5488530    -0.0770000
  C        2.0099356     0.0444141    -0.0300250
  C       -1.9763290    -0.0228500     0.0000600
  H        0.3427640     1.1908230     0.7923510
  H        0.4272740     1.1816370    -0.9669330
  H       -0.3427680    -1.1908020     0.7923850
  H       -0.4272710    -1.1816680    -0.9669000
units angstrom
no_reorient  #important for SAPT in psi4, default
symmetry c1  #important for SAPT in psi4, default
}

set PROPERTIES_ORIGIN ["COM"]
properties('MP2/aug-cc-pvtz', properties = ['dipole'])
--------------------------------------------------------------------------

    Molecular point group: c1
  Charge       = -2
  Multiplicity = 1
  Basis Set: AUG-CC-PVTZ
    Blend: AUG-CC-PVTZ
  Basis Set: (AUG-CC-PVTZ AUX)
    Blend: AUG-CC-PVTZ-JKFIT

    Orbital Energies [Eh]
    ---------------------

    Doubly Occupied:

       1A    -20.197698     2A    -20.185147     3A    -20.181613
       4A    -20.174173     5A    -11.023942     6A    -11.023231
       7A    -10.922265     8A    -10.921516     9A     -1.067847
      10A     -1.049764    11A     -0.949348    12A     -0.948647
      13A     -0.736308    14A     -0.582646    15A     -0.401958
      16A     -0.399070    17A     -0.330070    18A     -0.328639
      19A     -0.298351    20A     -0.289594    21A     -0.277575
      22A     -0.247252    23A     -0.237814    24A     -0.187948
      25A     -0.178854    26A     -0.111812    27A     -0.095862
      28A     -0.091494    29A     -0.087183    30A     -0.084213
      31A     -0.071278

  @DF-RHF Final Energy:  -453.39472626780440

   => Energetics <=

    Nuclear Repulsion Energy =            339.9055385530709827
    One-Electron Energy =               -1319.2343022457105235
    Two-Electron Energy =                 525.9340374248351964
    Total Energy =                       -453.3947262678043444
  Basis Set: (AUG-CC-PVTZ AUX)
    Blend: AUG-CC-PVTZ-RI
    Molecular point group: c1

    Geometry (in Angstrom), charge = -2, multiplicity = 1:

       Center              X                  Y                   Z               Mass
    ------------   -----------------  -----------------  -----------------  -----------------
         O            2.826339757825     0.568269356452    -0.764052930466    15.994914619570
         O           -2.201704242175     0.898634356452     0.843837069534    15.994914619570
         O            2.194747757825    -0.903080643548     0.843862069534    15.994914619570
         O           -2.833287242175    -0.572740643548    -0.764057930466    15.994914619570
         C            0.525782757825     0.546617356452    -0.076879930466    12.000000000000
         C           -0.532736242175    -0.551083643548    -0.076865930466    12.000000000000
         C            2.006459357825     0.042183456452    -0.029890930466    12.000000000000
         C           -1.979805242175    -0.025080643548     0.000194069534    12.000000000000
         H            0.339287757825     1.188592356452     0.792485069534     1.007825032230
         H            0.423797757825     1.179406356452    -0.966798930466     1.007825032230
         H           -0.346244242175    -1.193032643548     0.792519069534     1.007825032230
         H           -0.430747242175    -1.183898643548    -0.966765930466     1.007825032230

  Basis Set: AUG-CC-PVTZ
    Blend: AUG-CC-PVTZ
  Basis Set: (AUG-CC-PVTZ AUX)
    Blend: AUG-CC-PVTZ-JKFIT
	 Reference Energy          =    -453.3947262678044012 [Eh]
	 Singles Energy            =      -0.0000000000000000 [Eh]
	 Same-Spin Energy          =      -0.4502891665153079 [Eh]
	 Opposite-Spin Energy      =      -1.3262432719240136 [Eh]
	 Correlation Energy        =      -1.7765324384393215 [Eh]
	 Total Energy              =    -455.1712587062437478 [Eh]

	 ================> DF-SCS-MP2 Energies <==================
	-----------------------------------------------------------
	 SCS Same-Spin Scale       =       0.3333333333333333 [-]
	 SCS Opposite-Spin Scale   =       1.2000000000000000 [-]
	 SCS Same-Spin Energy      =      -0.1500963888384360 [Eh]
	 SCS Opposite-Spin Energy  =      -1.5914919263088163 [Eh]
	 SCS Correlation Energy    =      -1.7415883151472522 [Eh]
	 SCS Total Energy          =    -455.1363145829516270 [Eh]
	-----------------------------------------------------------

  Dipole Moment: [D]
     X:     0.3189      Y:     0.2933      Z:    -0.4672     Total:     0.6372

*** Psi4 exiting successfully. Buy a developer a beer!
