                               Psi4 1.4a3.dev225

  ==> Input File <==

--------------------------------------------------------------------------
#psi4
#
memory 32 gb

molecule  {
-2 1
  O        2.8298160     0.5705000    -0.7641870
  O       -2.1982280     0.9008650     0.8437030
  O        2.1982240    -0.9008500     0.8437280
  O       -2.8298110    -0.5705100    -0.7641920
  C        0.5292590     0.5488480    -0.0770140
  C       -0.5292600    -0.5488530    -0.0770000
  C        1.9897716     0.0314756    -0.0119692
  C       -1.9763290    -0.0228500     0.0000600
  H        0.3427640     1.1908230     0.7923510
  H        0.4272740     1.1816370    -0.9669330
  H       -0.3427680    -1.1908020     0.7923850
  H       -0.4272710    -1.1816680    -0.9669000
units angstrom
no_reorient  #important for SAPT in psi4, default
symmetry c1  #important for SAPT in psi4, default
}

set PROPERTIES_ORIGIN ["COM"]
properties('MP2/aug-cc-pvtz', properties = ['dipole'])
--------------------------------------------------------------------------

    Molecular point group: c1
  Charge       = -2
  Multiplicity = 1
  Basis Set: AUG-CC-PVTZ
    Blend: AUG-CC-PVTZ
  Basis Set: (AUG-CC-PVTZ AUX)
    Blend: AUG-CC-PVTZ-JKFIT

    Orbital Energies [Eh]
    ---------------------

    Doubly Occupied:

       1A    -20.190946     2A    -20.185970     3A    -20.182534
       4A    -20.179527     5A    -11.024520     6A    -11.024185
       7A    -10.923423     8A    -10.922778     9A     -1.055674
      10A     -1.050552    11A     -0.951718    12A     -0.949628
      13A     -0.739213    14A     -0.585342    15A     -0.403468
      16A     -0.398803    17A     -0.331789    18A     -0.327264
      19A     -0.297936    20A     -0.288452    21A     -0.276217
      22A     -0.244668    23A     -0.237628    24A     -0.187760
      25A     -0.180036    26A     -0.109898    27A     -0.096683
      28A     -0.093842    29A     -0.087640    30A     -0.085300
      31A     -0.074066

  @DF-RHF Final Energy:  -453.39717882947372

   => Energetics <=

    Nuclear Repulsion Energy =            339.9588062419210246
    One-Electron Energy =               -1319.3370509575183860
    Two-Electron Energy =                 525.9810658861235879
    Total Energy =                       -453.3971788294737735
  Basis Set: (AUG-CC-PVTZ AUX)
    Blend: AUG-CC-PVTZ-RI
    Molecular point group: c1

    Geometry (in Angstrom), charge = -2, multiplicity = 1:

       Center              X                  Y                   Z               Mass
    ------------   -----------------  -----------------  -----------------  -----------------
         O            2.828425491818     0.569607695535    -0.765920595405    15.994914619570
         O           -2.199618508182     0.899972695535     0.841969404595    15.994914619570
         O            2.196833491818    -0.901742304465     0.841994404595    15.994914619570
         O           -2.831201508182    -0.571402304465    -0.765925595405    15.994914619570
         C            0.527868491818     0.547955695535    -0.078747595405    12.000000000000
         C           -0.530650508182    -0.549745304465    -0.078733595405    12.000000000000
         C            1.988381091818     0.030583295535    -0.013702795405    12.000000000000
         C           -1.977719508182    -0.023742304465    -0.001673595405    12.000000000000
         H            0.341373491818     1.189930695535     0.790617404595     1.007825032230
         H            0.425883491818     1.180744695535    -0.968666595405     1.007825032230
         H           -0.344158508182    -1.191694304465     0.790651404595     1.007825032230
         H           -0.428661508182    -1.182560304465    -0.968633595405     1.007825032230

  Basis Set: AUG-CC-PVTZ
    Blend: AUG-CC-PVTZ
  Basis Set: (AUG-CC-PVTZ AUX)
    Blend: AUG-CC-PVTZ-JKFIT
	 Reference Energy          =    -453.3971788294737166 [Eh]
	 Singles Energy            =      -0.0000000000000000 [Eh]
	 Same-Spin Energy          =      -0.4505002218705375 [Eh]
	 Opposite-Spin Energy      =      -1.3266974771599613 [Eh]
	 Correlation Energy        =      -1.7771976990304990 [Eh]
	 Total Energy              =    -455.1743765285042400 [Eh]

	 ================> DF-SCS-MP2 Energies <==================
	-----------------------------------------------------------
	 SCS Same-Spin Scale       =       0.3333333333333333 [-]
	 SCS Opposite-Spin Scale   =       1.2000000000000000 [-]
	 SCS Same-Spin Energy      =      -0.1501667406235125 [Eh]
	 SCS Opposite-Spin Energy  =      -1.5920369725919536 [Eh]
	 SCS Correlation Energy    =      -1.7422037132154662 [Eh]
	 SCS Total Energy          =    -455.1393825426891908 [Eh]
	-----------------------------------------------------------

  Dipole Moment: [D]
     X:     0.1283      Y:     0.1161      Z:    -0.2467     Total:     0.3013

*** Psi4 exiting successfully. Buy a developer a beer!
