                               Psi4 1.3.2 release

  ==> Input File <==

--------------------------------------------------------------------------
#psi4
#
memory 32 gb

molecule  {
-2 1
  O        2.8770000    -0.6176760    -0.6980330
  O       -2.2079270    -0.9616680     0.8025740
  O        2.2079310     0.9617400     0.8024790
  O       -2.8769990     0.6175240    -0.6981300
  C        0.5469100    -0.5337200    -0.1005860
  C       -0.4296346     0.6419691    -0.0889330
  C        2.0084700    -0.0044810     0.0018080
  C       -2.0084780     0.0045020     0.0018680
  H        0.4732740    -1.1622260    -0.9983970
  H        0.3493020    -1.1927530     0.7554060
  H       -0.4732950     1.1622160    -0.9984660
  H       -0.3492490     1.1928820     0.7553450
units angstrom
no_reorient  #important for SAPT in psi4, default
symmetry c1  #important for SAPT in psi4, default
}

set PROPERTIES_ORIGIN ["COM"]
properties('MP2/aug-cc-pvtz', properties = ['dipole'])
--------------------------------------------------------------------------

    Molecular point group: c1
  Charge       = -2
  Multiplicity = 1
  Basis Set: AUG-CC-PVTZ
    Blend: AUG-CC-PVTZ
  Basis Set: (AUG-CC-PVTZ AUX)
    Blend: AUG-CC-PVTZ-JKFIT

    Orbital Energies [Eh]
    ---------------------

    Doubly Occupied:

       1A    -20.190230     2A    -20.189428     3A    -20.185470
       4A    -20.184010     5A    -11.032610     6A    -11.024056
       7A    -10.924490     8A    -10.919276     9A     -1.049608
      10A     -1.048184    11A     -0.951970    12A     -0.949863
      13A     -0.734893    14A     -0.577723    15A     -0.402241
      16A     -0.392273    17A     -0.344214    18A     -0.320825
      19A     -0.293611    20A     -0.286727    21A     -0.269102
      22A     -0.248274    23A     -0.238510    24A     -0.206875
      25A     -0.189581    26A     -0.108634    27A     -0.099639
      28A     -0.092865    29A     -0.088909    30A     -0.086149
      31A     -0.052572

  @DF-RHF Final Energy:  -453.37610728553346

   => Energetics <=

    Nuclear Repulsion Energy =            336.8011458190188137
    One-Electron Energy =               -1312.9888804024099045
    Two-Electron Energy =                 522.8116272978576262
    Total Energy =                       -453.3761072855335215
  Basis Set: (AUG-CC-PVTZ AUX)
    Blend: AUG-CC-PVTZ-RI
    Molecular point group: c1

    Geometry (in Angstrom), charge = -2, multiplicity = 1:

       Center              X                  Y                   Z               Mass
    ------------   -----------------  -----------------  -----------------  -----------------
         O            2.864869068217    -0.628865301025    -0.703387199985    15.994914619570
         O           -2.220057931783    -0.972857301025     0.797219800015    15.994914619570
         O            2.195800068217     0.950550698975     0.797124800015    15.994914619570
         O           -2.889129931783     0.606334698975    -0.703484199985    15.994914619570
         C            0.534779068217    -0.544909301025    -0.105940199985    12.000000000000
         C           -0.441765531783     0.630779798975    -0.094287199985    12.000000000000
         C            1.996339068217    -0.015670301025    -0.003546199985    12.000000000000
         C           -2.020608931783    -0.006687301025    -0.003486199985    12.000000000000
         H            0.461143068217    -1.173415301025    -1.003751199985     1.007825032230
         H            0.337171068217    -1.203942301025     0.750051800015     1.007825032230
         H           -0.485425931783     1.151026698975    -1.003820199985     1.007825032230
         H           -0.361379931783     1.181692698975     0.749990800015     1.007825032230

  Basis Set: AUG-CC-PVTZ
    Blend: AUG-CC-PVTZ
  Basis Set: (AUG-CC-PVTZ AUX)
    Blend: AUG-CC-PVTZ-JKFIT
	 Reference Energy          =    -453.3761072855334646 [Eh]
	 Singles Energy            =      -0.0000000000000000 [Eh]
	 Same-Spin Energy          =      -0.4511552198728480 [Eh]
	 Opposite-Spin Energy      =      -1.3286541876880991 [Eh]
	 Correlation Energy        =      -1.7798094075609470 [Eh]
	 Total Energy              =    -455.1559166930944116 [Eh]

	 ================> DF-SCS-MP2 Energies <==================
	-----------------------------------------------------------
	 SCS Same-Spin Scale       =       0.3333333333333333 [-]
	 SCS Opposite-Spin Scale   =       1.2000000000000000 [-]
	 SCS Same-Spin Energy      =      -0.1503850732909493 [Eh]
	 SCS Opposite-Spin Energy  =      -1.5943850252257188 [Eh]
	 SCS Correlation Energy    =      -1.7447700985166681 [Eh]
	 SCS Total Energy          =    -455.1208773840501181 [Eh]
	-----------------------------------------------------------

  Dipole Moment: [D]
     X:    -0.1447      Y:     0.0575      Z:    -0.1584     Total:     0.2221

*** Psi4 exiting successfully. Buy a developer a beer!
