                               Psi4 1.3.2 release

  ==> Input File <==

--------------------------------------------------------------------------
#psi4
#
memory 32 gb

molecule  {
-2 1
  O        2.8770000    -0.6176760    -0.6980330
  O       -2.2079270    -0.9616680     0.8025740
  O        2.2079310     0.9617400     0.8024790
  O       -2.8769990     0.6175240    -0.6981300
  C        0.5469100    -0.5337200    -0.1005860
  C       -0.5469140     0.5337860    -0.1005900
  C        2.0146770    -0.0179073    -0.0210046
  C       -2.0084780     0.0045020     0.0018680
  H        0.4732740    -1.1622260    -0.9983970
  H        0.3493020    -1.1927530     0.7554060
  H       -0.4732950     1.1622160    -0.9984660
  H       -0.3492490     1.1928820     0.7553450
units angstrom
no_reorient  #important for SAPT in psi4, default
symmetry c1  #important for SAPT in psi4, default
}

set PROPERTIES_ORIGIN ["COM"]
properties('MP2/aug-cc-pvtz', properties = ['dipole'])
--------------------------------------------------------------------------

    Molecular point group: c1
  Charge       = -2
  Multiplicity = 1
  Basis Set: AUG-CC-PVTZ
    Blend: AUG-CC-PVTZ
  Basis Set: (AUG-CC-PVTZ AUX)
    Blend: AUG-CC-PVTZ-JKFIT

    Orbital Energies [Eh]
    ---------------------

    Doubly Occupied:

       1A    -20.194443     2A    -20.188215     3A    -20.186235
       4A    -20.180584     5A    -11.028843     6A    -11.028591
       7A    -10.926098     8A    -10.925228     9A     -1.054831
      10A     -1.050958    11A     -0.951990    12A     -0.949244
      13A     -0.737024    14A     -0.584450    15A     -0.402395
      16A     -0.401396    17A     -0.330632    18A     -0.327108
      19A     -0.298762    20A     -0.288275    21A     -0.278110
      22A     -0.246648    23A     -0.235738    24A     -0.187478
      25A     -0.178439    26A     -0.112427    27A     -0.099349
      28A     -0.094031    29A     -0.088797    30A     -0.086940
      31A     -0.075135

  @DF-RHF Final Energy:  -453.39504409843818

   => Energetics <=

    Nuclear Repulsion Energy =            337.7688008750784547
    One-Electron Energy =               -1314.8909060616131228
    Two-Electron Energy =                 523.7270610880964341
    Total Energy =                       -453.3950440984382340
  Basis Set: (AUG-CC-PVTZ AUX)
    Blend: AUG-CC-PVTZ-RI
    Molecular point group: c1

    Geometry (in Angstrom), charge = -2, multiplicity = 1:

       Center              X                  Y                   Z               Mass
    ------------   -----------------  -----------------  -----------------  -----------------
         O            2.876358231103    -0.616286206622    -0.699821716129    15.994914619570
         O           -2.208568768897    -0.960278206622     0.800785283871    15.994914619570
         O            2.207289231103     0.963129793378     0.800690283871    15.994914619570
         O           -2.877640768897     0.618913793378    -0.699918716129    15.994914619570
         C            0.546268231103    -0.532330206622    -0.102374716129    12.000000000000
         C           -0.547555768897     0.535175793378    -0.102378716129    12.000000000000
         C            2.014035231103    -0.016517506622    -0.022793316129    12.000000000000
         C           -2.009119768897     0.005891793378     0.000079283871    12.000000000000
         H            0.472632231103    -1.160836206622    -1.000185716129     1.007825032230
         H            0.348660231103    -1.191363206622     0.753617283871     1.007825032230
         H           -0.473936768897     1.163605793378    -1.000254716129     1.007825032230
         H           -0.349890768897     1.194271793378     0.753556283871     1.007825032230

  Basis Set: AUG-CC-PVTZ
    Blend: AUG-CC-PVTZ
  Basis Set: (AUG-CC-PVTZ AUX)
    Blend: AUG-CC-PVTZ-JKFIT
	 Reference Energy          =    -453.3950440984381771 [Eh]
	 Singles Energy            =      -0.0000000000000000 [Eh]
	 Same-Spin Energy          =      -0.4506683476626876 [Eh]
	 Opposite-Spin Energy      =      -1.3275918953642574 [Eh]
	 Correlation Energy        =      -1.7782602430269450 [Eh]
	 Total Energy              =    -455.1733043414650979 [Eh]

	 ================> DF-SCS-MP2 Energies <==================
	-----------------------------------------------------------
	 SCS Same-Spin Scale       =       0.3333333333333333 [-]
	 SCS Opposite-Spin Scale   =       1.2000000000000000 [-]
	 SCS Same-Spin Energy      =      -0.1502227825542292 [Eh]
	 SCS Opposite-Spin Energy  =      -1.5931102744371088 [Eh]
	 SCS Correlation Energy    =      -1.7433330569913381 [Eh]
	 SCS Total Energy          =    -455.1383771554295095 [Eh]
	-----------------------------------------------------------

  Dipole Moment: [D]
     X:     0.0974      Y:    -0.2009      Z:    -0.4126     Total:     0.4691

*** Psi4 exiting successfully. Buy a developer a beer!
