                               Psi4 1.3.2 release

  ==> Input File <==

--------------------------------------------------------------------------
#psi4
#
memory 32 gb

molecule  {
-2 1
  O        2.8609466    -0.6306662    -0.7062214
  O       -2.2079270    -0.9616680     0.8025740
  O        2.2079310     0.9617400     0.8024790
  O       -2.8769990     0.6175240    -0.6981300
  C        0.5469100    -0.5337200    -0.1005860
  C       -0.5469140     0.5337860    -0.1005900
  C        2.0084700    -0.0044810     0.0018080
  C       -2.0084780     0.0045020     0.0018680
  H        0.4732740    -1.1622260    -0.9983970
  H        0.3493020    -1.1927530     0.7554060
  H       -0.4732950     1.1622160    -0.9984660
  H       -0.3492490     1.1928820     0.7553450
units angstrom
no_reorient  #important for SAPT in psi4, default
symmetry c1  #important for SAPT in psi4, default
}

set PROPERTIES_ORIGIN ["COM"]
properties('MP2/aug-cc-pvtz', properties = ['dipole'])
--------------------------------------------------------------------------

    Molecular point group: c1
  Charge       = -2
  Multiplicity = 1
  Basis Set: AUG-CC-PVTZ
    Blend: AUG-CC-PVTZ
  Basis Set: (AUG-CC-PVTZ AUX)
    Blend: AUG-CC-PVTZ-JKFIT

    Orbital Energies [Eh]
    ---------------------

    Doubly Occupied:

       1A    -20.188995     2A    -20.188068     3A    -20.187832
       4A    -20.186087     5A    -11.029260     6A    -11.028390
       7A    -10.925236     8A    -10.924310     9A     -1.051974
      10A     -1.050374    11A     -0.954017    12A     -0.951826
      13A     -0.736704    14A     -0.583303    15A     -0.402904
      16A     -0.400925    17A     -0.330497    18A     -0.326531
      19A     -0.299148    20A     -0.288364    21A     -0.276810
      22A     -0.246505    23A     -0.235737    24A     -0.187293
      25A     -0.178556    26A     -0.110542    27A     -0.100597
      28A     -0.096488    29A     -0.089746    30A     -0.087927
      31A     -0.073987

  @DF-RHF Final Energy:  -453.39602945270121

   => Energetics <=

    Nuclear Repulsion Energy =            337.8893766692078771
    One-Electron Energy =               -1315.1329449531635873
    Two-Electron Energy =                 523.8475388312544965
    Total Energy =                       -453.3960294527012138
  Basis Set: (AUG-CC-PVTZ AUX)
    Blend: AUG-CC-PVTZ-RI
    Molecular point group: c1

    Geometry (in Angstrom), charge = -2, multiplicity = 1:

       Center              X                  Y                   Z               Mass
    ------------   -----------------  -----------------  -----------------  -----------------
         O            2.863160223096    -0.628874189966    -0.709240848491    15.994914619570
         O           -2.205713376904    -0.959875989966     0.799554551509    15.994914619570
         O            2.210144623096     0.963532010034     0.799459551509    15.994914619570
         O           -2.874785376904     0.619316010034    -0.701149448491    15.994914619570
         C            0.549123623096    -0.531927989966    -0.103605448491    12.000000000000
         C           -0.544700376904     0.535578010034    -0.103609448491    12.000000000000
         C            2.010683623096    -0.002688989966    -0.001211448491    12.000000000000
         C           -2.006264376904     0.006294010034    -0.001151448491    12.000000000000
         H            0.475487623096    -1.160433989966    -1.001416448491     1.007825032230
         H            0.351515623096    -1.190960989966     0.752386551509     1.007825032230
         H           -0.471081376904     1.164008010034    -1.001485448491     1.007825032230
         H           -0.347035376904     1.194674010034     0.752325551509     1.007825032230

  Basis Set: AUG-CC-PVTZ
    Blend: AUG-CC-PVTZ
  Basis Set: (AUG-CC-PVTZ AUX)
    Blend: AUG-CC-PVTZ-JKFIT
	 Reference Energy          =    -453.3960294527012138 [Eh]
	 Singles Energy            =      -0.0000000000000000 [Eh]
	 Same-Spin Energy          =      -0.4507006620396872 [Eh]
	 Opposite-Spin Energy      =      -1.3276200236802782 [Eh]
	 Correlation Energy        =      -1.7783206857199654 [Eh]
	 Total Energy              =    -455.1743501384211754 [Eh]

	 ================> DF-SCS-MP2 Energies <==================
	-----------------------------------------------------------
	 SCS Same-Spin Scale       =       0.3333333333333333 [-]
	 SCS Opposite-Spin Scale   =       1.2000000000000000 [-]
	 SCS Same-Spin Energy      =      -0.1502335540132290 [Eh]
	 SCS Opposite-Spin Energy  =      -1.5931440284163338 [Eh]
	 SCS Correlation Energy    =      -1.7433775824295630 [Eh]
	 SCS Total Energy          =    -455.1394070351307732 [Eh]
	-----------------------------------------------------------

  Dipole Moment: [D]
     X:     0.0477      Y:     0.0178      Z:    -0.1968     Total:     0.2033

*** Psi4 exiting successfully. Buy a developer a beer!
