                               Psi4 1.4a3.dev225

  ==> Input File <==

--------------------------------------------------------------------------
#psi4
#
memory 32 gb

molecule  {
-2 1
  O        2.8298160     0.5705000    -0.7641870
  O       -2.1982280     0.9008650     0.8437030
  O        2.1982240    -0.9008500     0.8437280
  O       -2.8298110    -0.5705100    -0.7641920
  C        0.5292590     0.5488480    -0.0770140
  C       -0.5292600    -0.5488530    -0.0770000
  C        1.9951022     0.0160261     0.0010680
  C       -1.9763290    -0.0228500     0.0000600
  H        0.3427640     1.1908230     0.7923510
  H        0.4272740     1.1816370    -0.9669330
  H       -0.3427680    -1.1908020     0.7923850
  H       -0.4272710    -1.1816680    -0.9669000
units angstrom
no_reorient  #important for SAPT in psi4, default
symmetry c1  #important for SAPT in psi4, default
}

set PROPERTIES_ORIGIN ["COM"]
properties('MP2/aug-cc-pvtz', properties = ['dipole'])
--------------------------------------------------------------------------

    Molecular point group: c1
  Charge       = -2
  Multiplicity = 1
  Basis Set: AUG-CC-PVTZ
    Blend: AUG-CC-PVTZ
  Basis Set: (AUG-CC-PVTZ AUX)
    Blend: AUG-CC-PVTZ-JKFIT

    Orbital Energies [Eh]
    ---------------------

    Doubly Occupied:

       1A    -20.187361     2A    -20.185653     3A    -20.184111
       4A    -20.182199     5A    -11.024237     6A    -11.023792
       7A    -10.922665     8A    -10.921912     9A     -1.056611
      10A     -1.050236    11A     -0.957003    12A     -0.949312
      13A     -0.737817    14A     -0.582650    15A     -0.403302
      16A     -0.398123    17A     -0.331076    18A     -0.327235
      19A     -0.298239    20A     -0.288935    21A     -0.275785
      22A     -0.245322    23A     -0.238227    24A     -0.187939
      25A     -0.180097    26A     -0.108772    27A     -0.098144
      28A     -0.094795    29A     -0.089079    30A     -0.085468
      31A     -0.071981

  @DF-RHF Final Energy:  -453.39811237184335

   => Energetics <=

    Nuclear Repulsion Energy =            339.9809096123697145
    One-Electron Energy =               -1319.3818848433809308
    Two-Electron Energy =                 526.0028628591678626
    Total Energy =                       -453.3981123718433537
  Basis Set: (AUG-CC-PVTZ AUX)
    Blend: AUG-CC-PVTZ-RI
    Molecular point group: c1

    Geometry (in Angstrom), charge = -2, multiplicity = 1:

       Center              X                  Y                   Z               Mass
    ------------   -----------------  -----------------  -----------------  -----------------
         O            2.827874102529     0.571205768702    -0.767269143869    15.994914619570
         O           -2.200169897471     0.901570768702     0.840620856131    15.994914619570
         O            2.196282102529    -0.900144231298     0.840645856131    15.994914619570
         O           -2.831752897471    -0.569804231298    -0.767274143869    15.994914619570
         C            0.527317102529     0.549553768702    -0.080096143869    12.000000000000
         C           -0.531201897471    -0.548147231298    -0.080082143869    12.000000000000
         C            1.993160302529     0.016731868702    -0.002014143869    12.000000000000
         C           -1.978270897471    -0.022144231298    -0.003022143869    12.000000000000
         H            0.340822102529     1.191528768702     0.789268856131     1.007825032230
         H            0.425332102529     1.182342768702    -0.970015143869     1.007825032230
         H           -0.344709897471    -1.190096231298     0.789302856131     1.007825032230
         H           -0.429212897471    -1.180962231298    -0.969982143869     1.007825032230

  Basis Set: AUG-CC-PVTZ
    Blend: AUG-CC-PVTZ
  Basis Set: (AUG-CC-PVTZ AUX)
    Blend: AUG-CC-PVTZ-JKFIT
	 Reference Energy          =    -453.3981123718433537 [Eh]
	 Singles Energy            =      -0.0000000000000000 [Eh]
	 Same-Spin Energy          =      -0.4503465601518581 [Eh]
	 Opposite-Spin Energy      =      -1.3263390134471997 [Eh]
	 Correlation Energy        =      -1.7766855735990579 [Eh]
	 Total Energy              =    -455.1747979454424353 [Eh]

	 ================> DF-SCS-MP2 Energies <==================
	-----------------------------------------------------------
	 SCS Same-Spin Scale       =       0.3333333333333333 [-]
	 SCS Opposite-Spin Scale   =       1.2000000000000000 [-]
	 SCS Same-Spin Energy      =      -0.1501155200506194 [Eh]
	 SCS Opposite-Spin Energy  =      -1.5916068161366397 [Eh]
	 SCS Correlation Energy    =      -1.7417223361872591 [Eh]
	 SCS Total Energy          =    -455.1398347080306053 [Eh]
	-----------------------------------------------------------

  Dipole Moment: [D]
     X:     0.1417      Y:    -0.0337      Z:    -0.0971     Total:     0.1751

*** Psi4 exiting successfully. Buy a developer a beer!
