                               Psi4 1.4a3.dev225

  ==> Input File <==

--------------------------------------------------------------------------
#psi4
#
memory 32 gb

molecule  {
-2 1
  O        2.8298160     0.5705000    -0.7641870
  O       -2.1982280     0.9008650     0.8437030
  O        2.1982240    -0.9008500     0.8437280
  O       -2.8298110    -0.5705100    -0.7641920
  C        0.5292590     0.5488480    -0.0770140
  C       -0.5292600    -0.5488530    -0.0770000
  C        1.9293959     0.0399098    -0.0024320
  C       -1.9763290    -0.0228500     0.0000600
  H        0.3427640     1.1908230     0.7923510
  H        0.4272740     1.1816370    -0.9669330
  H       -0.3427680    -1.1908020     0.7923850
  H       -0.4272710    -1.1816680    -0.9669000
units angstrom
no_reorient  #important for SAPT in psi4, default
symmetry c1  #important for SAPT in psi4, default
}

set PROPERTIES_ORIGIN ["COM"]
properties('MP2/aug-cc-pvtz', properties = ['dipole'])
--------------------------------------------------------------------------

    Molecular point group: c1
  Charge       = -2
  Multiplicity = 1
  Basis Set: AUG-CC-PVTZ
    Blend: AUG-CC-PVTZ
  Basis Set: (AUG-CC-PVTZ AUX)
    Blend: AUG-CC-PVTZ-JKFIT

    Orbital Energies [Eh]
    ---------------------

    Doubly Occupied:

       1A    -20.188581     2A    -20.185401     3A    -20.184837
       4A    -20.181142     5A    -11.027242     6A    -11.026909
       7A    -10.927830     8A    -10.927140     9A     -1.053536
      10A     -1.038099    11A     -0.952409    12A     -0.933713
      13A     -0.750204    14A     -0.598694    15A     -0.408908
      16A     -0.401253    17A     -0.337863    18A     -0.326372
      19A     -0.299003    20A     -0.286217    21A     -0.273082
      22A     -0.241826    23A     -0.234351    24A     -0.187739
      25A     -0.180423    26A     -0.110148    27A     -0.098418
      28A     -0.092383    29A     -0.088060    30A     -0.082531
      31A     -0.078429

  @DF-RHF Final Energy:  -453.39107895862259

   => Energetics <=

    Nuclear Repulsion Energy =            340.0827959302971522
    One-Electron Energy =               -1319.5422658149132076
    Two-Electron Energy =                 526.0683909259935263
    Total Energy =                       -453.3910789586225292
  Basis Set: (AUG-CC-PVTZ AUX)
    Blend: AUG-CC-PVTZ-RI
    Molecular point group: c1

    Geometry (in Angstrom), charge = -2, multiplicity = 1:

       Center              X                  Y                   Z               Mass
    ------------   -----------------  -----------------  -----------------  -----------------
         O            2.834670663901     0.568735274505    -0.766907109105    15.994914619570
         O           -2.193373336099     0.899100274505     0.840982890895    15.994914619570
         O            2.203078663901    -0.902614725495     0.841007890895    15.994914619570
         O           -2.824956336099    -0.572274725495    -0.766912109105    15.994914619570
         C            0.534113663901     0.547083274505    -0.079734109105    12.000000000000
         C           -0.524405336099    -0.550617725495    -0.079720109105    12.000000000000
         C            1.934250563901     0.038145074505    -0.005152109105    12.000000000000
         C           -1.971474336099    -0.024614725495    -0.002660109105    12.000000000000
         H            0.347618663901     1.189058274505     0.789630890895     1.007825032230
         H            0.432128663901     1.179872274505    -0.969653109105     1.007825032230
         H           -0.337913336099    -1.192566725495     0.789664890895     1.007825032230
         H           -0.422416336099    -1.183432725495    -0.969620109105     1.007825032230

  Basis Set: AUG-CC-PVTZ
    Blend: AUG-CC-PVTZ
  Basis Set: (AUG-CC-PVTZ AUX)
    Blend: AUG-CC-PVTZ-JKFIT
	 Reference Energy          =    -453.3910789586225860 [Eh]
	 Singles Energy            =      -0.0000000000000000 [Eh]
	 Same-Spin Energy          =      -0.4516438241005044 [Eh]
	 Opposite-Spin Energy      =      -1.3291540205219166 [Eh]
	 Correlation Energy        =      -1.7807978446224211 [Eh]
	 Total Energy              =    -455.1718768032450271 [Eh]

	 ================> DF-SCS-MP2 Energies <==================
	-----------------------------------------------------------
	 SCS Same-Spin Scale       =       0.3333333333333333 [-]
	 SCS Opposite-Spin Scale   =       1.2000000000000000 [-]
	 SCS Same-Spin Energy      =      -0.1505479413668348 [Eh]
	 SCS Opposite-Spin Energy  =      -1.5949848246262999 [Eh]
	 SCS Correlation Energy    =      -1.7455327659931346 [Eh]
	 SCS Total Energy          =    -455.1366117246157046 [Eh]
	-----------------------------------------------------------

  Dipole Moment: [D]
     X:    -0.3396      Y:     0.0794      Z:    -0.1102     Total:     0.3658

*** Psi4 exiting successfully. Buy a developer a beer!
