                               Psi4 1.3.2 release

  ==> Input File <==

--------------------------------------------------------------------------
#psi4
#
memory 32 gb

molecule  {
-2 1
  O        2.8770000    -0.6176760    -0.6980330
  O       -2.2079270    -0.9616680     0.8025740
  O        2.2079310     0.9617400     0.8024790
  O       -2.8769990     0.6175240    -0.6981300
  C        0.5469100    -0.5337200    -0.1005860
  C       -0.5469140     0.5337860    -0.1005900
  C        1.9947223     0.0218838     0.0473327
  C       -2.0084780     0.0045020     0.0018680
  H        0.4732740    -1.1622260    -0.9983970
  H        0.3493020    -1.1927530     0.7554060
  H       -0.4732950     1.1622160    -0.9984660
  H       -0.3492490     1.1928820     0.7553450
units angstrom
no_reorient  #important for SAPT in psi4, default
symmetry c1  #important for SAPT in psi4, default
}

set PROPERTIES_ORIGIN ["COM"]
properties('MP2/aug-cc-pvtz', properties = ['dipole'])
--------------------------------------------------------------------------

    Molecular point group: c1
  Charge       = -2
  Multiplicity = 1
  Basis Set: AUG-CC-PVTZ
    Blend: AUG-CC-PVTZ
  Basis Set: (AUG-CC-PVTZ AUX)
    Blend: AUG-CC-PVTZ-JKFIT

    Orbital Energies [Eh]
    ---------------------

    Doubly Occupied:

       1A    -20.198291     2A    -20.188955     3A    -20.187021
       4A    -20.176571     5A    -11.029382     6A    -11.028191
       7A    -10.926691     8A    -10.925465     9A     -1.064055
      10A     -1.051811    11A     -0.952740    12A     -0.941418
      13A     -0.738638    14A     -0.583633    15A     -0.405550
      16A     -0.401556    17A     -0.332005    18A     -0.329417
      19A     -0.301048    20A     -0.287336    21A     -0.275880
      22A     -0.248662    23A     -0.237469    24A     -0.189704
      25A     -0.180983    26A     -0.107837    27A     -0.100650
      28A     -0.097402    29A     -0.088986    30A     -0.086000
      31A     -0.072419

  @DF-RHF Final Energy:  -453.39266165828479

   => Energetics <=

    Nuclear Repulsion Energy =            337.9516499004600405
    One-Electron Energy =               -1315.2170873837771978
    Two-Electron Energy =                 523.8727758250322495
    Total Energy =                       -453.3926616582848510
  Basis Set: (AUG-CC-PVTZ AUX)
    Blend: AUG-CC-PVTZ-RI
    Molecular point group: c1

    Geometry (in Angstrom), charge = -2, multiplicity = 1:

       Center              X                  Y                   Z               Mass
    ------------   -----------------  -----------------  -----------------  -----------------
         O            2.878422315417    -0.620402138477    -0.706890424205    15.994914619570
         O           -2.206504684583    -0.964394138477     0.793716575795    15.994914619570
         O            2.209353315417     0.959013861523     0.793621575795    15.994914619570
         O           -2.875576684583     0.614797861523    -0.706987424205    15.994914619570
         C            0.548332315417    -0.536446138477    -0.109443424205    12.000000000000
         C           -0.545491684583     0.531059861523    -0.109447424205    12.000000000000
         C            1.996144615417     0.019157661523     0.038475275795    12.000000000000
         C           -2.007055684583     0.001775861523    -0.006989424205    12.000000000000
         H            0.474696315417    -1.164952138477    -1.007254424205     1.007825032230
         H            0.350724315417    -1.195479138477     0.746548575795     1.007825032230
         H           -0.471872684583     1.159489861523    -1.007323424205     1.007825032230
         H           -0.347826684583     1.190155861523     0.746487575795     1.007825032230

  Basis Set: AUG-CC-PVTZ
    Blend: AUG-CC-PVTZ
  Basis Set: (AUG-CC-PVTZ AUX)
    Blend: AUG-CC-PVTZ-JKFIT
	 Reference Energy          =    -453.3926616582847942 [Eh]
	 Singles Energy            =      -0.0000000000000000 [Eh]
	 Same-Spin Energy          =      -0.4506710041988811 [Eh]
	 Opposite-Spin Energy      =      -1.3275811302329350 [Eh]
	 Correlation Energy        =      -1.7782521344318161 [Eh]
	 Total Energy              =    -455.1709137927165898 [Eh]

	 ================> DF-SCS-MP2 Energies <==================
	-----------------------------------------------------------
	 SCS Same-Spin Scale       =       0.3333333333333333 [-]
	 SCS Opposite-Spin Scale   =       1.2000000000000000 [-]
	 SCS Same-Spin Energy      =      -0.1502236680662937 [Eh]
	 SCS Opposite-Spin Energy  =      -1.5930973562795219 [Eh]
	 SCS Correlation Energy    =      -1.7433210243458155 [Eh]
	 SCS Total Energy          =    -455.1359826826305834 [Eh]
	-----------------------------------------------------------

  Dipole Moment: [D]
     X:    -0.2221      Y:     0.3976      Z:     0.2030     Total:     0.4986

*** Psi4 exiting successfully. Buy a developer a beer!
