                               Psi4 1.4a3.dev225

  ==> Input File <==

--------------------------------------------------------------------------
#psi4
#
memory 32 gb

molecule  {
-2 1
  O        2.8298160     0.5705000    -0.7641870
  O       -2.1982280     0.9008650     0.8437030
  O        2.1982240    -0.9008500     0.8437280
  O       -2.8298110    -0.5705100    -0.7641920
  C        0.5292590     0.5488480    -0.0770140
  C       -0.5292600    -0.5488530    -0.0770000
  C        1.9427224     0.0012859     0.0301610
  C       -1.9763290    -0.0228500     0.0000600
  H        0.3427640     1.1908230     0.7923510
  H        0.4272740     1.1816370    -0.9669330
  H       -0.3427680    -1.1908020     0.7923850
  H       -0.4272710    -1.1816680    -0.9669000
units angstrom
no_reorient  #important for SAPT in psi4, default
symmetry c1  #important for SAPT in psi4, default
}

set PROPERTIES_ORIGIN ["COM"]
properties('MP2/aug-cc-pvtz', properties = ['dipole'])
--------------------------------------------------------------------------

    Molecular point group: c1
  Charge       = -2
  Multiplicity = 1
  Basis Set: AUG-CC-PVTZ
    Blend: AUG-CC-PVTZ
  Basis Set: (AUG-CC-PVTZ AUX)
    Blend: AUG-CC-PVTZ-JKFIT

    Orbital Energies [Eh]
    ---------------------

    Doubly Occupied:

       1A    -20.192239     2A    -20.187821     3A    -20.184609
       4A    -20.175644     5A    -11.026306     6A    -11.025199
       7A    -10.926218     8A    -10.925436     9A     -1.054247
      10A     -1.052114    11A     -0.951622    12A     -0.935920
      13A     -0.746152    14A     -0.591578    15A     -0.408798
      16A     -0.400014    17A     -0.335803    18A     -0.328526
      19A     -0.299929    20A     -0.286490    21A     -0.273029
      22A     -0.244347    23A     -0.237160    24A     -0.189841
      25A     -0.182542    26A     -0.107337    27A     -0.097432
      28A     -0.095656    29A     -0.087702    30A     -0.081916
      31A     -0.076104

  @DF-RHF Final Energy:  -453.39294092537585

   => Energetics <=

    Nuclear Repulsion Energy =            340.1707236853818586
    One-Electron Energy =               -1319.7118708051521025
    Two-Electron Energy =                 526.1482061943943336
    Total Energy =                       -453.3929409253759104
  Basis Set: (AUG-CC-PVTZ AUX)
    Blend: AUG-CC-PVTZ-RI
    Molecular point group: c1

    Geometry (in Angstrom), charge = -2, multiplicity = 1:

       Center              X                  Y                   Z               Mass
    ------------   -----------------  -----------------  -----------------  -----------------
         O            2.833292190678     0.572730472938    -0.770278480264    15.994914619570
         O           -2.194751809322     0.903095472938     0.837611519736    15.994914619570
         O            2.201700190678    -0.898619527062     0.837636519736    15.994914619570
         O           -2.826334809322    -0.568279527062    -0.770283480264    15.994914619570
         C            0.532735190678     0.551078472938    -0.083105480264    12.000000000000
         C           -0.525783809322    -0.546622527062    -0.083091480264    12.000000000000
         C            1.946198590678     0.003516372938     0.024069519736    12.000000000000
         C           -1.972852809322    -0.020619527062    -0.006031480264    12.000000000000
         H            0.346240190678     1.193053472938     0.786259519736     1.007825032230
         H            0.430750190678     1.183867472938    -0.973024480264     1.007825032230
         H           -0.339291809322    -1.188571527062     0.786293519736     1.007825032230
         H           -0.423794809322    -1.179437527062    -0.972991480264     1.007825032230

  Basis Set: AUG-CC-PVTZ
    Blend: AUG-CC-PVTZ
  Basis Set: (AUG-CC-PVTZ AUX)
    Blend: AUG-CC-PVTZ-JKFIT
	 Reference Energy          =    -453.3929409253758536 [Eh]
	 Singles Energy            =      -0.0000000000000000 [Eh]
	 Same-Spin Energy          =      -0.4510759831043510 [Eh]
	 Opposite-Spin Energy      =      -1.3279696293040733 [Eh]
	 Correlation Energy        =      -1.7790456124084242 [Eh]
	 Total Energy              =    -455.1719865377842780 [Eh]

	 ================> DF-SCS-MP2 Energies <==================
	-----------------------------------------------------------
	 SCS Same-Spin Scale       =       0.3333333333333333 [-]
	 SCS Opposite-Spin Scale   =       1.2000000000000000 [-]
	 SCS Same-Spin Energy      =      -0.1503586610347837 [Eh]
	 SCS Opposite-Spin Energy  =      -1.5935635551648879 [Eh]
	 SCS Correlation Energy    =      -1.7439222161996715 [Eh]
	 SCS Total Energy          =    -455.1368631415755317 [Eh]
	-----------------------------------------------------------

  Dipole Moment: [D]
     X:    -0.3269      Y:    -0.2850      Z:     0.2577     Total:     0.5045

*** Psi4 exiting successfully. Buy a developer a beer!
