                               Psi4 1.3.2 release

  ==> Input File <==

--------------------------------------------------------------------------
#psi4
#
memory 32 gb

molecule  {
-2 1
  O        2.8770000    -0.6176760    -0.6980330
  O       -2.2079270    -0.9616680     0.8025740
  O        2.2079310     0.9617400     0.8024790
  O       -2.8769990     0.6175240    -0.6981300
  C        0.5469100    -0.5337200    -0.1005860
  C       -0.5469140     0.5337860    -0.1005900
  C        1.8719991     0.0918694     0.1117730
  C       -2.0084780     0.0045020     0.0018680
  H        0.4732740    -1.1622260    -0.9983970
  H        0.3493020    -1.1927530     0.7554060
  H       -0.4732950     1.1622160    -0.9984660
  H       -0.3492490     1.1928820     0.7553450
units angstrom
no_reorient  #important for SAPT in psi4, default
symmetry c1  #important for SAPT in psi4, default
}

set PROPERTIES_ORIGIN ["COM"]
properties('MP2/aug-cc-pvtz', properties = ['dipole'])
--------------------------------------------------------------------------

    Molecular point group: c1
  Charge       = -2
  Multiplicity = 1
  Basis Set: AUG-CC-PVTZ
    Blend: AUG-CC-PVTZ
  Basis Set: (AUG-CC-PVTZ AUX)
    Blend: AUG-CC-PVTZ-JKFIT

    Orbital Energies [Eh]
    ---------------------

    Doubly Occupied:

       1A    -20.223043     2A    -20.193456     3A    -20.192144
       4A    -20.146803     5A    -11.034422     6A    -11.028588
       7A    -10.934164     8A    -10.933327     9A     -1.110542
      10A     -1.056740    11A     -0.957572    12A     -0.867165
      13A     -0.756655    14A     -0.600027    15A     -0.423735
      16A     -0.408037    17A     -0.349421    18A     -0.342087
      19A     -0.308538    20A     -0.288954    21A     -0.278429
      22A     -0.259279    23A     -0.241463    24A     -0.200934
      25A     -0.191248    26A     -0.109750    27A     -0.100570
      28A     -0.093761    29A     -0.077327    30A     -0.057964
      31A     -0.055857

  @DF-RHF Final Energy:  -453.34884310214113

   => Energetics <=

    Nuclear Repulsion Energy =            338.7129428834585951
    One-Electron Energy =               -1316.4795694523679686
    Two-Electron Energy =                 524.4177834667682419
    Total Energy =                       -453.3488431021411316
  Basis Set: (AUG-CC-PVTZ AUX)
    Blend: AUG-CC-PVTZ-RI
    Molecular point group: c1

    Geometry (in Angstrom), charge = -2, multiplicity = 1:

       Center              X                  Y                   Z               Mass
    ------------   -----------------  -----------------  -----------------  -----------------
         O            2.891116619625    -0.627641344239    -0.713556032431    15.994914619570
         O           -2.193810380375    -0.971633344239     0.787050967569    15.994914619570
         O            2.222047619625     0.951774655761     0.786955967569    15.994914619570
         O           -2.862882380375     0.607558655761    -0.713653032431    15.994914619570
         C            0.561026619625    -0.543685344239    -0.116109032431    12.000000000000
         C           -0.532797380375     0.523820655761    -0.116113032431    12.000000000000
         C            1.886115719625     0.081904055761     0.096249967569    12.000000000000
         C           -1.994361380375    -0.005463344239    -0.013655032431    12.000000000000
         H            0.487390619625    -1.172191344239    -1.013920032431     1.007825032230
         H            0.363418619625    -1.202718344239     0.739882967569     1.007825032230
         H           -0.459178380375     1.152250655761    -1.013989032431     1.007825032230
         H           -0.335132380375     1.182916655761     0.739821967569     1.007825032230

  Basis Set: AUG-CC-PVTZ
    Blend: AUG-CC-PVTZ
  Basis Set: (AUG-CC-PVTZ AUX)
    Blend: AUG-CC-PVTZ-JKFIT
	 Reference Energy          =    -453.3488431021411316 [Eh]
	 Singles Energy            =      -0.0000000000000000 [Eh]
	 Same-Spin Energy          =      -0.4526321371641962 [Eh]
	 Opposite-Spin Energy      =      -1.3321667220149545 [Eh]
	 Correlation Energy        =      -1.7847988591791506 [Eh]
	 Total Energy              =    -455.1336419613202793 [Eh]

	 ================> DF-SCS-MP2 Energies <==================
	-----------------------------------------------------------
	 SCS Same-Spin Scale       =       0.3333333333333333 [-]
	 SCS Opposite-Spin Scale   =       1.2000000000000000 [-]
	 SCS Same-Spin Energy      =      -0.1508773790547321 [Eh]
	 SCS Opposite-Spin Energy  =      -1.5986000664179454 [Eh]
	 SCS Correlation Energy    =      -1.7494774454726774 [Eh]
	 SCS Total Energy          =    -455.0983205476138096 [Eh]
	-----------------------------------------------------------

  Dipole Moment: [D]
     X:    -1.4299      Y:     1.2157      Z:     1.1223     Total:     2.1868

*** Psi4 exiting successfully. Buy a developer a beer!
