                               Psi4 1.3.2 release

  ==> Input File <==

--------------------------------------------------------------------------
#psi4
#
memory 32 gb

molecule  {
-2 1
  O        2.8770000    -0.6176760    -0.6980330
  O       -2.2079270    -0.9616680     0.8025740
  O        2.2079310     0.9617400     0.8024790
  O       -2.8769990     0.6175240    -0.6981300
  C        0.5469100    -0.5337200    -0.1005860
  C       -0.5653283     0.5145844    -0.1025363
  C        2.0084700    -0.0044810     0.0018080
  C       -2.0084780     0.0045020     0.0018680
  H        0.4732740    -1.1622260    -0.9983970
  H        0.3493020    -1.1927530     0.7554060
  H       -0.4732950     1.1622160    -0.9984660
  H       -0.3492490     1.1928820     0.7553450
units angstrom
no_reorient  #important for SAPT in psi4, default
symmetry c1  #important for SAPT in psi4, default
}

set PROPERTIES_ORIGIN ["COM"]
properties('MP2/aug-cc-pvtz', properties = ['dipole'])
--------------------------------------------------------------------------

    Molecular point group: c1
  Charge       = -2
  Multiplicity = 1
  Basis Set: AUG-CC-PVTZ
    Blend: AUG-CC-PVTZ
  Basis Set: (AUG-CC-PVTZ AUX)
    Blend: AUG-CC-PVTZ-JKFIT

    Orbital Energies [Eh]
    ---------------------

    Doubly Occupied:

       1A    -20.189047     2A    -20.188175     3A    -20.186986
       4A    -20.185999     5A    -11.029777     6A    -11.027963
       7A    -10.927520     8A    -10.926190     9A     -1.052639
      10A     -1.051097    11A     -0.952731    12A     -0.952293
      13A     -0.738302    14A     -0.586134    15A     -0.403134
      16A     -0.402717    17A     -0.329792    18A     -0.327572
      19A     -0.300784    20A     -0.288385    21A     -0.277947
      22A     -0.246595    23A     -0.235075    24A     -0.185432
      25A     -0.175017    26A     -0.111061    27A     -0.099857
      28A     -0.097188    29A     -0.089242    30A     -0.088072
      31A     -0.077721

  @DF-RHF Final Energy:  -453.39536173992343

   => Energetics <=

    Nuclear Repulsion Energy =            338.0001237179068880
    One-Electron Energy =               -1315.3300820874731016
    Two-Electron Energy =                 523.9345966296427832
    Total Energy =                       -453.3953617399233735
  Basis Set: (AUG-CC-PVTZ AUX)
    Blend: AUG-CC-PVTZ-RI
    Molecular point group: c1

    Geometry (in Angstrom), charge = -2, multiplicity = 1:

       Center              X                  Y                   Z               Mass
    ------------   -----------------  -----------------  -----------------  -----------------
         O            2.878905021540    -0.615688818231    -0.701980094984    15.994914619570
         O           -2.206021978460    -0.959680818231     0.798626905016    15.994914619570
         O            2.209836021540     0.963727181769     0.798531905016    15.994914619570
         O           -2.875093978460     0.619511181769    -0.702077094984    15.994914619570
         C            0.548815021540    -0.531732818231    -0.104533094984    12.000000000000
         C           -0.563423278460     0.516571581769    -0.106483394984    12.000000000000
         C            2.010375021540    -0.002493818231    -0.002139094984    12.000000000000
         C           -2.006572978460     0.006489181769    -0.002079094984    12.000000000000
         H            0.475179021540    -1.160238818231    -1.002344094984     1.007825032230
         H            0.351207021540    -1.190765818231     0.751458905016     1.007825032230
         H           -0.471389978460     1.164203181769    -1.002413094984     1.007825032230
         H           -0.347343978460     1.194869181769     0.751397905016     1.007825032230

  Basis Set: AUG-CC-PVTZ
    Blend: AUG-CC-PVTZ
  Basis Set: (AUG-CC-PVTZ AUX)
    Blend: AUG-CC-PVTZ-JKFIT
	 Reference Energy          =    -453.3953617399234304 [Eh]
	 Singles Energy            =      -0.0000000000000000 [Eh]
	 Same-Spin Energy          =      -0.4507858117614684 [Eh]
	 Opposite-Spin Energy      =      -1.3277635248687816 [Eh]
	 Correlation Energy        =      -1.7785493366302501 [Eh]
	 Total Energy              =    -455.1739110765536793 [Eh]

	 ================> DF-SCS-MP2 Energies <==================
	-----------------------------------------------------------
	 SCS Same-Spin Scale       =       0.3333333333333333 [-]
	 SCS Opposite-Spin Scale   =       1.2000000000000000 [-]
	 SCS Same-Spin Energy      =      -0.1502619372538228 [Eh]
	 SCS Opposite-Spin Energy  =      -1.5933162298425378 [Eh]
	 SCS Correlation Energy    =      -1.7435781670963606 [Eh]
	 SCS Total Energy          =    -455.1389399070197896 [Eh]
	-----------------------------------------------------------

  Dipole Moment: [D]
     X:     0.0262      Y:    -0.0169      Z:    -0.2144     Total:     0.2166

*** Psi4 exiting successfully. Buy a developer a beer!
