                               Psi4 1.3.2 release

  ==> Input File <==

--------------------------------------------------------------------------
#psi4
#
memory 32 gb

molecule  {
-2 1
  O        2.8770000    -0.6176760    -0.6980330
  O       -2.2079270    -0.9616680     0.8025740
  O        2.2079310     0.9617400     0.8024790
  O       -2.8769990     0.6175240    -0.6981300
  C        0.5469100    -0.5337200    -0.1005860
  C       -0.5469140     0.5337860    -0.1005900
  C        1.9792107     0.0475717     0.0926772
  C       -2.0084780     0.0045020     0.0018680
  H        0.4732740    -1.1622260    -0.9983970
  H        0.3493020    -1.1927530     0.7554060
  H       -0.4732950     1.1622160    -0.9984660
  H       -0.3492490     1.1928820     0.7553450
units angstrom
no_reorient  #important for SAPT in psi4, default
symmetry c1  #important for SAPT in psi4, default
}

set PROPERTIES_ORIGIN ["COM"]
properties('MP2/aug-cc-pvtz', properties = ['dipole'])
--------------------------------------------------------------------------

    Molecular point group: c1
  Charge       = -2
  Multiplicity = 1
  Basis Set: AUG-CC-PVTZ
    Blend: AUG-CC-PVTZ
  Basis Set: (AUG-CC-PVTZ AUX)
    Blend: AUG-CC-PVTZ-JKFIT

    Orbital Energies [Eh]
    ---------------------

    Doubly Occupied:

       1A    -20.209984     2A    -20.189518     3A    -20.187622
       4A    -20.164953     5A    -11.029981     6A    -11.026784
       7A    -10.927646     8A    -10.925717     9A     -1.092512
      10A     -1.052437    11A     -0.953319    12A     -0.918321
      13A     -0.739922    14A     -0.583481    15A     -0.409941
      16A     -0.403052    17A     -0.337590    18A     -0.332188
      19A     -0.302884    20A     -0.286700    21A     -0.277999
      22A     -0.254584    23A     -0.239967    24A     -0.192624
      25A     -0.183668    26A     -0.107938    27A     -0.098699
      28A     -0.093981    29A     -0.089400    30A     -0.078728
      31A     -0.066868

  @DF-RHF Final Energy:  -453.38081999228609

   => Energetics <=

    Nuclear Repulsion Energy =            338.1615051443983475
    One-Electron Energy =               -1315.5666336608699112
    Two-Electron Energy =                 524.0243085241854715
    Total Energy =                       -453.3808199922860922
  Basis Set: (AUG-CC-PVTZ AUX)
    Blend: AUG-CC-PVTZ-RI
    Molecular point group: c1

    Geometry (in Angstrom), charge = -2, multiplicity = 1:

       Center              X                  Y                   Z               Mass
    ------------   -----------------  -----------------  -----------------  -----------------
         O            2.880026812115    -0.623059256423    -0.711580791447    15.994914619570
         O           -2.204900187885    -0.967051256423     0.789026208553    15.994914619570
         O            2.210957812115     0.956356743577     0.788931208553    15.994914619570
         O           -2.873972187885     0.612140743577    -0.711677791447    15.994914619570
         C            0.549936812115    -0.539103256423    -0.114133791447    12.000000000000
         C           -0.543887187885     0.528402743577    -0.114137791447    12.000000000000
         C            1.982237512115     0.042188443577     0.079129408553    12.000000000000
         C           -2.005451187885    -0.000881256423    -0.011679791447    12.000000000000
         H            0.476300812115    -1.167609256423    -1.011944791447     1.007825032230
         H            0.352328812115    -1.198136256423     0.741858208553     1.007825032230
         H           -0.470268187885     1.156832743577    -1.012013791447     1.007825032230
         H           -0.346222187885     1.187498743577     0.741797208553     1.007825032230

  Basis Set: AUG-CC-PVTZ
    Blend: AUG-CC-PVTZ
  Basis Set: (AUG-CC-PVTZ AUX)
    Blend: AUG-CC-PVTZ-JKFIT
	 Reference Energy          =    -453.3808199922860922 [Eh]
	 Singles Energy            =      -0.0000000000000000 [Eh]
	 Same-Spin Energy          =      -0.4507238099483074 [Eh]
	 Opposite-Spin Energy      =      -1.3277875046200429 [Eh]
	 Correlation Energy        =      -1.7785113145683504 [Eh]
	 Total Energy              =    -455.1593313068544262 [Eh]

	 ================> DF-SCS-MP2 Energies <==================
	-----------------------------------------------------------
	 SCS Same-Spin Scale       =       0.3333333333333333 [-]
	 SCS Opposite-Spin Scale   =       1.2000000000000000 [-]
	 SCS Same-Spin Energy      =      -0.1502412699827691 [Eh]
	 SCS Opposite-Spin Energy  =      -1.5933450055440515 [Eh]
	 SCS Correlation Energy    =      -1.7435862755268206 [Eh]
	 SCS Total Energy          =    -455.1244062678129012 [Eh]
	-----------------------------------------------------------

  Dipole Moment: [D]
     X:    -0.4822      Y:     0.7919      Z:     0.6162     Total:     1.1132

*** Psi4 exiting successfully. Buy a developer a beer!
