                               Psi4 1.3.2 release

  ==> Input File <==

--------------------------------------------------------------------------
#psi4
#
memory 32 gb

molecule  {
-2 1
  O        2.8449179    -0.6446091    -0.7128394
  O       -2.2079270    -0.9616680     0.8025740
  O        2.2079310     0.9617400     0.8024790
  O       -2.8769990     0.6175240    -0.6981300
  C        0.5469100    -0.5337200    -0.1005860
  C       -0.5469140     0.5337860    -0.1005900
  C        2.0084700    -0.0044810     0.0018080
  C       -2.0084780     0.0045020     0.0018680
  H        0.4732740    -1.1622260    -0.9983970
  H        0.3493020    -1.1927530     0.7554060
  H       -0.4732950     1.1622160    -0.9984660
  H       -0.3492490     1.1928820     0.7553450
units angstrom
no_reorient  #important for SAPT in psi4, default
symmetry c1  #important for SAPT in psi4, default
}

set PROPERTIES_ORIGIN ["COM"]
properties('MP2/aug-cc-pvtz', properties = ['dipole'])
--------------------------------------------------------------------------

    Molecular point group: c1
  Charge       = -2
  Multiplicity = 1
  Basis Set: AUG-CC-PVTZ
    Blend: AUG-CC-PVTZ
  Basis Set: (AUG-CC-PVTZ AUX)
    Blend: AUG-CC-PVTZ-JKFIT

    Orbital Energies [Eh]
    ---------------------

    Doubly Occupied:

       1A    -20.189519     2A    -20.189172     3A    -20.187682
       4A    -20.185686     5A    -11.029679     6A    -11.027931
       7A    -10.924546     8A    -10.923043     9A     -1.051948
      10A     -1.050116    11A     -0.955786    12A     -0.951430
      13A     -0.735875    14A     -0.582494    15A     -0.402819
      16A     -0.400718    17A     -0.330004    18A     -0.326289
      19A     -0.299221    20A     -0.288586    21A     -0.276655
      22A     -0.246496    23A     -0.235591    24A     -0.186812
      25A     -0.178089    26A     -0.110590    27A     -0.101276
      28A     -0.096312    29A     -0.090693    30A     -0.087669
      31A     -0.072991

  @DF-RHF Final Energy:  -453.39558988977308

   => Energetics <=

    Nuclear Repulsion Energy =            337.9707902796058079
    One-Electron Energy =               -1315.3013253410681500
    Two-Electron Energy =                 523.9349451716892645
    Total Energy =                       -453.3955898897730776
  Basis Set: (AUG-CC-PVTZ AUX)
    Blend: AUG-CC-PVTZ-RI
    Molecular point group: c1

    Geometry (in Angstrom), charge = -2, multiplicity = 1:

       Center              X                  Y                   Z               Mass
    ------------   -----------------  -----------------  -----------------  -----------------
         O            2.849341466804    -0.640894724202    -0.714946397235    15.994914619570
         O           -2.203503433196    -0.957953624202     0.800467002765    15.994914619570
         O            2.212354566804     0.965454375798     0.800372002765    15.994914619570
         O           -2.872575433196     0.621238375798    -0.700236997235    15.994914619570
         C            0.551333566804    -0.530005624202    -0.102692997235    12.000000000000
         C           -0.542490433196     0.537500375798    -0.102696997235    12.000000000000
         C            2.012893566804    -0.000766624202    -0.000298997235    12.000000000000
         C           -2.004054433196     0.008216375798    -0.000238997235    12.000000000000
         H            0.477697566804    -1.158511624202    -1.000503997235     1.007825032230
         H            0.353725566804    -1.189038624202     0.753299002765     1.007825032230
         H           -0.468871433196     1.165930375798    -1.000572997235     1.007825032230
         H           -0.344825433196     1.196596375798     0.753238002765     1.007825032230

  Basis Set: AUG-CC-PVTZ
    Blend: AUG-CC-PVTZ
  Basis Set: (AUG-CC-PVTZ AUX)
    Blend: AUG-CC-PVTZ-JKFIT
	 Reference Energy          =    -453.3955898897730776 [Eh]
	 Singles Energy            =      -0.0000000000000000 [Eh]
	 Same-Spin Energy          =      -0.4507464591884159 [Eh]
	 Opposite-Spin Energy      =      -1.3277033233282323 [Eh]
	 Correlation Energy        =      -1.7784497825166481 [Eh]
	 Total Energy              =    -455.1740396722897231 [Eh]

	 ================> DF-SCS-MP2 Energies <==================
	-----------------------------------------------------------
	 SCS Same-Spin Scale       =       0.3333333333333333 [-]
	 SCS Opposite-Spin Scale   =       1.2000000000000000 [-]
	 SCS Same-Spin Energy      =      -0.1502488197294720 [Eh]
	 SCS Opposite-Spin Energy  =      -1.5932439879938787 [Eh]
	 SCS Correlation Energy    =      -1.7434928077233507 [Eh]
	 SCS Total Energy          =    -455.1390826974964057 [Eh]
	-----------------------------------------------------------

  Dipole Moment: [D]
     X:     0.0958      Y:     0.0365      Z:    -0.1880     Total:     0.2141

*** Psi4 exiting successfully. Buy a developer a beer!
