                               Psi4 1.3.2 release

  ==> Input File <==

--------------------------------------------------------------------------
#psi4
#
memory 32 gb

molecule  {
-2 1
  O        2.8770000    -0.6176760    -0.6980330
  O       -2.2079270    -0.9616680     0.8025740
  O        2.2079310     0.9617400     0.8024790
  O       -2.8769990     0.6175240    -0.6981300
  C        0.5469100    -0.5337200    -0.1005860
  C       -0.5469140     0.5337860    -0.1005900
  C        2.1449409    -0.1008314    -0.1081570
  C       -2.0084780     0.0045020     0.0018680
  H        0.4732740    -1.1622260    -0.9983970
  H        0.3493020    -1.1927530     0.7554060
  H       -0.4732950     1.1622160    -0.9984660
  H       -0.3492490     1.1928820     0.7553450
units angstrom
no_reorient  #important for SAPT in psi4, default
symmetry c1  #important for SAPT in psi4, default
}

set PROPERTIES_ORIGIN ["COM"]
properties('MP2/aug-cc-pvtz', properties = ['dipole'])
--------------------------------------------------------------------------

    Molecular point group: c1
  Charge       = -2
  Multiplicity = 1
  Basis Set: AUG-CC-PVTZ
    Blend: AUG-CC-PVTZ
  Basis Set: (AUG-CC-PVTZ AUX)
    Blend: AUG-CC-PVTZ-JKFIT

    Orbital Energies [Eh]
    ---------------------

    Doubly Occupied:

       1A    -20.235677     2A    -20.182606     3A    -20.179972
       4A    -20.152807     5A    -11.023026     6A    -11.021969
       7A    -10.917050     8A    -10.916444     9A     -1.185176
      10A     -1.045019    11A     -0.945986    12A     -0.902763
      13A     -0.719450    14A     -0.567538    15A     -0.425642
      16A     -0.393365    17A     -0.352791    18A     -0.326552
      19A     -0.314655    20A     -0.300847    21A     -0.287945
      22A     -0.271818    23A     -0.235529    24A     -0.186700
      25A     -0.170971    26A     -0.110050    27A     -0.093238
      28A     -0.083004    29A     -0.079076    30A     -0.071769
      31A     -0.040387

  @DF-RHF Final Energy:  -453.32594724875679

   => Energetics <=

    Nuclear Repulsion Energy =            337.9069140013165224
    One-Electron Energy =               -1314.9860777864068950
    Two-Electron Energy =                 523.7532165363335253
    Total Energy =                       -453.3259472487568473
  Basis Set: (AUG-CC-PVTZ AUX)
    Blend: AUG-CC-PVTZ-RI
    Molecular point group: c1

    Geometry (in Angstrom), charge = -2, multiplicity = 1:

       Center              X                  Y                   Z               Mass
    ------------   -----------------  -----------------  -----------------  -----------------
         O            2.862883928168    -0.607708661777    -0.690806802258    15.994914619570
         O           -2.222043071832    -0.951700661777     0.809800197742    15.994914619570
         O            2.193814928168     0.971707338223     0.809705197742    15.994914619570
         O           -2.891115071832     0.627491338223    -0.690903802258    15.994914619570
         C            0.532793928168    -0.523752661777    -0.093359802258    12.000000000000
         C           -0.561030071832     0.543753338223    -0.093363802258    12.000000000000
         C            2.130824828168    -0.090864061777    -0.100930802258    12.000000000000
         C           -2.022594071832     0.014469338223     0.009094197742    12.000000000000
         H            0.459157928168    -1.152258661777    -0.991170802258     1.007825032230
         H            0.335185928168    -1.182785661777     0.762632197742     1.007825032230
         H           -0.487411071832     1.172183338223    -0.991239802258     1.007825032230
         H           -0.363365071832     1.202849338223     0.762571197742     1.007825032230

  Basis Set: AUG-CC-PVTZ
    Blend: AUG-CC-PVTZ
  Basis Set: (AUG-CC-PVTZ AUX)
    Blend: AUG-CC-PVTZ-JKFIT
	 Reference Energy          =    -453.3259472487567905 [Eh]
	 Singles Energy            =      -0.0000000000000000 [Eh]
	 Same-Spin Energy          =      -0.4497684333958359 [Eh]
	 Opposite-Spin Energy      =      -1.3256185242892797 [Eh]
	 Correlation Energy        =      -1.7753869576851158 [Eh]
	 Total Energy              =    -455.1013342064418907 [Eh]

	 ================> DF-SCS-MP2 Energies <==================
	-----------------------------------------------------------
	 SCS Same-Spin Scale       =       0.3333333333333333 [-]
	 SCS Opposite-Spin Scale   =       1.2000000000000000 [-]
	 SCS Same-Spin Energy      =      -0.1499228111319453 [Eh]
	 SCS Opposite-Spin Energy  =      -1.5907422291471356 [Eh]
	 SCS Correlation Energy    =      -1.7406650402790809 [Eh]
	 SCS Total Energy          =    -455.0666122890358452 [Eh]
	-----------------------------------------------------------

  Dipole Moment: [D]
     X:     1.2951      Y:    -1.3437      Z:    -1.6215     Total:     2.4723

*** Psi4 exiting successfully. Buy a developer a beer!
