                               Psi4 1.3.2 release

  ==> Input File <==

--------------------------------------------------------------------------
#psi4
#
memory 32 gb

molecule  {
-2 1
  O        2.8770000    -0.6176760    -0.6980330
  O       -2.2079270    -0.9616680     0.8025740
  O        2.2079310     0.9617400     0.8024790
  O       -2.8769990     0.6175240    -0.6981300
  C        0.5469100    -0.5337200    -0.1005860
  C       -0.5469140     0.5337860    -0.1005900
  C        2.0767054    -0.0526562    -0.0531745
  C       -2.0084780     0.0045020     0.0018680
  H        0.4732740    -1.1622260    -0.9983970
  H        0.3493020    -1.1927530     0.7554060
  H       -0.4732950     1.1622160    -0.9984660
  H       -0.3492490     1.1928820     0.7553450
units angstrom
no_reorient  #important for SAPT in psi4, default
symmetry c1  #important for SAPT in psi4, default
}

set PROPERTIES_ORIGIN ["COM"]
properties('MP2/aug-cc-pvtz', properties = ['dipole'])
--------------------------------------------------------------------------

    Molecular point group: c1
  Charge       = -2
  Multiplicity = 1
  Basis Set: AUG-CC-PVTZ
    Blend: AUG-CC-PVTZ
  Basis Set: (AUG-CC-PVTZ AUX)
    Blend: AUG-CC-PVTZ-JKFIT

    Orbital Energies [Eh]
    ---------------------

    Doubly Occupied:

       1A    -20.211430     2A    -20.185694     3A    -20.183402
       4A    -20.168792     5A    -11.026825     6A    -11.025648
       7A    -10.921975     8A    -10.921251     9A     -1.099275
      10A     -1.048352    11A     -0.949286    12A     -0.938634
      13A     -0.728325    14A     -0.575696    15A     -0.405287
      16A     -0.397600    17A     -0.332521    18A     -0.325639
      19A     -0.302294    20A     -0.291914    21A     -0.280920
      22A     -0.258011    23A     -0.236756    24A     -0.187698
      25A     -0.175109    26A     -0.115615    27A     -0.097089
      28A     -0.089396    29A     -0.086536    30A     -0.082805
      31A     -0.063562

  @DF-RHF Final Energy:  -453.38234103184436

   => Energetics <=

    Nuclear Repulsion Energy =            337.6885394721392686
    One-Electron Energy =               -1314.7150873727910039
    Two-Electron Energy =                 523.6442068688073732
    Total Energy =                       -453.3823410318443621
  Basis Set: (AUG-CC-PVTZ AUX)
    Blend: AUG-CC-PVTZ-RI
    Molecular point group: c1

    Geometry (in Angstrom), charge = -2, multiplicity = 1:

       Center              X                  Y                   Z               Mass
    ------------   -----------------  -----------------  -----------------  -----------------
         O            2.869942106204    -0.612691832393    -0.696494109801    15.994914619570
         O           -2.214984893796    -0.956683832393     0.804112890199    15.994914619570
         O            2.200873106204     0.966724167607     0.804017890199    15.994914619570
         O           -2.884056893796     0.622508167607    -0.696591109801    15.994914619570
         C            0.539852106204    -0.528735832393    -0.099047109801    12.000000000000
         C           -0.553971893796     0.538770167607    -0.099051109801    12.000000000000
         C            2.069647506204    -0.047672032393    -0.051635609801    12.000000000000
         C           -2.015535893796     0.009486167607     0.003406890199    12.000000000000
         H            0.466216106204    -1.157241832393    -0.996858109801     1.007825032230
         H            0.342244106204    -1.187768832393     0.756944890199     1.007825032230
         H           -0.480352893796     1.167200167607    -0.996927109801     1.007825032230
         H           -0.356306893796     1.197866167607     0.756883890199     1.007825032230

  Basis Set: AUG-CC-PVTZ
    Blend: AUG-CC-PVTZ
  Basis Set: (AUG-CC-PVTZ AUX)
    Blend: AUG-CC-PVTZ-JKFIT
	 Reference Energy          =    -453.3823410318443621 [Eh]
	 Singles Energy            =      -0.0000000000000000 [Eh]
	 Same-Spin Energy          =      -0.4500860161546474 [Eh]
	 Opposite-Spin Energy      =      -1.3262909838444279 [Eh]
	 Correlation Energy        =      -1.7763769999990753 [Eh]
	 Total Energy              =    -455.1587180318434207 [Eh]

	 ================> DF-SCS-MP2 Energies <==================
	-----------------------------------------------------------
	 SCS Same-Spin Scale       =       0.3333333333333333 [-]
	 SCS Opposite-Spin Scale   =       1.2000000000000000 [-]
	 SCS Same-Spin Energy      =      -0.1500286720515491 [Eh]
	 SCS Opposite-Spin Energy  =      -1.5915491806133135 [Eh]
	 SCS Correlation Energy    =      -1.7415778526648626 [Eh]
	 SCS Total Energy          =    -455.1239188845092372 [Eh]
	-----------------------------------------------------------

  Dipole Moment: [D]
     X:     0.6531      Y:    -0.6466      Z:    -0.8940     Total:     1.2821

*** Psi4 exiting successfully. Buy a developer a beer!
