                               Psi4 1.3.2 release

  ==> Input File <==

--------------------------------------------------------------------------
#psi4
#
memory 32 gb

molecule  {
-2 1
  O        2.9385203    -0.5638878    -0.6631735
  O       -2.2079270    -0.9616680     0.8025740
  O        2.2079310     0.9617400     0.8024790
  O       -2.8769990     0.6175240    -0.6981300
  C        0.5469100    -0.5337200    -0.1005860
  C       -0.5469140     0.5337860    -0.1005900
  C        2.0084700    -0.0044810     0.0018080
  C       -2.0084780     0.0045020     0.0018680
  H        0.4732740    -1.1622260    -0.9983970
  H        0.3493020    -1.1927530     0.7554060
  H       -0.4732950     1.1622160    -0.9984660
  H       -0.3492490     1.1928820     0.7553450
units angstrom
no_reorient  #important for SAPT in psi4, default
symmetry c1  #important for SAPT in psi4, default
}

set PROPERTIES_ORIGIN ["COM"]
properties('MP2/aug-cc-pvtz', properties = ['dipole'])
--------------------------------------------------------------------------

    Molecular point group: c1
  Charge       = -2
  Multiplicity = 1
  Basis Set: AUG-CC-PVTZ
    Blend: AUG-CC-PVTZ
  Basis Set: (AUG-CC-PVTZ AUX)
    Blend: AUG-CC-PVTZ-JKFIT

    Orbital Energies [Eh]
    ---------------------

    Doubly Occupied:

       1A    -20.189899     2A    -20.187996     3A    -20.186091
       4A    -20.180961     5A    -11.030562     6A    -11.027182
       7A    -10.930919     8A    -10.928062     9A     -1.053130
      10A     -1.050895    11A     -0.953717    12A     -0.944752
      13A     -0.740658    14A     -0.587165    15A     -0.404403
      16A     -0.400901    17A     -0.332999    18A     -0.327579
      19A     -0.299354    20A     -0.286873    21A     -0.277220
      22A     -0.246641    23A     -0.236151    24A     -0.189599
      25A     -0.180801    26A     -0.111450    27A     -0.099888
      28A     -0.093024    29A     -0.089489    30A     -0.083969
      31A     -0.077956

  @DF-RHF Final Energy:  -453.39529478965574

   => Energetics <=

    Nuclear Repulsion Energy =            337.5535030406758779
    One-Electron Energy =               -1314.4370217566702195
    Two-Electron Energy =                 523.4882239263386055
    Total Energy =                       -453.3952947896557362
  Basis Set: (AUG-CC-PVTZ AUX)
    Blend: AUG-CC-PVTZ-RI
    Molecular point group: c1

    Geometry (in Angstrom), charge = -2, multiplicity = 1:

       Center              X                  Y                   Z               Mass
    ------------   -----------------  -----------------  -----------------  -----------------
         O            2.930038513601    -0.571302806435    -0.672128141971    15.994914619570
         O           -2.216408786399    -0.969083006435     0.793619358029    15.994914619570
         O            2.199449213601     0.954324993565     0.793524358029    15.994914619570
         O           -2.885480786399     0.610108993565    -0.707084641971    15.994914619570
         C            0.538428213601    -0.541135006435    -0.109540641971    12.000000000000
         C           -0.555395786399     0.526370993565    -0.109544641971    12.000000000000
         C            1.999988213601    -0.011896006435    -0.007146641971    12.000000000000
         C           -2.016959786399    -0.002913006435    -0.007086641971    12.000000000000
         H            0.464792213601    -1.169641006435    -1.007351641971     1.007825032230
         H            0.340820213601    -1.200168006435     0.746451358029     1.007825032230
         H           -0.481776786399     1.154800993565    -1.007420641971     1.007825032230
         H           -0.357730786399     1.185466993565     0.746390358029     1.007825032230

  Basis Set: AUG-CC-PVTZ
    Blend: AUG-CC-PVTZ
  Basis Set: (AUG-CC-PVTZ AUX)
    Blend: AUG-CC-PVTZ-JKFIT
	 Reference Energy          =    -453.3952947896557362 [Eh]
	 Singles Energy            =      -0.0000000000000000 [Eh]
	 Same-Spin Energy          =      -0.4505928323789070 [Eh]
	 Opposite-Spin Energy      =      -1.3274384823427787 [Eh]
	 Correlation Energy        =      -1.7780313147216857 [Eh]
	 Total Energy              =    -455.1733261043773950 [Eh]

	 ================> DF-SCS-MP2 Energies <==================
	-----------------------------------------------------------
	 SCS Same-Spin Scale       =       0.3333333333333333 [-]
	 SCS Opposite-Spin Scale   =       1.2000000000000000 [-]
	 SCS Same-Spin Energy      =      -0.1501976107929690 [Eh]
	 SCS Opposite-Spin Energy  =      -1.5929261788113345 [Eh]
	 SCS Correlation Energy    =      -1.7431237896043035 [Eh]
	 SCS Total Energy          =    -455.1384185792600192 [Eh]
	-----------------------------------------------------------

  Dipole Moment: [D]
     X:    -0.1857      Y:    -0.0736      Z:    -0.2528     Total:     0.3222

*** Psi4 exiting successfully. Buy a developer a beer!
