                               Psi4 1.3.2 release

  ==> Input File <==

--------------------------------------------------------------------------
#psi4
#
memory 32 gb

molecule  {
-2 1
  O        2.8926466    -0.6039272    -0.6903089
  O       -2.2079270    -0.9616680     0.8025740
  O        2.2079310     0.9617400     0.8024790
  O       -2.8769990     0.6175240    -0.6981300
  C        0.5469100    -0.5337200    -0.1005860
  C       -0.5469140     0.5337860    -0.1005900
  C        2.0084700    -0.0044810     0.0018080
  C       -2.0084780     0.0045020     0.0018680
  H        0.4732740    -1.1622260    -0.9983970
  H        0.3493020    -1.1927530     0.7554060
  H       -0.4732950     1.1622160    -0.9984660
  H       -0.3492490     1.1928820     0.7553450
units angstrom
no_reorient  #important for SAPT in psi4, default
symmetry c1  #important for SAPT in psi4, default
}

set PROPERTIES_ORIGIN ["COM"]
properties('MP2/aug-cc-pvtz', properties = ['dipole'])
--------------------------------------------------------------------------

    Molecular point group: c1
  Charge       = -2
  Multiplicity = 1
  Basis Set: AUG-CC-PVTZ
    Blend: AUG-CC-PVTZ
  Basis Set: (AUG-CC-PVTZ AUX)
    Blend: AUG-CC-PVTZ-JKFIT

    Orbital Energies [Eh]
    ---------------------

    Doubly Occupied:

       1A    -20.188820     2A    -20.187890     3A    -20.186871
       4A    -20.185118     5A    -11.029283     6A    -11.028425
       7A    -10.927155     8A    -10.926235     9A     -1.052275
      10A     -1.050693    11A     -0.952607    12A     -0.950389
      13A     -0.738325    14A     -0.584884    15A     -0.403357
      16A     -0.401059    17A     -0.331497    18A     -0.326980
      19A     -0.299129    20A     -0.287814    21A     -0.277064
      22A     -0.246549    23A     -0.235959    24A     -0.188241
      25A     -0.179470    26A     -0.110742    27A     -0.099533
      28A     -0.096115    29A     -0.088997    30A     -0.087140
      31A     -0.075810

  @DF-RHF Final Energy:  -453.39632044065661

   => Energetics <=

    Nuclear Repulsion Energy =            337.7401977380841345
    One-Electron Energy =               -1314.8241754942384887
    Two-Electron Energy =                 523.6876573154977450
    Total Energy =                       -453.3963204406566092
  Basis Set: (AUG-CC-PVTZ AUX)
    Blend: AUG-CC-PVTZ-RI
    Molecular point group: c1

    Geometry (in Angstrom), charge = -2, multiplicity = 1:

       Center              X                  Y                   Z               Mass
    ------------   -----------------  -----------------  -----------------  -----------------
         O            2.890489611910    -0.605821807395    -0.695522271220    15.994914619570
         O           -2.210083988090    -0.963562607395     0.797360628780    15.994914619570
         O            2.205774011910     0.959845392605     0.797265628780    15.994914619570
         O           -2.879155988090     0.615629392605    -0.703343371220    15.994914619570
         C            0.544753011910    -0.535614607395    -0.105799371220    12.000000000000
         C           -0.549070988090     0.531891392605    -0.105803371220    12.000000000000
         C            2.006313011910    -0.006375607395    -0.003405371220    12.000000000000
         C           -2.010634988090     0.002607392605    -0.003345371220    12.000000000000
         H            0.471117011910    -1.164120607395    -1.003610371220     1.007825032230
         H            0.347145011910    -1.194647607395     0.750192628780     1.007825032230
         H           -0.475451988090     1.160321392605    -1.003679371220     1.007825032230
         H           -0.351405988090     1.190987392605     0.750131628780     1.007825032230

  Basis Set: AUG-CC-PVTZ
    Blend: AUG-CC-PVTZ
  Basis Set: (AUG-CC-PVTZ AUX)
    Blend: AUG-CC-PVTZ-JKFIT
	 Reference Energy          =    -453.3963204406566092 [Eh]
	 Singles Energy            =      -0.0000000000000000 [Eh]
	 Same-Spin Energy          =      -0.4506333181559536 [Eh]
	 Opposite-Spin Energy      =      -1.3275005062087060 [Eh]
	 Correlation Energy        =      -1.7781338243646596 [Eh]
	 Total Energy              =    -455.1744542650212679 [Eh]

	 ================> DF-SCS-MP2 Energies <==================
	-----------------------------------------------------------
	 SCS Same-Spin Scale       =       0.3333333333333333 [-]
	 SCS Opposite-Spin Scale   =       1.2000000000000000 [-]
	 SCS Same-Spin Energy      =      -0.1502111060519845 [Eh]
	 SCS Opposite-Spin Energy  =      -1.5930006074504470 [Eh]
	 SCS Correlation Energy    =      -1.7432117135024316 [Eh]
	 SCS Total Energy          =    -455.1395321541590420 [Eh]
	-----------------------------------------------------------

  Dipole Moment: [D]
     X:    -0.0472      Y:    -0.0186      Z:    -0.2176     Total:     0.2235

*** Psi4 exiting successfully. Buy a developer a beer!
