                               Psi4 1.3.2 release

  ==> Input File <==

--------------------------------------------------------------------------
#psi4
#
memory 32 gb

molecule  {
-2 1
  O        2.8770000    -0.6176760    -0.6980330
  O       -2.2079270    -0.9616680     0.8025740
  O        2.2079310     0.9617400     0.8024790
  O       -2.8769990     0.6175240    -0.6981300
  C        0.5469100    -0.5337200    -0.1005860
  C       -0.5469140     0.5337860    -0.1005900
  C        2.1961143     0.0634660     0.0149540
  C       -2.0084780     0.0045020     0.0018680
  H        0.4732740    -1.1622260    -0.9983970
  H        0.3493020    -1.1927530     0.7554060
  H       -0.4732950     1.1622160    -0.9984660
  H       -0.3492490     1.1928820     0.7553450
units angstrom
no_reorient  #important for SAPT in psi4, default
symmetry c1  #important for SAPT in psi4, default
}

set PROPERTIES_ORIGIN ["COM"]
properties('MP2/aug-cc-pvtz', properties = ['dipole'])
--------------------------------------------------------------------------

    Molecular point group: c1
  Charge       = -2
  Multiplicity = 1
  Basis Set: AUG-CC-PVTZ
    Blend: AUG-CC-PVTZ
  Basis Set: (AUG-CC-PVTZ AUX)
    Blend: AUG-CC-PVTZ-JKFIT

    Orbital Energies [Eh]
    ---------------------

    Doubly Occupied:

       1A    -20.205677     2A    -20.204921     3A    -20.178547
       4A    -20.175574     5A    -11.035685     6A    -11.016754
       7A    -10.910661     8A    -10.897175     9A     -1.104766
      10A     -1.040660    11A     -1.024346    12A     -0.941676
      13A     -0.707699    14A     -0.543683    15A     -0.404393
      16A     -0.388852    17A     -0.331637    18A     -0.329753
      19A     -0.312052    20A     -0.293628    21A     -0.282851
      22A     -0.264754    23A     -0.231473    24A     -0.177038
      25A     -0.167138    26A     -0.134572    27A     -0.122795
      28A     -0.093830    29A     -0.084241    30A     -0.078740
      31A     -0.023832

  @DF-RHF Final Energy:  -453.36776508117924

   => Energetics <=

    Nuclear Repulsion Energy =            337.5275608934169895
    One-Electron Energy =               -1314.3718492384100500
    Two-Electron Energy =                 523.4765232638138741
    Total Energy =                       -453.3677650811791864
  Basis Set: (AUG-CC-PVTZ AUX)
    Blend: AUG-CC-PVTZ-RI
    Molecular point group: c1

    Geometry (in Angstrom), charge = -2, multiplicity = 1:

       Center              X                  Y                   Z               Mass
    ------------   -----------------  -----------------  -----------------  -----------------
         O            2.857590628230    -0.624703339036    -0.703541219917    15.994914619570
         O           -2.227336371770    -0.968695339036     0.797065780083    15.994914619570
         O            2.188521628230     0.954712660964     0.796970780083    15.994914619570
         O           -2.896408371770     0.610496660964    -0.703638219917    15.994914619570
         C            0.527500628230    -0.540747339036    -0.106094219917    12.000000000000
         C           -0.566323371770     0.526758660964    -0.106098219917    12.000000000000
         C            2.176704928230     0.056438660964     0.009445780083    12.000000000000
         C           -2.027887371770    -0.002525339036    -0.003640219917    12.000000000000
         H            0.453864628230    -1.169253339036    -1.003905219917     1.007825032230
         H            0.329892628230    -1.199780339036     0.749897780083     1.007825032230
         H           -0.492704371770     1.155188660964    -1.003974219917     1.007825032230
         H           -0.368658371770     1.185854660964     0.749836780083     1.007825032230

  Basis Set: AUG-CC-PVTZ
    Blend: AUG-CC-PVTZ
  Basis Set: (AUG-CC-PVTZ AUX)
    Blend: AUG-CC-PVTZ-JKFIT
	 Reference Energy          =    -453.3677650811792432 [Eh]
	 Singles Energy            =      -0.0000000000000000 [Eh]
	 Same-Spin Energy          =      -0.4500845316148157 [Eh]
	 Opposite-Spin Energy      =      -1.3249216454806403 [Eh]
	 Correlation Energy        =      -1.7750061770954559 [Eh]
	 Total Energy              =    -455.1427712582747063 [Eh]

	 ================> DF-SCS-MP2 Energies <==================
	-----------------------------------------------------------
	 SCS Same-Spin Scale       =       0.3333333333333333 [-]
	 SCS Opposite-Spin Scale   =       1.2000000000000000 [-]
	 SCS Same-Spin Energy      =      -0.1500281772049386 [Eh]
	 SCS Opposite-Spin Energy  =      -1.5899059745767683 [Eh]
	 SCS Correlation Energy    =      -1.7399341517817069 [Eh]
	 SCS Total Energy          =    -455.1076992329609539 [Eh]
	-----------------------------------------------------------

  Dipole Moment: [D]
     X:     1.6474      Y:     0.4153      Z:    -0.1097     Total:     1.7025

*** Psi4 exiting successfully. Buy a developer a beer!
