                               Psi4 1.3.2 release

  ==> Input File <==

--------------------------------------------------------------------------
#psi4
#
memory 32 gb

molecule  {
-2 1
  O        2.8770000    -0.6176760    -0.6980330
  O       -2.2079270    -0.9616680     0.8025740
  O        2.2079310     0.9617400     0.8024790
  O       -2.8769990     0.6175240    -0.6981300
  C        0.5469100    -0.5337200    -0.1005860
  C       -0.4699825     0.6072836    -0.0928108
  C        2.0084700    -0.0044810     0.0018080
  C       -2.0084780     0.0045020     0.0018680
  H        0.4732740    -1.1622260    -0.9983970
  H        0.3493020    -1.1927530     0.7554060
  H       -0.4732950     1.1622160    -0.9984660
  H       -0.3492490     1.1928820     0.7553450
units angstrom
no_reorient  #important for SAPT in psi4, default
symmetry c1  #important for SAPT in psi4, default
}

set PROPERTIES_ORIGIN ["COM"]
properties('MP2/aug-cc-pvtz', properties = ['dipole'])
--------------------------------------------------------------------------

    Molecular point group: c1
  Charge       = -2
  Multiplicity = 1
  Basis Set: AUG-CC-PVTZ
    Blend: AUG-CC-PVTZ
  Basis Set: (AUG-CC-PVTZ AUX)
    Blend: AUG-CC-PVTZ-JKFIT

    Orbital Energies [Eh]
    ---------------------

    Doubly Occupied:

       1A    -20.189582     2A    -20.188421     3A    -20.186354
       4A    -20.184731     5A    -11.031614     6A    -11.025492
       7A    -10.924576     8A    -10.920640     9A     -1.050276
      10A     -1.048820    11A     -0.951984    12A     -0.950524
      13A     -0.735418    14A     -0.578923    15A     -0.402737
      16A     -0.394695    17A     -0.338998    18A     -0.322727
      19A     -0.294480    20A     -0.287201    21A     -0.271944
      22A     -0.247485    23A     -0.238035    24A     -0.200506
      25A     -0.187675    26A     -0.109111    27A     -0.099867
      28A     -0.093874    29A     -0.088926    30A     -0.086724
      31A     -0.061045

  @DF-RHF Final Energy:  -453.38721532437199

   => Energetics <=

    Nuclear Repulsion Energy =            337.1159506338685219
    One-Electron Energy =               -1313.6195593863524209
    Two-Electron Energy =                 523.1163934281119055
    Total Energy =                       -453.3872153243719367
  Basis Set: (AUG-CC-PVTZ AUX)
    Blend: AUG-CC-PVTZ-RI
    Molecular point group: c1

    Geometry (in Angstrom), charge = -2, multiplicity = 1:

       Center              X                  Y                   Z               Mass
    ------------   -----------------  -----------------  -----------------  -----------------
         O            2.869042594630    -0.625277484796    -0.702986086154    15.994914619570
         O           -2.215884405370    -0.969269484796     0.797620913846    15.994914619570
         O            2.199973594630     0.954138515204     0.797525913846    15.994914619570
         O           -2.884956405370     0.609922515204    -0.703083086154    15.994914619570
         C            0.538952594630    -0.541321484796    -0.105539086154    12.000000000000
         C           -0.477939905370     0.599682115204    -0.097763886154    12.000000000000
         C            2.000512594630    -0.012082484796    -0.003145086154    12.000000000000
         C           -2.016435405370    -0.003099484796    -0.003085086154    12.000000000000
         H            0.465316594630    -1.169827484796    -1.003350086154     1.007825032230
         H            0.341344594630    -1.200354484796     0.750452913846     1.007825032230
         H           -0.481252405370     1.154614515204    -1.003419086154     1.007825032230
         H           -0.357206405370     1.185280515204     0.750391913846     1.007825032230

  Basis Set: AUG-CC-PVTZ
    Blend: AUG-CC-PVTZ
  Basis Set: (AUG-CC-PVTZ AUX)
    Blend: AUG-CC-PVTZ-JKFIT
	 Reference Energy          =    -453.3872153243719936 [Eh]
	 Singles Energy            =      -0.0000000000000000 [Eh]
	 Same-Spin Energy          =      -0.4507607787230291 [Eh]
	 Opposite-Spin Energy      =      -1.3278377196141484 [Eh]
	 Correlation Energy        =      -1.7785984983371774 [Eh]
	 Total Energy              =    -455.1658138227091968 [Eh]

	 ================> DF-SCS-MP2 Energies <==================
	-----------------------------------------------------------
	 SCS Same-Spin Scale       =       0.3333333333333333 [-]
	 SCS Opposite-Spin Scale   =       1.2000000000000000 [-]
	 SCS Same-Spin Energy      =      -0.1502535929076764 [Eh]
	 SCS Opposite-Spin Energy  =      -1.5934052635369780 [Eh]
	 SCS Correlation Energy    =      -1.7436588564446542 [Eh]
	 SCS Total Energy          =    -455.1308741808166474 [Eh]
	-----------------------------------------------------------

  Dipole Moment: [D]
     X:    -0.0971      Y:     0.0472      Z:    -0.1757     Total:     0.2062

*** Psi4 exiting successfully. Buy a developer a beer!
