                               Psi4 1.3.2 release

  ==> Input File <==

--------------------------------------------------------------------------
#psi4
#
memory 32 gb

molecule  {
-2 1
  O        2.8610888    -0.6312380    -0.7055439
  O       -2.2079270    -0.9616680     0.8025740
  O        2.2079310     0.9617400     0.8024790
  O       -2.8769990     0.6175240    -0.6981300
  C        0.5469100    -0.5337200    -0.1005860
  C       -0.5469140     0.5337860    -0.1005900
  C        2.0084700    -0.0044810     0.0018080
  C       -2.0084780     0.0045020     0.0018680
  H        0.4732740    -1.1622260    -0.9983970
  H        0.3493020    -1.1927530     0.7554060
  H       -0.4732950     1.1622160    -0.9984660
  H       -0.3492490     1.1928820     0.7553450
units angstrom
no_reorient  #important for SAPT in psi4, default
symmetry c1  #important for SAPT in psi4, default
}

set PROPERTIES_ORIGIN ["COM"]
properties('MP2/aug-cc-pvtz', properties = ['dipole'])
--------------------------------------------------------------------------

    Molecular point group: c1
  Charge       = -2
  Multiplicity = 1
  Basis Set: AUG-CC-PVTZ
    Blend: AUG-CC-PVTZ
  Basis Set: (AUG-CC-PVTZ AUX)
    Blend: AUG-CC-PVTZ-JKFIT

    Orbital Energies [Eh]
    ---------------------

    Doubly Occupied:

       1A    -20.188994     2A    -20.188068     3A    -20.187833
       4A    -20.186087     5A    -11.029260     6A    -11.028390
       7A    -10.925234     8A    -10.924312     9A     -1.051975
      10A     -1.050374    11A     -0.954016    12A     -0.951826
      13A     -0.736705    14A     -0.583303    15A     -0.402905
      16A     -0.400924    17A     -0.330498    18A     -0.326532
      19A     -0.299149    20A     -0.288362    21A     -0.276813
      22A     -0.246510    23A     -0.235731    24A     -0.187295
      25A     -0.178553    26A     -0.110545    27A     -0.100597
      28A     -0.096489    29A     -0.089746    30A     -0.087928
      31A     -0.073986

  @DF-RHF Final Energy:  -453.39602899743886

   => Energetics <=

    Nuclear Repulsion Energy =            337.8887501362193575
    One-Electron Energy =               -1315.1316777519157313
    Two-Electron Energy =                 523.8468986182574554
    Total Energy =                       -453.3960289974388616
  Basis Set: (AUG-CC-PVTZ AUX)
    Blend: AUG-CC-PVTZ-RI
    Molecular point group: c1

    Geometry (in Angstrom), charge = -2, multiplicity = 1:

       Center              X                  Y                   Z               Mass
    ------------   -----------------  -----------------  -----------------  -----------------
         O            2.863282817389    -0.629367153516    -0.708656758241    15.994914619570
         O           -2.205732982611    -0.959797153516     0.799461141759    15.994914619570
         O            2.210125017389     0.963610846484     0.799366141759    15.994914619570
         O           -2.874804982611     0.619394846484    -0.701242858241    15.994914619570
         C            0.549104017389    -0.531849153516    -0.103698858241    12.000000000000
         C           -0.544719982611     0.535656846484    -0.103702858241    12.000000000000
         C            2.010664017389    -0.002610153516    -0.001304858241    12.000000000000
         C           -2.006283982611     0.006372846484    -0.001244858241    12.000000000000
         H            0.475468017389    -1.160355153516    -1.001509858241     1.007825032230
         H            0.351496017389    -1.190882153516     0.752293141759     1.007825032230
         H           -0.471100982611     1.164086846484    -1.001578858241     1.007825032230
         H           -0.347054982611     1.194752846484     0.752232141759     1.007825032230

  Basis Set: AUG-CC-PVTZ
    Blend: AUG-CC-PVTZ
  Basis Set: (AUG-CC-PVTZ AUX)
    Blend: AUG-CC-PVTZ-JKFIT
	 Reference Energy          =    -453.3960289974388616 [Eh]
	 Singles Energy            =      -0.0000000000000000 [Eh]
	 Same-Spin Energy          =      -0.4507005394356276 [Eh]
	 Opposite-Spin Energy      =      -1.3276201847206672 [Eh]
	 Correlation Energy        =      -1.7783207241562948 [Eh]
	 Total Energy              =    -455.1743497215951493 [Eh]

	 ================> DF-SCS-MP2 Energies <==================
	-----------------------------------------------------------
	 SCS Same-Spin Scale       =       0.3333333333333333 [-]
	 SCS Opposite-Spin Scale   =       1.2000000000000000 [-]
	 SCS Same-Spin Energy      =      -0.1502335131452092 [Eh]
	 SCS Opposite-Spin Energy  =      -1.5931442216648006 [Eh]
	 SCS Correlation Energy    =      -1.7433777348100099 [Eh]
	 SCS Total Energy          =    -455.1394067322488581 [Eh]
	-----------------------------------------------------------

  Dipole Moment: [D]
     X:     0.0476      Y:     0.0185      Z:    -0.1976     Total:     0.2041

*** Psi4 exiting successfully. Buy a developer a beer!
