                               Psi4 1.3.2 release

  ==> Input File <==

--------------------------------------------------------------------------
#psi4
#
memory 32 gb

molecule  {
-2 1
  O        2.7777368    -0.6961037    -0.7398230
  O       -2.2079270    -0.9616680     0.8025740
  O        2.2079310     0.9617400     0.8024790
  O       -2.8769990     0.6175240    -0.6981300
  C        0.5469100    -0.5337200    -0.1005860
  C       -0.5469140     0.5337860    -0.1005900
  C        2.0084700    -0.0044810     0.0018080
  C       -2.0084780     0.0045020     0.0018680
  H        0.4732740    -1.1622260    -0.9983970
  H        0.3493020    -1.1927530     0.7554060
  H       -0.4732950     1.1622160    -0.9984660
  H       -0.3492490     1.1928820     0.7553450
units angstrom
no_reorient  #important for SAPT in psi4, default
symmetry c1  #important for SAPT in psi4, default
}

set PROPERTIES_ORIGIN ["COM"]
properties('MP2/aug-cc-pvtz', properties = ['dipole'])
--------------------------------------------------------------------------

    Molecular point group: c1
  Charge       = -2
  Multiplicity = 1
  Basis Set: AUG-CC-PVTZ
    Blend: AUG-CC-PVTZ
  Basis Set: (AUG-CC-PVTZ AUX)
    Blend: AUG-CC-PVTZ-JKFIT

    Orbital Energies [Eh]
    ---------------------

    Doubly Occupied:

       1A    -20.194417     2A    -20.191432     3A    -20.186072
       4A    -20.184012     5A    -11.031364     6A    -11.026018
       7A    -10.921822     8A    -10.917717     9A     -1.052395
      10A     -1.048677    11A     -0.962640    12A     -0.949773
      13A     -0.732423    14A     -0.579137    15A     -0.403182
      16A     -0.399211    17A     -0.328159    18A     -0.325125
      19A     -0.299932    20A     -0.289035    21A     -0.275897
      22A     -0.246495    23A     -0.234880    24A     -0.184843
      25A     -0.176209    26A     -0.112067    27A     -0.102526
      28A     -0.096431    29A     -0.093094    30A     -0.086232
      31A     -0.068481

  @DF-RHF Final Energy:  -453.39184520083501

   => Energetics <=

    Nuclear Repulsion Energy =            338.3513261406913557
    One-Electron Energy =               -1316.0869473311001911
    Two-Electron Energy =                 524.3437759895738282
    Total Energy =                       -453.3918452008350641
  Basis Set: (AUG-CC-PVTZ AUX)
    Blend: AUG-CC-PVTZ-RI
    Molecular point group: c1

    Geometry (in Angstrom), charge = -2, multiplicity = 1:

       Center              X                  Y                   Z               Mass
    ------------   -----------------  -----------------  -----------------  -----------------
         O            2.791422905200    -0.685289548972    -0.738209655783    15.994914619570
         O           -2.194240894800    -0.950853848972     0.804187344217    15.994914619570
         O            2.221617105200     0.972554151028     0.804092344217    15.994914619570
         O           -2.863312894800     0.628338151028    -0.696516655783    15.994914619570
         C            0.560596105200    -0.522905848972    -0.098972655783    12.000000000000
         C           -0.533227894800     0.544600151028    -0.098976655783    12.000000000000
         C            2.022156105200     0.006333151028     0.003421344217    12.000000000000
         C           -1.994791894800     0.015316151028     0.003481344217    12.000000000000
         H            0.486960105200    -1.151411848972    -0.996783655783     1.007825032230
         H            0.362988105200    -1.181938848972     0.757019344217     1.007825032230
         H           -0.459608894800     1.173030151028    -0.996852655783     1.007825032230
         H           -0.335562894800     1.203696151028     0.756958344217     1.007825032230

  Basis Set: AUG-CC-PVTZ
    Blend: AUG-CC-PVTZ
  Basis Set: (AUG-CC-PVTZ AUX)
    Blend: AUG-CC-PVTZ-JKFIT
	 Reference Energy          =    -453.3918452008350073 [Eh]
	 Singles Energy            =      -0.0000000000000000 [Eh]
	 Same-Spin Energy          =      -0.4510143011822337 [Eh]
	 Opposite-Spin Energy      =      -1.3281921190384873 [Eh]
	 Correlation Energy        =      -1.7792064202207212 [Eh]
	 Total Energy              =    -455.1710516210557103 [Eh]

	 ================> DF-SCS-MP2 Energies <==================
	-----------------------------------------------------------
	 SCS Same-Spin Scale       =       0.3333333333333333 [-]
	 SCS Opposite-Spin Scale   =       1.2000000000000000 [-]
	 SCS Same-Spin Energy      =      -0.1503381003940779 [Eh]
	 SCS Opposite-Spin Energy  =      -1.5938305428461848 [Eh]
	 SCS Correlation Energy    =      -1.7441686432402626 [Eh]
	 SCS Total Energy          =    -455.1360138440752507 [Eh]
	-----------------------------------------------------------

  Dipole Moment: [D]
     X:     0.2930      Y:     0.1048      Z:    -0.1528     Total:     0.3467

*** Psi4 exiting successfully. Buy a developer a beer!
