                               Psi4 1.3.2 release

  ==> Input File <==

--------------------------------------------------------------------------
#psi4
#
memory 32 gb

molecule  {
-2 1
  O        2.7768850    -0.6926790    -0.7438808
  O       -2.2079270    -0.9616680     0.8025740
  O        2.2079310     0.9617400     0.8024790
  O       -2.8769990     0.6175240    -0.6981300
  C        0.5469100    -0.5337200    -0.1005860
  C       -0.5469140     0.5337860    -0.1005900
  C        2.0084700    -0.0044810     0.0018080
  C       -2.0084780     0.0045020     0.0018680
  H        0.4732740    -1.1622260    -0.9983970
  H        0.3493020    -1.1927530     0.7554060
  H       -0.4732950     1.1622160    -0.9984660
  H       -0.3492490     1.1928820     0.7553450
units angstrom
no_reorient  #important for SAPT in psi4, default
symmetry c1  #important for SAPT in psi4, default
}

set PROPERTIES_ORIGIN ["COM"]
properties('MP2/aug-cc-pvtz', properties = ['dipole'])
--------------------------------------------------------------------------

    Molecular point group: c1
  Charge       = -2
  Multiplicity = 1
  Basis Set: AUG-CC-PVTZ
    Blend: AUG-CC-PVTZ
  Basis Set: (AUG-CC-PVTZ AUX)
    Blend: AUG-CC-PVTZ-JKFIT

    Orbital Energies [Eh]
    ---------------------

    Doubly Occupied:

       1A    -20.194411     2A    -20.191436     3A    -20.186073
       4A    -20.184011     5A    -11.031361     6A    -11.026022
       7A    -10.921841     8A    -10.917697     9A     -1.052391
      10A     -1.048677    11A     -0.962644    12A     -0.949773
      13A     -0.732419    14A     -0.579140    15A     -0.403176
      16A     -0.399214    17A     -0.328150    18A     -0.325119
      19A     -0.299920    20A     -0.289052    21A     -0.275879
      22A     -0.246471    23A     -0.234913    24A     -0.184825
      25A     -0.176235    26A     -0.112050    27A     -0.102522
      28A     -0.096432    29A     -0.093088    30A     -0.086231
      31A     -0.068485

  @DF-RHF Final Energy:  -453.39184351648629

   => Energetics <=

    Nuclear Repulsion Energy =            338.3552494411447356
    One-Electron Energy =               -1316.0948687397838057
    Two-Electron Energy =                 524.3477757821528940
    Total Energy =                       -453.3918435164862331
  Basis Set: (AUG-CC-PVTZ AUX)
    Blend: AUG-CC-PVTZ-RI
    Molecular point group: c1

    Geometry (in Angstrom), charge = -2, multiplicity = 1:

       Center              X                  Y                   Z               Mass
    ------------   -----------------  -----------------  -----------------  -----------------
         O            2.790688546418    -0.682337026642    -0.741707989977    15.994914619570
         O           -2.194123453582    -0.951326026642     0.804746810023    15.994914619570
         O            2.221734546418     0.972081973358     0.804651810023    15.994914619570
         O           -2.863195453582     0.627865973358    -0.695957189977    15.994914619570
         C            0.560713546418    -0.523378026642    -0.098413189977    12.000000000000
         C           -0.533110453582     0.544127973358    -0.098417189977    12.000000000000
         C            2.022273546418     0.005860973358     0.003980810023    12.000000000000
         C           -1.994674453582     0.014843973358     0.004040810023    12.000000000000
         H            0.487077546418    -1.151884026642    -0.996224189977     1.007825032230
         H            0.363105546418    -1.182411026642     0.757578810023     1.007825032230
         H           -0.459491453582     1.172557973358    -0.996293189977     1.007825032230
         H           -0.335445453582     1.203223973358     0.757517810023     1.007825032230

  Basis Set: AUG-CC-PVTZ
    Blend: AUG-CC-PVTZ
  Basis Set: (AUG-CC-PVTZ AUX)
    Blend: AUG-CC-PVTZ-JKFIT
	 Reference Energy          =    -453.3918435164862899 [Eh]
	 Singles Energy            =      -0.0000000000000000 [Eh]
	 Same-Spin Energy          =      -0.4510151844196323 [Eh]
	 Opposite-Spin Energy      =      -1.3281917871726407 [Eh]
	 Correlation Energy        =      -1.7792069715922731 [Eh]
	 Total Energy              =    -455.1710504880785493 [Eh]

	 ================> DF-SCS-MP2 Energies <==================
	-----------------------------------------------------------
	 SCS Same-Spin Scale       =       0.3333333333333333 [-]
	 SCS Opposite-Spin Scale   =       1.2000000000000000 [-]
	 SCS Same-Spin Energy      =      -0.1503383948065441 [Eh]
	 SCS Opposite-Spin Energy  =      -1.5938301446071688 [Eh]
	 SCS Correlation Energy    =      -1.7441685394137130 [Eh]
	 SCS Total Energy          =    -455.1360120558999824 [Eh]
	-----------------------------------------------------------

  Dipole Moment: [D]
     X:     0.2936      Y:     0.1008      Z:    -0.1482     Total:     0.3440

*** Psi4 exiting successfully. Buy a developer a beer!
