                               Psi4 1.3.2 release

  ==> Input File <==

--------------------------------------------------------------------------
#psi4
#
memory 32 gb

molecule  {
-2 1
  O        2.8770000    -0.6176760    -0.6980330
  O       -2.2079270    -0.9616680     0.8025740
  O        2.2079310     0.9617400     0.8024790
  O       -2.8769990     0.6175240    -0.6981300
  C        0.5469100    -0.5337200    -0.1005860
  C       -0.5469140     0.5337860    -0.1005900
  C        1.9146479    -0.0384545    -0.0047650
  C       -2.0084780     0.0045020     0.0018680
  H        0.4732740    -1.1622260    -0.9983970
  H        0.3493020    -1.1927530     0.7554060
  H       -0.4732950     1.1622160    -0.9984660
  H       -0.3492490     1.1928820     0.7553450
units angstrom
no_reorient  #important for SAPT in psi4, default
symmetry c1  #important for SAPT in psi4, default
}

set PROPERTIES_ORIGIN ["COM"]
properties('MP2/aug-cc-pvtz', properties = ['dipole'])
--------------------------------------------------------------------------

    Molecular point group: c1
  Charge       = -2
  Multiplicity = 1
  Basis Set: AUG-CC-PVTZ
    Blend: AUG-CC-PVTZ
  Basis Set: (AUG-CC-PVTZ AUX)
    Blend: AUG-CC-PVTZ-JKFIT

    Orbital Energies [Eh]
    ---------------------

    Doubly Occupied:

       1A    -20.192511     2A    -20.190928     3A    -20.185343
       4A    -20.182692     5A    -11.033639     6A    -11.033305
       7A    -10.932900     8A    -10.932282     9A     -1.055706
      10A     -1.025189    11A     -0.956508    12A     -0.919956
      13A     -0.756276    14A     -0.607201    15A     -0.411243
      16A     -0.406203    17A     -0.341076    18A     -0.326031
      19A     -0.300997    20A     -0.286807    21A     -0.271797
      22A     -0.242938    23A     -0.229648    24A     -0.187694
      25A     -0.175963    26A     -0.114045    27A     -0.102912
      28A     -0.093566    29A     -0.091464    30A     -0.082029
      31A     -0.075114

  @DF-RHF Final Energy:  -453.37948856349095

   => Energetics <=

    Nuclear Repulsion Energy =            337.9679920287483128
    One-Electron Energy =               -1315.2070306425118815
    Two-Electron Energy =                 523.8595500502726736
    Total Energy =                       -453.3794885634908951
  Basis Set: (AUG-CC-PVTZ AUX)
    Blend: AUG-CC-PVTZ-RI
    Molecular point group: c1

    Geometry (in Angstrom), charge = -2, multiplicity = 1:

       Center              X                  Y                   Z               Mass
    ------------   -----------------  -----------------  -----------------  -----------------
         O            2.886705091558    -0.614160834994    -0.701501516058    15.994914619570
         O           -2.198221908442    -0.958152834994     0.799105483942    15.994914619570
         O            2.217636091558     0.965255165006     0.799010483942    15.994914619570
         O           -2.867293908442     0.621039165006    -0.701598516058    15.994914619570
         C            0.556615091558    -0.530204834994    -0.104054516058    12.000000000000
         C           -0.537208908442     0.537301165006    -0.104058516058    12.000000000000
         C            1.924352991558    -0.034939334994    -0.008233516058    12.000000000000
         C           -1.998772908442     0.008017165006    -0.001600516058    12.000000000000
         H            0.482979091558    -1.158710834994    -1.001865516058     1.007825032230
         H            0.359007091558    -1.189237834994     0.751937483942     1.007825032230
         H           -0.463589908442     1.165731165006    -1.001934516058     1.007825032230
         H           -0.339543908442     1.196397165006     0.751876483942     1.007825032230

  Basis Set: AUG-CC-PVTZ
    Blend: AUG-CC-PVTZ
  Basis Set: (AUG-CC-PVTZ AUX)
    Blend: AUG-CC-PVTZ-JKFIT
	 Reference Energy          =    -453.3794885634909519 [Eh]
	 Singles Energy            =      -0.0000000000000000 [Eh]
	 Same-Spin Energy          =      -0.4528236085029047 [Eh]
	 Opposite-Spin Energy      =      -1.3321245928109975 [Eh]
	 Correlation Energy        =      -1.7849482013139022 [Eh]
	 Total Energy              =    -455.1644367648048615 [Eh]

	 ================> DF-SCS-MP2 Energies <==================
	-----------------------------------------------------------
	 SCS Same-Spin Scale       =       0.3333333333333333 [-]
	 SCS Opposite-Spin Scale   =       1.2000000000000000 [-]
	 SCS Same-Spin Energy      =      -0.1509412028343016 [Eh]
	 SCS Opposite-Spin Energy  =      -1.5985495113731969 [Eh]
	 SCS Correlation Energy    =      -1.7494907142074985 [Eh]
	 SCS Total Energy          =    -455.1289792776984768 [Eh]
	-----------------------------------------------------------

  Dipole Moment: [D]
     X:    -0.6705      Y:    -0.1603      Z:    -0.2362     Total:     0.7287

*** Psi4 exiting successfully. Buy a developer a beer!
