                               Psi4 1.3.2 release

  ==> Input File <==

--------------------------------------------------------------------------
#psi4
#
memory 32 gb

molecule  {
-2 1
  O        2.8770000    -0.6176760    -0.6980330
  O       -2.2079270    -0.9616680     0.8025740
  O        2.2079310     0.9617400     0.8024790
  O       -2.8769990     0.6175240    -0.6981300
  C        0.5469100    -0.5337200    -0.1005860
  C       -0.5281665     0.5526624    -0.0986437
  C        2.0084700    -0.0044810     0.0018080
  C       -2.0084780     0.0045020     0.0018680
  H        0.4732740    -1.1622260    -0.9983970
  H        0.3493020    -1.1927530     0.7554060
  H       -0.4732950     1.1622160    -0.9984660
  H       -0.3492490     1.1928820     0.7553450
units angstrom
no_reorient  #important for SAPT in psi4, default
symmetry c1  #important for SAPT in psi4, default
}

set PROPERTIES_ORIGIN ["COM"]
properties('MP2/aug-cc-pvtz', properties = ['dipole'])
--------------------------------------------------------------------------

    Molecular point group: c1
  Charge       = -2
  Multiplicity = 1
  Basis Set: AUG-CC-PVTZ
    Blend: AUG-CC-PVTZ
  Basis Set: (AUG-CC-PVTZ AUX)
    Blend: AUG-CC-PVTZ-JKFIT

    Orbital Energies [Eh]
    ---------------------

    Doubly Occupied:

       1A    -20.188721     2A    -20.187885     3A    -20.186965
       4A    -20.186004     5A    -11.029642     6A    -11.027945
       7A    -10.925385     8A    -10.924121     9A     -1.051572
      10A     -1.050072    11A     -0.952154    12A     -0.951733
      13A     -0.736849    14A     -0.582385    15A     -0.403119
      16A     -0.399274    17A     -0.332605    18A     -0.325783
      19A     -0.297624    20A     -0.287854    21A     -0.275851
      22A     -0.246592    23A     -0.236564    24A     -0.190512
      25A     -0.182230    26A     -0.110171    27A     -0.099994
      28A     -0.095789    29A     -0.088947    30A     -0.087628
      31A     -0.071861

  @DF-RHF Final Energy:  -453.39584742711270

   => Energetics <=

    Nuclear Repulsion Energy =            337.6293828568294657
    One-Electron Energy =               -1314.6228022443249301
    Two-Electron Energy =                 523.5975719603827656
    Total Energy =                       -453.3958474271126988
  Basis Set: (AUG-CC-PVTZ AUX)
    Blend: AUG-CC-PVTZ-RI
    Molecular point group: c1

    Geometry (in Angstrom), charge = -2, multiplicity = 1:

       Center              X                  Y                   Z               Mass
    ------------   -----------------  -----------------  -----------------  -----------------
         O            2.875061060544    -0.619627549584    -0.702382739705    15.994914619570
         O           -2.209865939456    -0.963619549584     0.798224260295    15.994914619570
         O            2.205992060544     0.959788450416     0.798129260295    15.994914619570
         O           -2.878937939456     0.615572450416    -0.702479739705    15.994914619570
         C            0.544971060544    -0.535671549584    -0.104935739705    12.000000000000
         C           -0.530105439456     0.550710850416    -0.102993439705    12.000000000000
         C            2.006531060544    -0.006432549584    -0.002541739705    12.000000000000
         C           -2.010416939456     0.002550450416    -0.002481739705    12.000000000000
         H            0.471335060544    -1.164177549584    -1.002746739705     1.007825032230
         H            0.347363060544    -1.194704549584     0.751056260295     1.007825032230
         H           -0.475233939456     1.160264450416    -1.002815739705     1.007825032230
         H           -0.351187939456     1.190930450416     0.750995260295     1.007825032230

  Basis Set: AUG-CC-PVTZ
    Blend: AUG-CC-PVTZ
  Basis Set: (AUG-CC-PVTZ AUX)
    Blend: AUG-CC-PVTZ-JKFIT
	 Reference Energy          =    -453.3958474271126988 [Eh]
	 Singles Energy            =      -0.0000000000000000 [Eh]
	 Same-Spin Energy          =      -0.4505994754867724 [Eh]
	 Opposite-Spin Energy      =      -1.3274548063039135 [Eh]
	 Correlation Energy        =      -1.7780542817906859 [Eh]
	 Total Energy              =    -455.1739017089033723 [Eh]

	 ================> DF-SCS-MP2 Energies <==================
	-----------------------------------------------------------
	 SCS Same-Spin Scale       =       0.3333333333333333 [-]
	 SCS Opposite-Spin Scale   =       1.2000000000000000 [-]
	 SCS Same-Spin Energy      =      -0.1501998251622574 [Eh]
	 SCS Opposite-Spin Energy  =      -1.5929457675646963 [Eh]
	 SCS Correlation Energy    =      -1.7431455927269537 [Eh]
	 SCS Total Energy          =    -455.1389930198396314 [Eh]
	-----------------------------------------------------------

  Dipole Moment: [D]
     X:    -0.0253      Y:     0.0150      Z:    -0.2000     Total:     0.2022

*** Psi4 exiting successfully. Buy a developer a beer!
