                               Psi4 1.4a3.dev225

  ==> Input File <==

--------------------------------------------------------------------------
#psi4
#
memory 32 gb

molecule  {
-2 1
  O        2.8298160     0.5705000    -0.7641870
  O       -2.1982280     0.9008650     0.8437030
  O        2.1982240    -0.9008500     0.8437280
  O       -2.8298110    -0.5705100    -0.7641920
  C        0.5292590     0.5488480    -0.0770140
  C       -0.5292600    -0.5488530    -0.0770000
  C        2.0232621     0.0057902     0.0025680
  C       -1.9763290    -0.0228500     0.0000600
  H        0.3427640     1.1908230     0.7923510
  H        0.4272740     1.1816370    -0.9669330
  H       -0.3427680    -1.1908020     0.7923850
  H       -0.4272710    -1.1816680    -0.9669000
units angstrom
no_reorient  #important for SAPT in psi4, default
symmetry c1  #important for SAPT in psi4, default
}

set PROPERTIES_ORIGIN ["COM"]
properties('MP2/aug-cc-pvtz', properties = ['dipole'])
--------------------------------------------------------------------------

    Molecular point group: c1
  Charge       = -2
  Multiplicity = 1
  Basis Set: AUG-CC-PVTZ
    Blend: AUG-CC-PVTZ
  Basis Set: (AUG-CC-PVTZ AUX)
    Blend: AUG-CC-PVTZ-JKFIT

    Orbital Energies [Eh]
    ---------------------

    Doubly Occupied:

       1A    -20.188892     2A    -20.185814     3A    -20.184333
       4A    -20.180748     5A    -11.023757     6A    -11.022221
       7A    -10.920463     8A    -10.918926     9A     -1.064430
      10A     -1.048889    11A     -0.967369    12A     -0.947912
      13A     -0.733002    14A     -0.576087    15A     -0.401219
      16A     -0.397190    17A     -0.328573    18A     -0.327458
      19A     -0.299366    20A     -0.290766    21A     -0.276267
      22A     -0.248190    23A     -0.238673    24A     -0.187447
      25A     -0.178748    26A     -0.110688    27A     -0.098860
      28A     -0.095178    29A     -0.091321    30A     -0.084309
      31A     -0.066071

  @DF-RHF Final Energy:  -453.39764808385843

   => Energetics <=

    Nuclear Repulsion Energy =            339.9426722521315014
    One-Electron Energy =               -1319.3143072195387049
    Two-Electron Energy =                 525.9739868835487187
    Total Energy =                       -453.3976480838584848
  Basis Set: (AUG-CC-PVTZ AUX)
    Blend: AUG-CC-PVTZ-RI
    Molecular point group: c1

    Geometry (in Angstrom), charge = -2, multiplicity = 1:

       Center              X                  Y                   Z               Mass
    ------------   -----------------  -----------------  -----------------  -----------------
         O            2.824961284602     0.572264554885    -0.767424301625    15.994914619570
         O           -2.203082715398     0.902629554885     0.840465698375    15.994914619570
         O            2.193369284602    -0.899085445115     0.840490698375    15.994914619570
         O           -2.834665715398    -0.568745445115    -0.767429301625    15.994914619570
         C            0.524404284602     0.550612554885    -0.080251301625    12.000000000000
         C           -0.534114715398    -0.547088445115    -0.080237301625    12.000000000000
         C            2.018407384602     0.007554754885    -0.000669301625    12.000000000000
         C           -1.981183715398    -0.021085445115    -0.003177301625    12.000000000000
         H            0.337909284602     1.192587554885     0.789113698375     1.007825032230
         H            0.422419284602     1.183401554885    -0.970170301625     1.007825032230
         H           -0.347622715398    -1.189037445115     0.789147698375     1.007825032230
         H           -0.432125715398    -1.179903445115    -0.970137301625     1.007825032230

  Basis Set: AUG-CC-PVTZ
    Blend: AUG-CC-PVTZ
  Basis Set: (AUG-CC-PVTZ AUX)
    Blend: AUG-CC-PVTZ-JKFIT
	 Reference Energy          =    -453.3976480838584280 [Eh]
	 Singles Energy            =      -0.0000000000000000 [Eh]
	 Same-Spin Energy          =      -0.4499850433944430 [Eh]
	 Opposite-Spin Energy      =      -1.3254725850046154 [Eh]
	 Correlation Energy        =      -1.7754576283990584 [Eh]
	 Total Energy              =    -455.1731057122574953 [Eh]

	 ================> DF-SCS-MP2 Energies <==================
	-----------------------------------------------------------
	 SCS Same-Spin Scale       =       0.3333333333333333 [-]
	 SCS Opposite-Spin Scale   =       1.2000000000000000 [-]
	 SCS Same-Spin Energy      =      -0.1499950144648143 [Eh]
	 SCS Opposite-Spin Energy  =      -1.5905671020055385 [Eh]
	 SCS Correlation Energy    =      -1.7405621164703529 [Eh]
	 SCS Total Energy          =    -455.1382102003287855 [Eh]
	-----------------------------------------------------------

  Dipole Moment: [D]
     X:     0.3619      Y:    -0.0865      Z:    -0.0901     Total:     0.3828

*** Psi4 exiting successfully. Buy a developer a beer!
