                               Psi4 1.4a3.dev225

  ==> Input File <==

--------------------------------------------------------------------------
#psi4
#
memory 32 gb

molecule  {
-2 1
  O        2.8298160     0.5705000    -0.7641870
  O       -2.1982280     0.9008650     0.8437030
  O        2.1982240    -0.9008500     0.8437280
  O       -2.8298110    -0.5705100    -0.7641920
  C        0.5292590     0.5488480    -0.0770140
  C       -0.5292600    -0.5488530    -0.0770000
  C        1.9628864     0.0142244     0.0121052
  C       -1.9763290    -0.0228500     0.0000600
  H        0.3427640     1.1908230     0.7923510
  H        0.4272740     1.1816370    -0.9669330
  H       -0.3427680    -1.1908020     0.7923850
  H       -0.4272710    -1.1816680    -0.9669000
units angstrom
no_reorient  #important for SAPT in psi4, default
symmetry c1  #important for SAPT in psi4, default
}

set PROPERTIES_ORIGIN ["COM"]
properties('MP2/aug-cc-pvtz', properties = ['dipole'])
--------------------------------------------------------------------------

    Molecular point group: c1
  Charge       = -2
  Multiplicity = 1
  Basis Set: AUG-CC-PVTZ
    Blend: AUG-CC-PVTZ
  Basis Set: (AUG-CC-PVTZ AUX)
    Blend: AUG-CC-PVTZ-JKFIT

    Orbital Energies [Eh]
    ---------------------

    Doubly Occupied:

       1A    -20.187038     2A    -20.186768     3A    -20.183730
       4A    -20.182120     5A    -11.025413     6A    -11.025013
       7A    -10.924992     8A    -10.924343     9A     -1.052234
      10A     -1.049791    11A     -0.950786    12A     -0.946098
      13A     -0.743151    14A     -0.588920    15A     -0.406299
      16A     -0.399208    17A     -0.334076    18A     -0.327234
      19A     -0.298711    20A     -0.287115    21A     -0.274218
      22A     -0.243909    23A     -0.237179    24A     -0.188534
      25A     -0.181381    26A     -0.107590    27A     -0.097149
      28A     -0.096311    29A     -0.087115    30A     -0.084950
      31A     -0.076002

  @DF-RHF Final Energy:  -453.39632049498005

   => Energetics <=

    Nuclear Repulsion Energy =            340.0661398322294531
    One-Electron Energy =               -1319.5301690262192551
    Two-Electron Energy =                 526.0677086990096996
    Total Energy =                       -453.3963204949800456
  Basis Set: (AUG-CC-PVTZ AUX)
    Blend: AUG-CC-PVTZ-RI
    Molecular point group: c1

    Geometry (in Angstrom), charge = -2, multiplicity = 1:

       Center              X                  Y                   Z               Mass
    ------------   -----------------  -----------------  -----------------  -----------------
         O            2.831206456685     0.571392133855    -0.768410815325    15.994914619570
         O           -2.196837543315     0.901757133855     0.839479184675    15.994914619570
         O            2.199614456685    -0.899957866145     0.839504184675    15.994914619570
         O           -2.828420543315    -0.569617866145    -0.768415815325    15.994914619570
         C            0.530649456685     0.549740133855    -0.081237815325    12.000000000000
         C           -0.527869543315    -0.547960866145    -0.081223815325    12.000000000000
         C            1.964276856685     0.015116533855     0.007881384675    12.000000000000
         C           -1.974938543315    -0.021957866145    -0.004163815325    12.000000000000
         H            0.344154456685     1.191715133855     0.788127184675     1.007825032230
         H            0.428664456685     1.182529133855    -0.971156815325     1.007825032230
         H           -0.341377543315    -1.189909866145     0.788161184675     1.007825032230
         H           -0.425880543315    -1.180775866145    -0.971123815325     1.007825032230

  Basis Set: AUG-CC-PVTZ
    Blend: AUG-CC-PVTZ
  Basis Set: (AUG-CC-PVTZ AUX)
    Blend: AUG-CC-PVTZ-JKFIT
	 Reference Energy          =    -453.3963204949800456 [Eh]
	 Singles Energy            =      -0.0000000000000000 [Eh]
	 Same-Spin Energy          =      -0.4508143860659169 [Eh]
	 Opposite-Spin Energy      =      -1.3273866312302940 [Eh]
	 Correlation Energy        =      -1.7782010172962108 [Eh]
	 Total Energy              =    -455.1745215122762716 [Eh]

	 ================> DF-SCS-MP2 Energies <==================
	-----------------------------------------------------------
	 SCS Same-Spin Scale       =       0.3333333333333333 [-]
	 SCS Opposite-Spin Scale   =       1.2000000000000000 [-]
	 SCS Same-Spin Energy      =      -0.1502714620219723 [Eh]
	 SCS Opposite-Spin Energy  =      -1.5928639574763528 [Eh]
	 SCS Correlation Energy    =      -1.7431354194983251 [Eh]
	 SCS Total Energy          =    -455.1394559144783898 [Eh]
	-----------------------------------------------------------

  Dipole Moment: [D]
     X:    -0.1296      Y:    -0.1148      Z:     0.0429     Total:     0.1784

*** Psi4 exiting successfully. Buy a developer a beer!
