                               Psi4 1.3.2 release

  ==> Input File <==

--------------------------------------------------------------------------
#psi4
#
memory 32 gb

molecule  {
-2 1
  O        2.8770000    -0.6176760    -0.6980330
  O       -2.2079270    -0.9616680     0.8025740
  O        2.2079310     0.9617400     0.8024790
  O       -2.8769990     0.6175240    -0.6981300
  C        0.5469100    -0.5337200    -0.1005860
  C       -0.6522092     0.4139071    -0.1122469
  C        2.0084700    -0.0044810     0.0018080
  C       -2.0084780     0.0045020     0.0018680
  H        0.4732740    -1.1622260    -0.9983970
  H        0.3493020    -1.1927530     0.7554060
  H       -0.4732950     1.1622160    -0.9984660
  H       -0.3492490     1.1928820     0.7553450
units angstrom
no_reorient  #important for SAPT in psi4, default
symmetry c1  #important for SAPT in psi4, default
}

set PROPERTIES_ORIGIN ["COM"]
properties('MP2/aug-cc-pvtz', properties = ['dipole'])
--------------------------------------------------------------------------

    Molecular point group: c1
  Charge       = -2
  Multiplicity = 1
  Basis Set: AUG-CC-PVTZ
    Blend: AUG-CC-PVTZ
  Basis Set: (AUG-CC-PVTZ AUX)
    Blend: AUG-CC-PVTZ-JKFIT

    Orbital Energies [Eh]
    ---------------------

    Doubly Occupied:

       1A    -20.192441     2A    -20.189912     3A    -20.186730
       4A    -20.183606     5A    -11.035004     6A    -11.022484
       7A    -10.938009     8A    -10.930295     9A     -1.056129
      10A     -1.054272    11A     -0.955650    12A     -0.952918
      13A     -0.743934    14A     -0.601400    15A     -0.413598
      16A     -0.400042    17A     -0.332700    18A     -0.325553
      19A     -0.310303    20A     -0.290381    21A     -0.282061
      22A     -0.248402    23A     -0.231456    24A     -0.174498
      25A     -0.150014    26A     -0.113058    27A     -0.101733
      28A     -0.097511    29A     -0.091319    30A     -0.089577
      31A     -0.086662

  @DF-RHF Final Energy:  -453.36915478313011

   => Energetics <=

    Nuclear Repulsion Energy =            339.0234068898179771
    One-Electron Energy =               -1317.2218130809208105
    Two-Electron Energy =                 524.8292514079726061
    Total Energy =                       -453.3691547831301705
  Basis Set: (AUG-CC-PVTZ AUX)
    Blend: AUG-CC-PVTZ-RI
    Molecular point group: c1

    Geometry (in Angstrom), charge = -2, multiplicity = 1:

       Center              X                  Y                   Z               Mass
    ------------   -----------------  -----------------  -----------------  -----------------
         O            2.887891851858    -0.605274908937    -0.700975645048    15.994914619570
         O           -2.197035148142    -0.949266908937     0.799631354952    15.994914619570
         O            2.218822851858     0.974141091063     0.799536354952    15.994914619570
         O           -2.866107148142     0.629925091063    -0.701072645048    15.994914619570
         C            0.557801851858    -0.521318908937    -0.103528645048    12.000000000000
         C           -0.641317348142     0.426308191063    -0.115189545048    12.000000000000
         C            2.019361851858     0.007920091063    -0.001134645048    12.000000000000
         C           -1.997586148142     0.016903091063    -0.001074645048    12.000000000000
         H            0.484165851858    -1.149824908937    -1.001339645048     1.007825032230
         H            0.360193851858    -1.180351908937     0.752463354952     1.007825032230
         H           -0.462403148142     1.174617091063    -1.001408645048     1.007825032230
         H           -0.338357148142     1.205283091063     0.752402354952     1.007825032230

  Basis Set: AUG-CC-PVTZ
    Blend: AUG-CC-PVTZ
  Basis Set: (AUG-CC-PVTZ AUX)
    Blend: AUG-CC-PVTZ-JKFIT
	 Reference Energy          =    -453.3691547831301136 [Eh]
	 Singles Energy            =      -0.0000000000000000 [Eh]
	 Same-Spin Energy          =      -0.4523156911389311 [Eh]
	 Opposite-Spin Energy      =      -1.3305300279538947 [Eh]
	 Correlation Energy        =      -1.7828457190928257 [Eh]
	 Total Energy              =    -455.1520005022229611 [Eh]

	 ================> DF-SCS-MP2 Energies <==================
	-----------------------------------------------------------
	 SCS Same-Spin Scale       =       0.3333333333333333 [-]
	 SCS Opposite-Spin Scale   =       1.2000000000000000 [-]
	 SCS Same-Spin Energy      =      -0.1507718970463104 [Eh]
	 SCS Opposite-Spin Energy  =      -1.5966360335446736 [Eh]
	 SCS Correlation Energy    =      -1.7474079305909840 [Eh]
	 SCS Total Energy          =    -455.1165627137211231 [Eh]
	-----------------------------------------------------------

  Dipole Moment: [D]
     X:     0.1757      Y:    -0.1351      Z:    -0.2356     Total:     0.3235

*** Psi4 exiting successfully. Buy a developer a beer!
