                               Psi4 1.3.2 release

  ==> Input File <==

--------------------------------------------------------------------------
#psi4
#
memory 32 gb

molecule  {
-2 1
  O        2.8112483    -0.6684768    -0.7294830
  O       -2.2079270    -0.9616680     0.8025740
  O        2.2079310     0.9617400     0.8024790
  O       -2.8769990     0.6175240    -0.6981300
  C        0.5469100    -0.5337200    -0.1005860
  C       -0.5469140     0.5337860    -0.1005900
  C        2.0084700    -0.0044810     0.0018080
  C       -2.0084780     0.0045020     0.0018680
  H        0.4732740    -1.1622260    -0.9983970
  H        0.3493020    -1.1927530     0.7554060
  H       -0.4732950     1.1622160    -0.9984660
  H       -0.3492490     1.1928820     0.7553450
units angstrom
no_reorient  #important for SAPT in psi4, default
symmetry c1  #important for SAPT in psi4, default
}

set PROPERTIES_ORIGIN ["COM"]
properties('MP2/aug-cc-pvtz', properties = ['dipole'])
--------------------------------------------------------------------------

    Molecular point group: c1
  Charge       = -2
  Multiplicity = 1
  Basis Set: AUG-CC-PVTZ
    Blend: AUG-CC-PVTZ
  Basis Set: (AUG-CC-PVTZ AUX)
    Blend: AUG-CC-PVTZ-JKFIT

    Orbital Energies [Eh]
    ---------------------

    Doubly Occupied:

       1A    -20.191814     2A    -20.190514     3A    -20.186891
       4A    -20.184862     5A    -11.030518     6A    -11.026993
       7A    -10.923213     8A    -10.920395     9A     -1.052082
      10A     -1.049452    11A     -0.959260    12A     -0.950615
      13A     -0.734173    14A     -0.580842    15A     -0.402896
      16A     -0.400061    17A     -0.329040    18A     -0.325749
      19A     -0.299488    20A     -0.288914    21A     -0.276284
      22A     -0.246467    23A     -0.235287    24A     -0.185820
      25A     -0.177168    26A     -0.111064    27A     -0.102254
      28A     -0.095936    29A     -0.092421    30A     -0.086985
      31A     -0.070846

  @DF-RHF Final Energy:  -453.39411896819536

   => Energetics <=

    Nuclear Repulsion Energy =            338.1530964603431357
    One-Electron Energy =               -1315.6778293976678924
    Two-Electron Energy =                 524.1306139691293993
    Total Energy =                       -453.3941189681953574
  Basis Set: (AUG-CC-PVTZ AUX)
    Blend: AUG-CC-PVTZ-RI
    Molecular point group: c1

    Geometry (in Angstrom), charge = -2, multiplicity = 1:

       Center              X                  Y                   Z               Mass
    ------------   -----------------  -----------------  -----------------  -----------------
         O            2.820314034955    -0.661471684877    -0.729295274700    15.994914619570
         O           -2.198861265045    -0.954662884877     0.802761725300    15.994914619570
         O            2.216996734955     0.968745115123     0.802666725300    15.994914619570
         O           -2.867933265045     0.624529115123    -0.697942274700    15.994914619570
         C            0.555975734955    -0.526714884877    -0.100398274700    12.000000000000
         C           -0.537848265045     0.540791115123    -0.100402274700    12.000000000000
         C            2.017535734955     0.002524115123     0.001995725300    12.000000000000
         C           -1.999412265045     0.011507115123     0.002055725300    12.000000000000
         H            0.482339734955    -1.155220884877    -0.998209274700     1.007825032230
         H            0.358367734955    -1.185747884877     0.755593725300     1.007825032230
         H           -0.464229265045     1.169221115123    -0.998278274700     1.007825032230
         H           -0.340183265045     1.199887115123     0.755532725300     1.007825032230

  Basis Set: AUG-CC-PVTZ
    Blend: AUG-CC-PVTZ
  Basis Set: (AUG-CC-PVTZ AUX)
    Blend: AUG-CC-PVTZ-JKFIT
	 Reference Energy          =    -453.3941189681953574 [Eh]
	 Singles Energy            =      -0.0000000000000000 [Eh]
	 Same-Spin Energy          =      -0.4508638744549522 [Eh]
	 Opposite-Spin Energy      =      -1.3279159267980862 [Eh]
	 Correlation Energy        =      -1.7787798012530385 [Eh]
	 Total Energy              =    -455.1728987694484090 [Eh]

	 ================> DF-SCS-MP2 Energies <==================
	-----------------------------------------------------------
	 SCS Same-Spin Scale       =       0.3333333333333333 [-]
	 SCS Opposite-Spin Scale   =       1.2000000000000000 [-]
	 SCS Same-Spin Energy      =      -0.1502879581516507 [Eh]
	 SCS Opposite-Spin Energy  =      -1.5934991121577033 [Eh]
	 SCS Correlation Energy    =      -1.7437870703093541 [Eh]
	 SCS Total Energy          =    -455.1379060385046955 [Eh]
	-----------------------------------------------------------

  Dipole Moment: [D]
     X:     0.1940      Y:     0.0688      Z:    -0.1667     Total:     0.2649

*** Psi4 exiting successfully. Buy a developer a beer!
