                               Psi4 1.3.2 release

  ==> Input File <==

--------------------------------------------------------------------------
#psi4
#
memory 32 gb

molecule  {
-2 1
  O        2.9667474    -0.5325301    -0.6485754
  O       -2.2079270    -0.9616680     0.8025740
  O        2.2079310     0.9617400     0.8024790
  O       -2.8769990     0.6175240    -0.6981300
  C        0.5469100    -0.5337200    -0.1005860
  C       -0.5469140     0.5337860    -0.1005900
  C        2.0084700    -0.0044810     0.0018080
  C       -2.0084780     0.0045020     0.0018680
  H        0.4732740    -1.1622260    -0.9983970
  H        0.3493020    -1.1927530     0.7554060
  H       -0.4732950     1.1622160    -0.9984660
  H       -0.3492490     1.1928820     0.7553450
units angstrom
no_reorient  #important for SAPT in psi4, default
symmetry c1  #important for SAPT in psi4, default
}

set PROPERTIES_ORIGIN ["COM"]
properties('MP2/aug-cc-pvtz', properties = ['dipole'])
--------------------------------------------------------------------------

    Molecular point group: c1
  Charge       = -2
  Multiplicity = 1
  Basis Set: AUG-CC-PVTZ
    Blend: AUG-CC-PVTZ
  Basis Set: (AUG-CC-PVTZ AUX)
    Blend: AUG-CC-PVTZ-JKFIT

    Orbital Energies [Eh]
    ---------------------

    Doubly Occupied:

       1A    -20.190586     2A    -20.188711     3A    -20.184804
       4A    -20.178124     5A    -11.031378     6A    -11.026359
       7A    -10.933402     8A    -10.929186     9A     -1.053777
      10A     -1.051037    11A     -0.954423    12A     -0.940853
      13A     -0.742143    14A     -0.588629    15A     -0.405159
      16A     -0.400733    17A     -0.333976    18A     -0.327922
      19A     -0.299629    20A     -0.286307    21A     -0.277084
      22A     -0.246653    23A     -0.236237    24A     -0.190437
      25A     -0.181674    26A     -0.112024    27A     -0.100565
      28A     -0.091600    29A     -0.088478    30A     -0.082235
      31A     -0.078419

  @DF-RHF Final Energy:  -453.39364476928279

   => Energetics <=

    Nuclear Repulsion Energy =            337.4585944674816460
    One-Electron Energy =               -1314.2393904452333118
    Two-Electron Energy =                 523.3871512084689357
    Total Energy =                       -453.3936447692827869
  Basis Set: (AUG-CC-PVTZ AUX)
    Blend: AUG-CC-PVTZ-RI
    Molecular point group: c1

    Geometry (in Angstrom), charge = -2, multiplicity = 1:

       Center              X                  Y                   Z               Mass
    ------------   -----------------  -----------------  -----------------  -----------------
         O            2.954373825619    -0.544268523293    -0.659542742891    15.994914619570
         O           -2.220300574381    -0.973406423293     0.791606657109    15.994914619570
         O            2.195557425619     0.950001576707     0.791511657109    15.994914619570
         O           -2.889372574381     0.605785576707    -0.709097342891    15.994914619570
         C            0.534536425619    -0.545458423293    -0.111553342891    12.000000000000
         C           -0.559287574381     0.522047576707    -0.111557342891    12.000000000000
         C            1.996096425619    -0.016219423293    -0.009159342891    12.000000000000
         C           -2.020851574381    -0.007236423293    -0.009099342891    12.000000000000
         H            0.460900425619    -1.173964423293    -1.009364342891     1.007825032230
         H            0.336928425619    -1.204491423293     0.744438657109     1.007825032230
         H           -0.485668574381     1.150477576707    -1.009433342891     1.007825032230
         H           -0.361622574381     1.181143576707     0.744377657109     1.007825032230

  Basis Set: AUG-CC-PVTZ
    Blend: AUG-CC-PVTZ
  Basis Set: (AUG-CC-PVTZ AUX)
    Blend: AUG-CC-PVTZ-JKFIT
	 Reference Energy          =    -453.3936447692827869 [Eh]
	 Singles Energy            =      -0.0000000000000000 [Eh]
	 Same-Spin Energy          =      -0.4506067394852101 [Eh]
	 Opposite-Spin Energy      =      -1.3274736517465082 [Eh]
	 Correlation Energy        =      -1.7780803912317182 [Eh]
	 Total Energy              =    -455.1717251605144838 [Eh]

	 ================> DF-SCS-MP2 Energies <==================
	-----------------------------------------------------------
	 SCS Same-Spin Scale       =       0.3333333333333333 [-]
	 SCS Opposite-Spin Scale   =       1.2000000000000000 [-]
	 SCS Same-Spin Energy      =      -0.1502022464950700 [Eh]
	 SCS Opposite-Spin Energy  =      -1.5929683820958098 [Eh]
	 SCS Correlation Energy    =      -1.7431706285908799 [Eh]
	 SCS Total Energy          =    -455.1368153978736473 [Eh]
	-----------------------------------------------------------

  Dipole Moment: [D]
     X:    -0.2743      Y:    -0.1160      Z:    -0.2724     Total:     0.4036

*** Psi4 exiting successfully. Buy a developer a beer!
