                               Psi4 1.3.2 release

  ==> Input File <==

--------------------------------------------------------------------------
#psi4
#
memory 32 gb

molecule  {
-2 1
  O        2.9675992    -0.5359547    -0.6445176
  O       -2.2079270    -0.9616680     0.8025740
  O        2.2079310     0.9617400     0.8024790
  O       -2.8769990     0.6175240    -0.6981300
  C        0.5469100    -0.5337200    -0.1005860
  C       -0.5469140     0.5337860    -0.1005900
  C        2.0084700    -0.0044810     0.0018080
  C       -2.0084780     0.0045020     0.0018680
  H        0.4732740    -1.1622260    -0.9983970
  H        0.3493020    -1.1927530     0.7554060
  H       -0.4732950     1.1622160    -0.9984660
  H       -0.3492490     1.1928820     0.7553450
units angstrom
no_reorient  #important for SAPT in psi4, default
symmetry c1  #important for SAPT in psi4, default
}

set PROPERTIES_ORIGIN ["COM"]
properties('MP2/aug-cc-pvtz', properties = ['dipole'])
--------------------------------------------------------------------------

    Molecular point group: c1
  Charge       = -2
  Multiplicity = 1
  Basis Set: AUG-CC-PVTZ
    Blend: AUG-CC-PVTZ
  Basis Set: (AUG-CC-PVTZ AUX)
    Blend: AUG-CC-PVTZ-JKFIT

    Orbital Energies [Eh]
    ---------------------

    Doubly Occupied:

       1A    -20.190586     2A    -20.188713     3A    -20.184798
       4A    -20.178129     5A    -11.031376     6A    -11.026360
       7A    -10.933415     8A    -10.929174     9A     -1.053779
      10A     -1.051042    11A     -0.954424    12A     -0.940848
      13A     -0.742147    14A     -0.588627    15A     -0.405161
      16A     -0.400736    17A     -0.333984    18A     -0.327930
      19A     -0.299626    20A     -0.286301    21A     -0.277099
      22A     -0.246687    23A     -0.236200    24A     -0.190448
      25A     -0.181660    26A     -0.112036    27A     -0.100569
      28A     -0.091601    29A     -0.088479    30A     -0.082236
      31A     -0.078411

  @DF-RHF Final Energy:  -453.39363702523167

   => Energetics <=

    Nuclear Repulsion Energy =            337.4550427389888227
    One-Electron Energy =               -1314.2321957645503971
    Two-Electron Energy =                 523.3835160003299052
    Total Energy =                       -453.3936370252316692
  Basis Set: (AUG-CC-PVTZ AUX)
    Blend: AUG-CC-PVTZ-RI
    Molecular point group: c1

    Geometry (in Angstrom), charge = -2, multiplicity = 1:

       Center              X                  Y                   Z               Mass
    ------------   -----------------  -----------------  -----------------  -----------------
         O            2.955108184401    -0.547220959410    -0.656044408697    15.994914619570
         O           -2.220418015599    -0.972934259410     0.791047191303    15.994914619570
         O            2.195439984401     0.950473740590     0.790952191303    15.994914619570
         O           -2.889490015599     0.606257740590    -0.709656808697    15.994914619570
         C            0.534418984401    -0.544986259410    -0.112112808697    12.000000000000
         C           -0.559405015599     0.522519740590    -0.112116808697    12.000000000000
         C            1.995978984401    -0.015747259410    -0.009718808697    12.000000000000
         C           -2.020969015599    -0.006764259410    -0.009658808697    12.000000000000
         H            0.460782984401    -1.173492259410    -1.009923808697     1.007825032230
         H            0.336810984401    -1.204019259410     0.743879191303     1.007825032230
         H           -0.485786015599     1.150949740590    -1.009992808697     1.007825032230
         H           -0.361740015599     1.181615740590     0.743818191303     1.007825032230

  Basis Set: AUG-CC-PVTZ
    Blend: AUG-CC-PVTZ
  Basis Set: (AUG-CC-PVTZ AUX)
    Blend: AUG-CC-PVTZ-JKFIT
	 Reference Energy          =    -453.3936370252316692 [Eh]
	 Singles Energy            =      -0.0000000000000000 [Eh]
	 Same-Spin Energy          =      -0.4506061857459851 [Eh]
	 Opposite-Spin Energy      =      -1.3274751483628422 [Eh]
	 Correlation Energy        =      -1.7780813341088273 [Eh]
	 Total Energy              =    -455.1717183593405025 [Eh]

	 ================> DF-SCS-MP2 Energies <==================
	-----------------------------------------------------------
	 SCS Same-Spin Scale       =       0.3333333333333333 [-]
	 SCS Opposite-Spin Scale   =       1.2000000000000000 [-]
	 SCS Same-Spin Energy      =      -0.1502020619153284 [Eh]
	 SCS Opposite-Spin Energy  =      -1.5929701780354106 [Eh]
	 SCS Correlation Energy    =      -1.7431722399507390 [Eh]
	 SCS Total Energy          =    -455.1368092651824213 [Eh]
	-----------------------------------------------------------

  Dipole Moment: [D]
     X:    -0.2750      Y:    -0.1118      Z:    -0.2770     Total:     0.4060

*** Psi4 exiting successfully. Buy a developer a beer!
