                               Psi4 1.3.2 release

  ==> Input File <==

--------------------------------------------------------------------------
#psi4
#
memory 32 gb

molecule  {
-2 1
  O        2.8770000    -0.6176760    -0.6980330
  O       -2.2079270    -0.9616680     0.8025740
  O        2.2079310     0.9617400     0.8024790
  O       -2.8769990     0.6175240    -0.6981300
  C        0.5469100    -0.5337200    -0.1005860
  C       -0.5469140     0.5337860    -0.1005900
  C        2.0306087    -0.0591121    -0.0895601
  C       -2.0084780     0.0045020     0.0018680
  H        0.4732740    -1.1622260    -0.9983970
  H        0.3493020    -1.1927530     0.7554060
  H       -0.4732950     1.1622160    -0.9984660
  H       -0.3492490     1.1928820     0.7553450
units angstrom
no_reorient  #important for SAPT in psi4, default
symmetry c1  #important for SAPT in psi4, default
}

set PROPERTIES_ORIGIN ["COM"]
properties('MP2/aug-cc-pvtz', properties = ['dipole'])
--------------------------------------------------------------------------

    Molecular point group: c1
  Charge       = -2
  Multiplicity = 1
  Basis Set: AUG-CC-PVTZ
    Blend: AUG-CC-PVTZ
  Basis Set: (AUG-CC-PVTZ AUX)
    Blend: AUG-CC-PVTZ-JKFIT

    Orbital Energies [Eh]
    ---------------------

    Doubly Occupied:

       1A    -20.212370     2A    -20.187618     3A    -20.185599
       4A    -20.163180     5A    -11.027952     6A    -11.027670
       7A    -10.927285     8A    -10.924372     9A     -1.092290
      10A     -1.050456    11A     -0.951370    12A     -0.918279
      13A     -0.735790    14A     -0.585995    15A     -0.407068
      16A     -0.400520    17A     -0.334493    18A     -0.329269
      19A     -0.302347    20A     -0.288991    21A     -0.280368
      22A     -0.254134    23A     -0.236978    24A     -0.189907
      25A     -0.177382    26A     -0.113107    27A     -0.098492
      28A     -0.088129    29A     -0.083210    30A     -0.076925
      31A     -0.070843

  @DF-RHF Final Energy:  -453.37915838557331

   => Energetics <=

    Nuclear Repulsion Energy =            337.7447687991142971
    One-Electron Energy =               -1314.8030772240640545
    Two-Electron Energy =                 523.6791500393763954
    Total Energy =                       -453.3791583855733052
  Basis Set: (AUG-CC-PVTZ AUX)
    Blend: AUG-CC-PVTZ-RI
    Molecular point group: c1

    Geometry (in Angstrom), charge = -2, multiplicity = 1:

       Center              X                  Y                   Z               Mass
    ------------   -----------------  -----------------  -----------------  -----------------
         O            2.874710279889    -0.612024043755    -0.692730437772    15.994914619570
         O           -2.210216720111    -0.956016043755     0.807876562228    15.994914619570
         O            2.205641279889     0.967391956245     0.807781562228    15.994914619570
         O           -2.879288720111     0.623175956245    -0.692827437772    15.994914619570
         C            0.544620279889    -0.528068043755    -0.095283437772    12.000000000000
         C           -0.549203720111     0.539437956245    -0.095287437772    12.000000000000
         C            2.028318979889    -0.053460143755    -0.084257537772    12.000000000000
         C           -2.010767720111     0.010153956245     0.007170562228    12.000000000000
         H            0.470984279889    -1.156574043755    -0.993094437772     1.007825032230
         H            0.347012279889    -1.187101043755     0.760708562228     1.007825032230
         H           -0.475584720111     1.167867956245    -0.993163437772     1.007825032230
         H           -0.351538720111     1.198533956245     0.760647562228     1.007825032230

  Basis Set: AUG-CC-PVTZ
    Blend: AUG-CC-PVTZ
  Basis Set: (AUG-CC-PVTZ AUX)
    Blend: AUG-CC-PVTZ-JKFIT
	 Reference Energy          =    -453.3791583855733052 [Eh]
	 Singles Energy            =      -0.0000000000000000 [Eh]
	 Same-Spin Energy          =      -0.4507413127595619 [Eh]
	 Opposite-Spin Energy      =      -1.3279502024277656 [Eh]
	 Correlation Energy        =      -1.7786915151873275 [Eh]
	 Total Energy              =    -455.1578499007606524 [Eh]

	 ================> DF-SCS-MP2 Energies <==================
	-----------------------------------------------------------
	 SCS Same-Spin Scale       =       0.3333333333333333 [-]
	 SCS Opposite-Spin Scale   =       1.2000000000000000 [-]
	 SCS Same-Spin Energy      =      -0.1502471042531873 [Eh]
	 SCS Opposite-Spin Energy  =      -1.5935402429133187 [Eh]
	 SCS Correlation Energy    =      -1.7437873471665060 [Eh]
	 SCS Total Energy          =    -455.1229457327398222 [Eh]
	-----------------------------------------------------------

  Dipole Moment: [D]
     X:     0.3378      Y:    -0.8186      Z:    -1.0326     Total:     1.3603

*** Psi4 exiting successfully. Buy a developer a beer!
