                               Psi4 1.4a3.dev225

  ==> Input File <==

--------------------------------------------------------------------------
#psi4
#
memory 32 gb

molecule  {
-2 1
  O        2.8298160     0.5705000    -0.7641870
  O       -2.1982280     0.9008650     0.8437030
  O        2.1982240    -0.9008500     0.8437280
  O       -2.8298110    -0.5705100    -0.7641920
  C        0.5292590     0.5488480    -0.0770140
  C       -0.5292600    -0.5488530    -0.0770000
  C        1.9575558     0.0296739    -0.0009320
  C       -1.9763290    -0.0228500     0.0000600
  H        0.3427640     1.1908230     0.7923510
  H        0.4272740     1.1816370    -0.9669330
  H       -0.3427680    -1.1908020     0.7923850
  H       -0.4272710    -1.1816680    -0.9669000
units angstrom
no_reorient  #important for SAPT in psi4, default
symmetry c1  #important for SAPT in psi4, default
}

set PROPERTIES_ORIGIN ["COM"]
properties('MP2/aug-cc-pvtz', properties = ['dipole'])
--------------------------------------------------------------------------

    Molecular point group: c1
  Charge       = -2
  Multiplicity = 1
  Basis Set: AUG-CC-PVTZ
    Blend: AUG-CC-PVTZ
  Basis Set: (AUG-CC-PVTZ AUX)
    Blend: AUG-CC-PVTZ-JKFIT

    Orbital Energies [Eh]
    ---------------------

    Doubly Occupied:

       1A    -20.187346     2A    -20.185768     3A    -20.184054
       4A    -20.182271     5A    -11.025793     6A    -11.025542
       7A    -10.925727     8A    -10.925058     9A     -1.052286
      10A     -1.045882    11A     -0.951108    12A     -0.943538
      13A     -0.744666    14A     -0.591702    15A     -0.406387
      16A     -0.399766    17A     -0.334858    18A     -0.326741
      19A     -0.298389    20A     -0.286836    21A     -0.274425
      22A     -0.243045    23A     -0.236231    24A     -0.187898
      25A     -0.180988    26A     -0.108960    27A     -0.097113
      28A     -0.094459    29A     -0.087340    30A     -0.083923
      31A     -0.077865

  @DF-RHF Final Energy:  -453.39555112883892

   => Energetics <=

    Nuclear Repulsion Energy =            340.0359178534584430
    One-Electron Energy =               -1319.4710023241334511
    Two-Electron Energy =                 526.0395333418360906
    Total Energy =                       -453.3955511288389744
  Basis Set: (AUG-CC-PVTZ AUX)
    Blend: AUG-CC-PVTZ-RI
    Molecular point group: c1

    Geometry (in Angstrom), charge = -2, multiplicity = 1:

       Center              X                  Y                   Z               Mass
    ------------   -----------------  -----------------  -----------------  -----------------
         O            2.831757845974     0.569794060688    -0.767062266861    15.994914619570
         O           -2.196286154026     0.900159060688     0.840827733139    15.994914619570
         O            2.200165845974    -0.901555939312     0.840852733139    15.994914619570
         O           -2.827869154026    -0.571215939312    -0.767067266861    15.994914619570
         C            0.531200845974     0.548142060688    -0.079889266861    12.000000000000
         C           -0.527318154026    -0.549558939312    -0.079875266861    12.000000000000
         C            1.959497645974     0.028967960688    -0.003807266861    12.000000000000
         C           -1.974387154026    -0.023555939312    -0.002815266861    12.000000000000
         H            0.344705845974     1.190117060688     0.789475733139     1.007825032230
         H            0.429215845974     1.180931060688    -0.969808266861     1.007825032230
         H           -0.340826154026    -1.191507939312     0.789509733139     1.007825032230
         H           -0.425329154026    -1.182373939312    -0.969775266861     1.007825032230

  Basis Set: AUG-CC-PVTZ
    Blend: AUG-CC-PVTZ
  Basis Set: (AUG-CC-PVTZ AUX)
    Blend: AUG-CC-PVTZ-JKFIT
	 Reference Energy          =    -453.3955511288389175 [Eh]
	 Singles Energy            =      -0.0000000000000000 [Eh]
	 Same-Spin Energy          =      -0.4510105033143064 [Eh]
	 Opposite-Spin Energy      =      -1.3278117716522764 [Eh]
	 Correlation Energy        =      -1.7788222749665827 [Eh]
	 Total Energy              =    -455.1743734038054754 [Eh]

	 ================> DF-SCS-MP2 Energies <==================
	-----------------------------------------------------------
	 SCS Same-Spin Scale       =       0.3333333333333333 [-]
	 SCS Opposite-Spin Scale   =       1.2000000000000000 [-]
	 SCS Same-Spin Energy      =      -0.1503368344381021 [Eh]
	 SCS Opposite-Spin Energy  =      -1.5933741259827316 [Eh]
	 SCS Correlation Energy    =      -1.7437109604208338 [Eh]
	 SCS Total Energy          =    -455.1392620892597733 [Eh]
	-----------------------------------------------------------

  Dipole Moment: [D]
     X:    -0.1382      Y:     0.0325      Z:    -0.1052     Total:     0.1766

*** Psi4 exiting successfully. Buy a developer a beer!
