                               Psi4 1.3.2 release

  ==> Input File <==

--------------------------------------------------------------------------
#psi4
#
memory 32 gb

molecule  {
-2 1
  O        2.8770000    -0.6176760    -0.6980330
  O       -2.2079270    -0.9616680     0.8025740
  O        2.2079310     0.9617400     0.8024790
  O       -2.8769990     0.6175240    -0.6981300
  C        0.5469100    -0.5337200    -0.1005860
  C       -0.5834038     0.4950635    -0.1044820
  C        2.0084700    -0.0044810     0.0018080
  C       -2.0084780     0.0045020     0.0018680
  H        0.4732740    -1.1622260    -0.9983970
  H        0.3493020    -1.1927530     0.7554060
  H       -0.4732950     1.1622160    -0.9984660
  H       -0.3492490     1.1928820     0.7553450
units angstrom
no_reorient  #important for SAPT in psi4, default
symmetry c1  #important for SAPT in psi4, default
}

set PROPERTIES_ORIGIN ["COM"]
properties('MP2/aug-cc-pvtz', properties = ['dipole'])
--------------------------------------------------------------------------

    Molecular point group: c1
  Charge       = -2
  Multiplicity = 1
  Basis Set: AUG-CC-PVTZ
    Blend: AUG-CC-PVTZ
  Basis Set: (AUG-CC-PVTZ AUX)
    Blend: AUG-CC-PVTZ-JKFIT

    Orbital Energies [Eh]
    ---------------------

    Doubly Occupied:

       1A    -20.189672     2A    -20.187901     3A    -20.187518
       4A    -20.185516     5A    -11.030751     6A    -11.027010
       7A    -10.929340     8A    -10.926846     9A     -1.053237
      10A     -1.051664    11A     -0.953253    12A     -0.952401
      13A     -0.739193    14A     -0.588505    15A     -0.404927
      16A     -0.402625    17A     -0.329543    18A     -0.327642
      19A     -0.302576    20A     -0.288707    21A     -0.278857
      22A     -0.246781    23A     -0.234270    24A     -0.183296
      25A     -0.170465    26A     -0.111528    27A     -0.099755
      28A     -0.097850    29A     -0.089546    30A     -0.088197
      31A     -0.080240

  @DF-RHF Final Energy:  -453.39306176967261

   => Energetics <=

    Nuclear Repulsion Energy =            338.1940285405527788
    One-Electron Energy =               -1315.6949547283766151
    Two-Electron Energy =                 524.1078644181511663
    Total Energy =                       -453.3930617696726131
  Basis Set: (AUG-CC-PVTZ AUX)
    Blend: AUG-CC-PVTZ-RI
    Molecular point group: c1

    Geometry (in Angstrom), charge = -2, multiplicity = 1:

       Center              X                  Y                   Z               Mass
    ------------   -----------------  -----------------  -----------------  -----------------
         O            2.880774724218    -0.613669605539    -0.701778834687    15.994914619570
         O           -2.204152275782    -0.957661605539     0.798828165313    15.994914619570
         O            2.211705724218     0.965746394461     0.798733165313    15.994914619570
         O           -2.873224275782     0.621530394461    -0.701875834687    15.994914619570
         C            0.550684724218    -0.529713605539    -0.104331834687    12.000000000000
         C           -0.579629075782     0.499069894461    -0.108227834687    12.000000000000
         C            2.012244724218    -0.000474605539    -0.001937834687    12.000000000000
         C           -2.004703275782     0.008508394461    -0.001877834687    12.000000000000
         H            0.477048724218    -1.158219605539    -1.002142834687     1.007825032230
         H            0.353076724218    -1.188746605539     0.751660165313     1.007825032230
         H           -0.469520275782     1.166222394461    -1.002211834687     1.007825032230
         H           -0.345474275782     1.196888394461     0.751599165313     1.007825032230

  Basis Set: AUG-CC-PVTZ
    Blend: AUG-CC-PVTZ
  Basis Set: (AUG-CC-PVTZ AUX)
    Blend: AUG-CC-PVTZ-JKFIT
	 Reference Energy          =    -453.3930617696726131 [Eh]
	 Singles Energy            =      -0.0000000000000000 [Eh]
	 Same-Spin Energy          =      -0.4509689849126951 [Eh]
	 Opposite-Spin Energy      =      -1.3280879762734017 [Eh]
	 Correlation Energy        =      -1.7790569611860967 [Eh]
	 Total Energy              =    -455.1721187308586991 [Eh]

	 ================> DF-SCS-MP2 Energies <==================
	-----------------------------------------------------------
	 SCS Same-Spin Scale       =       0.3333333333333333 [-]
	 SCS Opposite-Spin Scale   =       1.2000000000000000 [-]
	 SCS Same-Spin Energy      =      -0.1503229949708983 [Eh]
	 SCS Opposite-Spin Energy  =      -1.5937055715280819 [Eh]
	 SCS Correlation Energy    =      -1.7440285664989803 [Eh]
	 SCS Total Energy          =    -455.1370903361715818 [Eh]
	-----------------------------------------------------------

  Dipole Moment: [D]
     X:     0.0537      Y:    -0.0360      Z:    -0.2206     Total:     0.2299

*** Psi4 exiting successfully. Buy a developer a beer!
