                               Psi4 1.3.2 release

  ==> Input File <==

--------------------------------------------------------------------------
#psi4
#
memory 32 gb

molecule  {
-2 1
  O        2.8770000    -0.6176760    -0.6980330
  O       -2.2079270    -0.9616680     0.8025740
  O        2.2079310     0.9617400     0.8024790
  O       -2.8769990     0.6175240    -0.6981300
  C        0.5469100    -0.5337200    -0.1005860
  C       -0.5469140     0.5337860    -0.1005900
  C        1.8208257    -0.0724280    -0.0113380
  C       -2.0084780     0.0045020     0.0018680
  H        0.4732740    -1.1622260    -0.9983970
  H        0.3493020    -1.1927530     0.7554060
  H       -0.4732950     1.1622160    -0.9984660
  H       -0.3492490     1.1928820     0.7553450
units angstrom
no_reorient  #important for SAPT in psi4, default
symmetry c1  #important for SAPT in psi4, default
}

set PROPERTIES_ORIGIN ["COM"]
properties('MP2/aug-cc-pvtz', properties = ['dipole'])
--------------------------------------------------------------------------

    Molecular point group: c1
  Charge       = -2
  Multiplicity = 1
  Basis Set: AUG-CC-PVTZ
    Blend: AUG-CC-PVTZ
  Basis Set: (AUG-CC-PVTZ AUX)
    Blend: AUG-CC-PVTZ-JKFIT

    Orbital Energies [Eh]
    ---------------------

    Doubly Occupied:

       1A    -20.196528     2A    -20.195304     3A    -20.183328
       4A    -20.179945     5A    -11.038932     6A    -11.038277
       7A    -10.939674     8A    -10.935944     9A     -1.059973
      10A     -0.999723    11A     -0.960716    12A     -0.890096
      13A     -0.780258    14A     -0.630890    15A     -0.421611
      16A     -0.412096    17A     -0.353078    18A     -0.326458
      19A     -0.303121    20A     -0.289216    21A     -0.271883
      22A     -0.243547    23A     -0.222097    24A     -0.183990
      25A     -0.162024    26A     -0.117110    27A     -0.107767
      28A     -0.097570    29A     -0.096451    30A     -0.069962
      31A     -0.063880

  @DF-RHF Final Energy:  -453.33570835333444

   => Energetics <=

    Nuclear Repulsion Energy =            338.2301687339776208
    One-Electron Energy =               -1315.5888560090113515
    Two-Electron Energy =                 524.0229789216992913
    Total Energy =                       -453.3357083533344394
  Basis Set: (AUG-CC-PVTZ AUX)
    Blend: AUG-CC-PVTZ-RI
    Molecular point group: c1

    Geometry (in Angstrom), charge = -2, multiplicity = 1:

       Center              X                  Y                   Z               Mass
    ------------   -----------------  -----------------  -----------------  -----------------
         O            2.896409919563    -0.610646666980    -0.700821614771    15.994914619570
         O           -2.188517080437    -0.954638666980     0.799785385229    15.994914619570
         O            2.227340919563     0.968769333020     0.799690385229    15.994914619570
         O           -2.857589080437     0.624553333020    -0.700918614771    15.994914619570
         C            0.566319919563    -0.526690666980    -0.103374614771    12.000000000000
         C           -0.527504080437     0.540815333020    -0.103378614771    12.000000000000
         C            1.840235619563    -0.065398666980    -0.014126614771    12.000000000000
         C           -1.989068080437     0.011531333020    -0.000920614771    12.000000000000
         H            0.492683919563    -1.155196666980    -1.001185614771     1.007825032230
         H            0.368711919563    -1.185723666980     0.752617385229     1.007825032230
         H           -0.453885080437     1.169245333020    -1.001254614771     1.007825032230
         H           -0.329839080437     1.199911333020     0.752556385229     1.007825032230

  Basis Set: AUG-CC-PVTZ
    Blend: AUG-CC-PVTZ
  Basis Set: (AUG-CC-PVTZ AUX)
    Blend: AUG-CC-PVTZ-JKFIT
	 Reference Energy          =    -453.3357083533344394 [Eh]
	 Singles Energy            =      -0.0000000000000000 [Eh]
	 Same-Spin Energy          =      -0.4561676097695692 [Eh]
	 Opposite-Spin Energy      =      -1.3387725794764325 [Eh]
	 Correlation Energy        =      -1.7949401892460015 [Eh]
	 Total Energy              =    -455.1306485425804453 [Eh]

	 ================> DF-SCS-MP2 Energies <==================
	-----------------------------------------------------------
	 SCS Same-Spin Scale       =       0.3333333333333333 [-]
	 SCS Opposite-Spin Scale   =       1.2000000000000000 [-]
	 SCS Same-Spin Energy      =      -0.1520558699231897 [Eh]
	 SCS Opposite-Spin Energy  =      -1.6065270953717190 [Eh]
	 SCS Correlation Energy    =      -1.7585829652949088 [Eh]
	 SCS Total Energy          =    -455.0942913186293595 [Eh]
	-----------------------------------------------------------

  Dipole Moment: [D]
     X:    -1.3051      Y:    -0.3050      Z:    -0.2547     Total:     1.3643

*** Psi4 exiting successfully. Buy a developer a beer!
