                               Psi4 1.3.2 release

  ==> Input File <==

--------------------------------------------------------------------------
#psi4
#
memory 32 gb

molecule  {
-2 1
  O        2.8770000    -0.6176760    -0.6980330
  O       -2.2079270    -0.9616680     0.8025740
  O        2.2079310     0.9617400     0.8024790
  O       -2.8769990     0.6175240    -0.6981300
  C        0.5469100    -0.5337200    -0.1005860
  C       -0.5090916     0.5712079    -0.0966980
  C        2.0084700    -0.0044810     0.0018080
  C       -2.0084780     0.0045020     0.0018680
  H        0.4732740    -1.1622260    -0.9983970
  H        0.3493020    -1.1927530     0.7554060
  H       -0.4732950     1.1622160    -0.9984660
  H       -0.3492490     1.1928820     0.7553450
units angstrom
no_reorient  #important for SAPT in psi4, default
symmetry c1  #important for SAPT in psi4, default
}

set PROPERTIES_ORIGIN ["COM"]
properties('MP2/aug-cc-pvtz', properties = ['dipole'])
--------------------------------------------------------------------------

    Molecular point group: c1
  Charge       = -2
  Multiplicity = 1
  Basis Set: AUG-CC-PVTZ
    Blend: AUG-CC-PVTZ
  Basis Set: (AUG-CC-PVTZ AUX)
    Blend: AUG-CC-PVTZ-JKFIT

    Orbital Energies [Eh]
    ---------------------

    Doubly Occupied:

       1A    -20.188999     2A    -20.187447     3A    -20.187346
       4A    -20.185553     5A    -11.030370     6A    -11.027088
       7A    -10.925009     8A    -10.922790     9A     -1.051101
      10A     -1.049617    11A     -0.952079    12A     -0.951303
      13A     -0.736278    14A     -0.580969    15A     -0.403061
      16A     -0.397626    17A     -0.334497    18A     -0.324761
      19A     -0.296335    20A     -0.287629    21A     -0.274641
      22A     -0.246787    23A     -0.237173    24A     -0.193686
      25A     -0.184612    26A     -0.109775    27A     -0.099992
      28A     -0.095114    29A     -0.088915    30A     -0.087334
      31A     -0.068522

  @DF-RHF Final Energy:  -453.39414911002081

   => Energetics <=

    Nuclear Repulsion Energy =            337.4525937585403312
    One-Electron Energy =               -1314.2806688853527248
    Two-Electron Energy =                 523.4339260167915882
    Total Energy =                       -453.3941491100207486
  Basis Set: (AUG-CC-PVTZ AUX)
    Blend: AUG-CC-PVTZ-RI
    Molecular point group: c1

    Geometry (in Angstrom), charge = -2, multiplicity = 1:

       Center              X                  Y                   Z               Mass
    ------------   -----------------  -----------------  -----------------  -----------------
         O            2.873087981425    -0.621545868359    -0.702584000002    15.994914619570
         O           -2.211839018575    -0.965537868359     0.798022999998    15.994914619570
         O            2.204018981425     0.957870131641     0.797927999998    15.994914619570
         O           -2.880911018575     0.613654131641    -0.702681000002    15.994914619570
         C            0.542997981425    -0.537589868359    -0.105137000002    12.000000000000
         C           -0.513003618575     0.567338031641    -0.101249000002    12.000000000000
         C            2.004557981425    -0.008350868359    -0.002743000002    12.000000000000
         C           -2.012390018575     0.000632131641    -0.002683000002    12.000000000000
         H            0.469361981425    -1.166095868359    -1.002948000002     1.007825032230
         H            0.345389981425    -1.196622868359     0.750854999998     1.007825032230
         H           -0.477207018575     1.158346131641    -1.003017000002     1.007825032230
         H           -0.353161018575     1.189012131641     0.750793999998     1.007825032230

  Basis Set: AUG-CC-PVTZ
    Blend: AUG-CC-PVTZ
  Basis Set: (AUG-CC-PVTZ AUX)
    Blend: AUG-CC-PVTZ-JKFIT
	 Reference Energy          =    -453.3941491100208054 [Eh]
	 Singles Energy            =      -0.0000000000000000 [Eh]
	 Same-Spin Energy          =      -0.4505950749802629 [Eh]
	 Opposite-Spin Energy      =      -1.3274699022573637 [Eh]
	 Correlation Energy        =      -1.7780649772376267 [Eh]
	 Total Energy              =    -455.1722140872584532 [Eh]

	 ================> DF-SCS-MP2 Energies <==================
	-----------------------------------------------------------
	 SCS Same-Spin Scale       =       0.3333333333333333 [-]
	 SCS Opposite-Spin Scale   =       1.2000000000000000 [-]
	 SCS Same-Spin Energy      =      -0.1501983583267543 [Eh]
	 SCS Opposite-Spin Energy  =      -1.5929638827088364 [Eh]
	 SCS Correlation Energy    =      -1.7431622410355907 [Eh]
	 SCS Total Energy          =    -455.1373113510563826 [Eh]
	-----------------------------------------------------------

  Dipole Moment: [D]
     X:    -0.0497      Y:     0.0279      Z:    -0.1922     Total:     0.2005

*** Psi4 exiting successfully. Buy a developer a beer!
