                               Psi4 1.3.2 release

  ==> Input File <==

--------------------------------------------------------------------------
#psi4
#
memory 32 gb

molecule  {
-2 1
  O        2.8927888    -0.6044990    -0.6896314
  O       -2.2079270    -0.9616680     0.8025740
  O        2.2079310     0.9617400     0.8024790
  O       -2.8769990     0.6175240    -0.6981300
  C        0.5469100    -0.5337200    -0.1005860
  C       -0.5469140     0.5337860    -0.1005900
  C        2.0084700    -0.0044810     0.0018080
  C       -2.0084780     0.0045020     0.0018680
  H        0.4732740    -1.1622260    -0.9983970
  H        0.3493020    -1.1927530     0.7554060
  H       -0.4732950     1.1622160    -0.9984660
  H       -0.3492490     1.1928820     0.7553450
units angstrom
no_reorient  #important for SAPT in psi4, default
symmetry c1  #important for SAPT in psi4, default
}

set PROPERTIES_ORIGIN ["COM"]
properties('MP2/aug-cc-pvtz', properties = ['dipole'])
--------------------------------------------------------------------------

    Molecular point group: c1
  Charge       = -2
  Multiplicity = 1
  Basis Set: AUG-CC-PVTZ
    Blend: AUG-CC-PVTZ
  Basis Set: (AUG-CC-PVTZ AUX)
    Blend: AUG-CC-PVTZ-JKFIT

    Orbital Energies [Eh]
    ---------------------

    Doubly Occupied:

       1A    -20.188821     2A    -20.187890     3A    -20.186871
       4A    -20.185119     5A    -11.029282     6A    -11.028425
       7A    -10.927157     8A    -10.926233     9A     -1.052276
      10A     -1.050693    11A     -0.952607    12A     -0.950388
      13A     -0.738325    14A     -0.584884    15A     -0.403358
      16A     -0.401060    17A     -0.331499    18A     -0.326982
      19A     -0.299130    20A     -0.287812    21A     -0.277067
      22A     -0.246554    23A     -0.235953    24A     -0.188243
      25A     -0.179468    26A     -0.110745    27A     -0.099534
      28A     -0.096116    29A     -0.088997    30A     -0.087140
      31A     -0.075810

  @DF-RHF Final Energy:  -453.39631972902401

   => Energetics <=

    Nuclear Repulsion Energy =            337.7395814717361873
    One-Electron Energy =               -1314.8229283961211422
    Two-Electron Energy =                 523.6870271953609972
    Total Energy =                       -453.3963197290239577
  Basis Set: (AUG-CC-PVTZ AUX)
    Blend: AUG-CC-PVTZ-RI
    Molecular point group: c1

    Geometry (in Angstrom), charge = -2, multiplicity = 1:

       Center              X                  Y                   Z               Mass
    ------------   -----------------  -----------------  -----------------  -----------------
         O            2.890612206203    -0.606314770945    -0.694938180970    15.994914619570
         O           -2.210103593797    -0.963483770945     0.797267219030    15.994914619570
         O            2.205754406203     0.959924229055     0.797172219030    15.994914619570
         O           -2.879175593797     0.615708229055    -0.703436780970    15.994914619570
         C            0.544733406203    -0.535535770945    -0.105892780970    12.000000000000
         C           -0.549090593797     0.531970229055    -0.105896780970    12.000000000000
         C            2.006293406203    -0.006296770945    -0.003498780970    12.000000000000
         C           -2.010654593797     0.002686229055    -0.003438780970    12.000000000000
         H            0.471097406203    -1.164041770945    -1.003703780970     1.007825032230
         H            0.347125406203    -1.194568770945     0.750099219030     1.007825032230
         H           -0.475471593797     1.160400229055    -1.003772780970     1.007825032230
         H           -0.351425593797     1.191066229055     0.750038219030     1.007825032230

  Basis Set: AUG-CC-PVTZ
    Blend: AUG-CC-PVTZ
  Basis Set: (AUG-CC-PVTZ AUX)
    Blend: AUG-CC-PVTZ-JKFIT
	 Reference Energy          =    -453.3963197290240146 [Eh]
	 Singles Energy            =      -0.0000000000000000 [Eh]
	 Same-Spin Energy          =      -0.4506332045352854 [Eh]
	 Opposite-Spin Energy      =      -1.3275006993089387 [Eh]
	 Correlation Energy        =      -1.7781339038442241 [Eh]
	 Total Energy              =    -455.1744536328682216 [Eh]

	 ================> DF-SCS-MP2 Energies <==================
	-----------------------------------------------------------
	 SCS Same-Spin Scale       =       0.3333333333333333 [-]
	 SCS Opposite-Spin Scale   =       1.2000000000000000 [-]
	 SCS Same-Spin Energy      =      -0.1502110681784285 [Eh]
	 SCS Opposite-Spin Energy  =      -1.5930008391707264 [Eh]
	 SCS Correlation Energy    =      -1.7432119073491550 [Eh]
	 SCS Total Energy          =    -455.1395316363731922 [Eh]
	-----------------------------------------------------------

  Dipole Moment: [D]
     X:    -0.0473      Y:    -0.0179      Z:    -0.2184     Total:     0.2242

*** Psi4 exiting successfully. Buy a developer a beer!
