                               Psi4 1.3.2 release

  ==> Input File <==

--------------------------------------------------------------------------
#psi4
#
memory 32 gb

molecule  {
-2 1
  O        2.8770000    -0.6176760    -0.6980330
  O       -2.2079270    -0.9616680     0.8025740
  O        2.2079310     0.9617400     0.8024790
  O       -2.8769990     0.6175240    -0.6981300
  C        0.5469100    -0.5337200    -0.1005860
  C       -0.5469140     0.5337860    -0.1005900
  C        1.9402346     0.0436942     0.0567905
  C       -2.0084780     0.0045020     0.0018680
  H        0.4732740    -1.1622260    -0.9983970
  H        0.3493020    -1.1927530     0.7554060
  H       -0.4732950     1.1622160    -0.9984660
  H       -0.3492490     1.1928820     0.7553450
units angstrom
no_reorient  #important for SAPT in psi4, default
symmetry c1  #important for SAPT in psi4, default
}

set PROPERTIES_ORIGIN ["COM"]
properties('MP2/aug-cc-pvtz', properties = ['dipole'])
--------------------------------------------------------------------------

    Molecular point group: c1
  Charge       = -2
  Multiplicity = 1
  Basis Set: AUG-CC-PVTZ
    Blend: AUG-CC-PVTZ
  Basis Set: (AUG-CC-PVTZ AUX)
    Blend: AUG-CC-PVTZ-JKFIT

    Orbital Energies [Eh]
    ---------------------

    Doubly Occupied:

       1A    -20.204766     2A    -20.190977     3A    -20.189335
       4A    -20.166870     5A    -11.031691     6A    -11.028927
       7A    -10.929993     8A    -10.929145     9A     -1.069730
      10A     -1.054024    11A     -0.954923    12A     -0.914416
      13A     -0.747044    14A     -0.592276    15A     -0.411880
      16A     -0.403865    17A     -0.336628    18A     -0.333127
      19A     -0.303347    20A     -0.286757    21A     -0.273694
      22A     -0.249096    23A     -0.236704    24A     -0.192840
      25A     -0.184017    26A     -0.110021    27A     -0.100108
      28A     -0.092861    29A     -0.090517    30A     -0.075967
      31A     -0.073328

  @DF-RHF Final Energy:  -453.38262933964108

   => Energetics <=

    Nuclear Repulsion Energy =            338.1816894338687121
    One-Electron Energy =               -1315.6108837577123722
    Two-Electron Energy =                 524.0465649842025186
    Total Energy =                       -453.3826293396410847
  Basis Set: (AUG-CC-PVTZ AUX)
    Blend: AUG-CC-PVTZ-RI
    Molecular point group: c1

    Geometry (in Angstrom), charge = -2, multiplicity = 1:

       Center              X                  Y                   Z               Mass
    ------------   -----------------  -----------------  -----------------  -----------------
         O            2.884058441589    -0.622658173623    -0.707868724888    15.994914619570
         O           -2.200868558411    -0.966650173623     0.792738275112    15.994914619570
         O            2.214989441589     0.956757826377     0.792643275112    15.994914619570
         O           -2.869940558411     0.612541826377    -0.707965724888    15.994914619570
         C            0.553968441589    -0.538702173623    -0.110421724888    12.000000000000
         C           -0.539855558411     0.528803826377    -0.110425724888    12.000000000000
         C            1.947293041589     0.038712026377     0.046954775112    12.000000000000
         C           -2.001419558411    -0.000480173623    -0.007967724888    12.000000000000
         H            0.480332441589    -1.167208173623    -1.008232724888     1.007825032230
         H            0.356360441589    -1.197735173623     0.745570275112     1.007825032230
         H           -0.466236558411     1.157233826377    -1.008301724888     1.007825032230
         H           -0.342190558411     1.187899826377     0.745509275112     1.007825032230

  Basis Set: AUG-CC-PVTZ
    Blend: AUG-CC-PVTZ
  Basis Set: (AUG-CC-PVTZ AUX)
    Blend: AUG-CC-PVTZ-JKFIT
	 Reference Energy          =    -453.3826293396410847 [Eh]
	 Singles Energy            =      -0.0000000000000000 [Eh]
	 Same-Spin Energy          =      -0.4514558098399676 [Eh]
	 Opposite-Spin Energy      =      -1.3294044463329300 [Eh]
	 Correlation Energy        =      -1.7808602561728977 [Eh]
	 Total Energy              =    -455.1634895958139850 [Eh]

	 ================> DF-SCS-MP2 Energies <==================
	-----------------------------------------------------------
	 SCS Same-Spin Scale       =       0.3333333333333333 [-]
	 SCS Opposite-Spin Scale   =       1.2000000000000000 [-]
	 SCS Same-Spin Energy      =      -0.1504852699466558 [Eh]
	 SCS Opposite-Spin Energy  =      -1.5952853355995160 [Eh]
	 SCS Correlation Energy    =      -1.7457706055461719 [Eh]
	 SCS Total Energy          =    -455.1283999451872546 [Eh]
	-----------------------------------------------------------

  Dipole Moment: [D]
     X:    -0.6832      Y:     0.6126      Z:     0.4558     Total:     1.0246

*** Psi4 exiting successfully. Buy a developer a beer!
