                               Psi4 1.3.2 release

  ==> Input File <==

--------------------------------------------------------------------------
#psi4
#
memory 32 gb

molecule  {
-2 1
  O        2.8770000    -0.6176760    -0.6980330
  O       -2.2079270    -0.9616680     0.8025740
  O        2.2079310     0.9617400     0.8024790
  O       -2.8769990     0.6175240    -0.6981300
  C        0.5469100    -0.5337200    -0.1005860
  C       -0.5469140     0.5337860    -0.1005900
  C        2.1022921     0.0294925     0.0083810
  C       -2.0084780     0.0045020     0.0018680
  H        0.4732740    -1.1622260    -0.9983970
  H        0.3493020    -1.1927530     0.7554060
  H       -0.4732950     1.1622160    -0.9984660
  H       -0.3492490     1.1928820     0.7553450
units angstrom
no_reorient  #important for SAPT in psi4, default
symmetry c1  #important for SAPT in psi4, default
}

set PROPERTIES_ORIGIN ["COM"]
properties('MP2/aug-cc-pvtz', properties = ['dipole'])
--------------------------------------------------------------------------

    Molecular point group: c1
  Charge       = -2
  Multiplicity = 1
  Basis Set: AUG-CC-PVTZ
    Blend: AUG-CC-PVTZ
  Basis Set: (AUG-CC-PVTZ AUX)
    Blend: AUG-CC-PVTZ-JKFIT

    Orbital Energies [Eh]
    ---------------------

    Doubly Occupied:

       1A    -20.194565     2A    -20.193225     3A    -20.183913
       4A    -20.181498     5A    -11.028753     6A    -11.023363
       7A    -10.918628     8A    -10.914155     9A     -1.077709
      10A     -1.046444    11A     -0.987051    12A     -0.947404
      13A     -0.721978    14A     -0.562951    15A     -0.399665
      16A     -0.395963    17A     -0.328064    18A     -0.322725
      19A     -0.306103    20A     -0.292885    21A     -0.278195
      22A     -0.256571    23A     -0.236609    24A     -0.184545
      25A     -0.173977    26A     -0.119665    27A     -0.104442
      28A     -0.099424    29A     -0.090587    30A     -0.084049
      31A     -0.053472

  @DF-RHF Final Energy:  -453.39065053713119

   => Energetics <=

    Nuclear Repulsion Energy =            337.6896871042257544
    One-Electron Energy =               -1314.7435199448943877
    Two-Electron Energy =                 523.6631823035374964
    Total Energy =                       -453.3906505371311368
  Basis Set: (AUG-CC-PVTZ AUX)
    Blend: AUG-CC-PVTZ-RI
    Molecular point group: c1

    Geometry (in Angstrom), charge = -2, multiplicity = 1:

       Center              X                  Y                   Z               Mass
    ------------   -----------------  -----------------  -----------------  -----------------
         O            2.867295456235    -0.621189171022    -0.702861318631    15.994914619570
         O           -2.217631543765    -0.965181171022     0.797745681369    15.994914619570
         O            2.198226456235     0.958226828978     0.797650681369    15.994914619570
         O           -2.886703543765     0.614010828978    -0.702958318631    15.994914619570
         C            0.537205456235    -0.537233171022    -0.105414318631    12.000000000000
         C           -0.556618543765     0.530272828978    -0.105418318631    12.000000000000
         C            2.092587556235     0.025979328978     0.003552681369    12.000000000000
         C           -2.018182543765     0.000988828978    -0.002960318631    12.000000000000
         H            0.463569456235    -1.165739171022    -1.003225318631     1.007825032230
         H            0.339597456235    -1.196266171022     0.750577681369     1.007825032230
         H           -0.482999543765     1.158702828978    -1.003294318631     1.007825032230
         H           -0.358953543765     1.189368828978     0.750516681369     1.007825032230

  Basis Set: AUG-CC-PVTZ
    Blend: AUG-CC-PVTZ
  Basis Set: (AUG-CC-PVTZ AUX)
    Blend: AUG-CC-PVTZ-JKFIT
	 Reference Energy          =    -453.3906505371311937 [Eh]
	 Singles Energy            =      -0.0000000000000000 [Eh]
	 Same-Spin Energy          =      -0.4497702652119643 [Eh]
	 Opposite-Spin Energy      =      -1.3252026342708032 [Eh]
	 Correlation Energy        =      -1.7749728994827674 [Eh]
	 Total Energy              =    -455.1656234366139415 [Eh]

	 ================> DF-SCS-MP2 Energies <==================
	-----------------------------------------------------------
	 SCS Same-Spin Scale       =       0.3333333333333333 [-]
	 SCS Opposite-Spin Scale   =       1.2000000000000000 [-]
	 SCS Same-Spin Energy      =      -0.1499234217373214 [Eh]
	 SCS Opposite-Spin Energy  =      -1.5902431611249639 [Eh]
	 SCS Correlation Energy    =      -1.7401665828622854 [Eh]
	 SCS Total Energy          =    -455.1308171199934804 [Eh]
	-----------------------------------------------------------

  Dipole Moment: [D]
     X:     0.7657      Y:     0.1899      Z:    -0.1656     Total:     0.8061

*** Psi4 exiting successfully. Buy a developer a beer!
