                               Psi4 1.3.2 release

  ==> Input File <==

--------------------------------------------------------------------------
#psi4
#
memory 32 gb

molecule  {
-2 1
  O        2.8118167    -0.6707622    -0.7267750
  O       -2.2079270    -0.9616680     0.8025740
  O        2.2079310     0.9617400     0.8024790
  O       -2.8769990     0.6175240    -0.6981300
  C        0.5469100    -0.5337200    -0.1005860
  C       -0.5469140     0.5337860    -0.1005900
  C        2.0084700    -0.0044810     0.0018080
  C       -2.0084780     0.0045020     0.0018680
  H        0.4732740    -1.1622260    -0.9983970
  H        0.3493020    -1.1927530     0.7554060
  H       -0.4732950     1.1622160    -0.9984660
  H       -0.3492490     1.1928820     0.7553450
units angstrom
no_reorient  #important for SAPT in psi4, default
symmetry c1  #important for SAPT in psi4, default
}

set PROPERTIES_ORIGIN ["COM"]
properties('MP2/aug-cc-pvtz', properties = ['dipole'])
--------------------------------------------------------------------------

    Molecular point group: c1
  Charge       = -2
  Multiplicity = 1
  Basis Set: AUG-CC-PVTZ
    Blend: AUG-CC-PVTZ
  Basis Set: (AUG-CC-PVTZ AUX)
    Blend: AUG-CC-PVTZ-JKFIT

    Orbital Energies [Eh]
    ---------------------

    Doubly Occupied:

       1A    -20.191817     2A    -20.190511     3A    -20.186890
       4A    -20.184862     5A    -11.030520     6A    -11.026991
       7A    -10.923201     8A    -10.920407     9A     -1.052085
      10A     -1.049452    11A     -0.959258    12A     -0.950615
      13A     -0.734176    14A     -0.580839    15A     -0.402900
      16A     -0.400060    17A     -0.329046    18A     -0.325753
      19A     -0.299494    20A     -0.288903    21A     -0.276296
      22A     -0.246484    23A     -0.235264    24A     -0.185830
      25A     -0.177153    26A     -0.111076    27A     -0.102255
      28A     -0.095938    29A     -0.092422    30A     -0.086986
      31A     -0.070843

  @DF-RHF Final Energy:  -453.39411883674364

   => Energetics <=

    Nuclear Repulsion Energy =            338.1505275622895965
    One-Electron Energy =               -1315.6726386588020432
    Two-Electron Energy =                 524.1279922597686891
    Total Energy =                       -453.3941188367437007
  Basis Set: (AUG-CC-PVTZ AUX)
    Blend: AUG-CC-PVTZ-RI
    Molecular point group: c1

    Geometry (in Angstrom), charge = -2, multiplicity = 1:

       Center              X                  Y                   Z               Mass
    ------------   -----------------  -----------------  -----------------  -----------------
         O            2.820804067277    -0.663441987249    -0.726960637952    15.994914619570
         O           -2.198939632723    -0.954347787249     0.802388362048    15.994914619570
         O            2.216918367277     0.969060212751     0.802293362048    15.994914619570
         O           -2.868011632723     0.624844212751    -0.698315637952    15.994914619570
         C            0.555897367277    -0.526399787249    -0.100771637952    12.000000000000
         C           -0.537926632723     0.541106212751    -0.100775637952    12.000000000000
         C            2.017457367277     0.002839212751     0.001622362048    12.000000000000
         C           -1.999490632723     0.011822212751     0.001682362048    12.000000000000
         H            0.482261367277    -1.154905787249    -0.998582637952     1.007825032230
         H            0.358289367277    -1.185432787249     0.755220362048     1.007825032230
         H           -0.464307632723     1.169536212751    -0.998651637952     1.007825032230
         H           -0.340261632723     1.200202212751     0.755159362048     1.007825032230

  Basis Set: AUG-CC-PVTZ
    Blend: AUG-CC-PVTZ
  Basis Set: (AUG-CC-PVTZ AUX)
    Blend: AUG-CC-PVTZ-JKFIT
	 Reference Energy          =    -453.3941188367436439 [Eh]
	 Singles Energy            =      -0.0000000000000000 [Eh]
	 Same-Spin Energy          =      -0.4508633256078119 [Eh]
	 Opposite-Spin Energy      =      -1.3279163303571171 [Eh]
	 Correlation Energy        =      -1.7787796559649292 [Eh]
	 Total Energy              =    -455.1728984927085548 [Eh]

	 ================> DF-SCS-MP2 Energies <==================
	-----------------------------------------------------------
	 SCS Same-Spin Scale       =       0.3333333333333333 [-]
	 SCS Opposite-Spin Scale   =       1.2000000000000000 [-]
	 SCS Same-Spin Energy      =      -0.1502877752026040 [Eh]
	 SCS Opposite-Spin Energy  =      -1.5934995964285406 [Eh]
	 SCS Correlation Energy    =      -1.7437873716311445 [Eh]
	 SCS Total Energy          =    -455.1379062083747726 [Eh]
	-----------------------------------------------------------

  Dipole Moment: [D]
     X:     0.1936      Y:     0.0715      Z:    -0.1697     Total:     0.2672

*** Psi4 exiting successfully. Buy a developer a beer!
