                               Psi4 1.3.2 release

  ==> Input File <==

--------------------------------------------------------------------------
#psi4
#
memory 32 gb

molecule  {
-2 1
  O        2.9080239    -0.5899958    -0.6823740
  O       -2.2079270    -0.9616680     0.8025740
  O        2.2079310     0.9617400     0.8024790
  O       -2.8769990     0.6175240    -0.6981300
  C        0.5469100    -0.5337200    -0.1005860
  C       -0.5469140     0.5337860    -0.1005900
  C        2.0084700    -0.0044810     0.0018080
  C       -2.0084780     0.0045020     0.0018680
  H        0.4732740    -1.1622260    -0.9983970
  H        0.3493020    -1.1927530     0.7554060
  H       -0.4732950     1.1622160    -0.9984660
  H       -0.3492490     1.1928820     0.7553450
units angstrom
no_reorient  #important for SAPT in psi4, default
symmetry c1  #important for SAPT in psi4, default
}

set PROPERTIES_ORIGIN ["COM"]
properties('MP2/aug-cc-pvtz', properties = ['dipole'])
--------------------------------------------------------------------------

    Molecular point group: c1
  Charge       = -2
  Multiplicity = 1
  Basis Set: AUG-CC-PVTZ
    Blend: AUG-CC-PVTZ
  Basis Set: (AUG-CC-PVTZ AUX)
    Blend: AUG-CC-PVTZ-JKFIT

    Orbital Energies [Eh]
    ---------------------

    Doubly Occupied:

       1A    -20.189187     2A    -20.187311     3A    -20.187252
       4A    -20.183743     5A    -11.029717     6A    -11.028009
       7A    -10.928393     8A    -10.926883     9A     -1.052527
      10A     -1.050774    11A     -0.952982    12A     -0.948540
      13A     -0.739115    14A     -0.585657    15A     -0.403679
      16A     -0.401032    17A     -0.331998    18A     -0.327188
      19A     -0.299175    20A     -0.287507    21A     -0.277149
      22A     -0.246572    23A     -0.236048    24A     -0.188701
      25A     -0.179923    26A     -0.110939    27A     -0.099455
      28A     -0.095306    29A     -0.089196    30A     -0.086109
      31A     -0.076626

  @DF-RHF Final Energy:  -453.39617421788785

   => Energetics <=

    Nuclear Repulsion Energy =            337.6736457403638951
    One-Electron Energy =               -1314.6862495227710497
    Two-Electron Energy =                 523.6164295645193079
    Total Energy =                       -453.3961742178878467
  Basis Set: (AUG-CC-PVTZ AUX)
    Blend: AUG-CC-PVTZ-RI
    Molecular point group: c1

    Geometry (in Angstrom), charge = -2, multiplicity = 1:

       Center              X                  Y                   Z               Mass
    ------------   -----------------  -----------------  -----------------  -----------------
         O            2.903746779437    -0.593811187606    -0.688681388971    15.994914619570
         O           -2.212204120563    -0.965483387606     0.796266611029    15.994914619570
         O            2.203653879437     0.957924612394     0.796171611029    15.994914619570
         O           -2.881276120563     0.613708612394    -0.704437388971    15.994914619570
         C            0.542632879437    -0.537535387606    -0.106893388971    12.000000000000
         C           -0.551191120563     0.529970612394    -0.106897388971    12.000000000000
         C            2.004192879437    -0.008296387606    -0.004499388971    12.000000000000
         C           -2.012755120563     0.000686612394    -0.004439388971    12.000000000000
         H            0.468996879437    -1.166041387606    -1.004704388971     1.007825032230
         H            0.345024879437    -1.196568387606     0.749098611029     1.007825032230
         H           -0.477572120563     1.158400612394    -1.004773388971     1.007825032230
         H           -0.353526120563     1.189066612394     0.749037611029     1.007825032230

  Basis Set: AUG-CC-PVTZ
    Blend: AUG-CC-PVTZ
  Basis Set: (AUG-CC-PVTZ AUX)
    Blend: AUG-CC-PVTZ-JKFIT
	 Reference Energy          =    -453.3961742178878467 [Eh]
	 Singles Energy            =      -0.0000000000000000 [Eh]
	 Same-Spin Energy          =      -0.4506118953353153 [Eh]
	 Opposite-Spin Energy      =      -1.3274639615316706 [Eh]
	 Correlation Energy        =      -1.7780758568669859 [Eh]
	 Total Energy              =    -455.1742500747548092 [Eh]

	 ================> DF-SCS-MP2 Energies <==================
	-----------------------------------------------------------
	 SCS Same-Spin Scale       =       0.3333333333333333 [-]
	 SCS Opposite-Spin Scale   =       1.2000000000000000 [-]
	 SCS Same-Spin Energy      =      -0.1502039651117718 [Eh]
	 SCS Opposite-Spin Energy  =      -1.5929567538380047 [Eh]
	 SCS Correlation Energy    =      -1.7431607189497764 [Eh]
	 SCS Total Energy          =    -455.1393349368375993 [Eh]
	-----------------------------------------------------------

  Dipole Moment: [D]
     X:    -0.0938      Y:    -0.0376      Z:    -0.2281     Total:     0.2494

*** Psi4 exiting successfully. Buy a developer a beer!
