                               Psi4 1.3.2 release

  ==> Input File <==

--------------------------------------------------------------------------
#psi4
#
memory 32 gb

molecule  {
-2 1
  O        2.8446335    -0.6434657    -0.7141941
  O       -2.2079270    -0.9616680     0.8025740
  O        2.2079310     0.9617400     0.8024790
  O       -2.8769990     0.6175240    -0.6981300
  C        0.5469100    -0.5337200    -0.1005860
  C       -0.5469140     0.5337860    -0.1005900
  C        2.0084700    -0.0044810     0.0018080
  C       -2.0084780     0.0045020     0.0018680
  H        0.4732740    -1.1622260    -0.9983970
  H        0.3493020    -1.1927530     0.7554060
  H       -0.4732950     1.1622160    -0.9984660
  H       -0.3492490     1.1928820     0.7553450
units angstrom
no_reorient  #important for SAPT in psi4, default
symmetry c1  #important for SAPT in psi4, default
}

set PROPERTIES_ORIGIN ["COM"]
properties('MP2/aug-cc-pvtz', properties = ['dipole'])
--------------------------------------------------------------------------

    Molecular point group: c1
  Charge       = -2
  Multiplicity = 1
  Basis Set: AUG-CC-PVTZ
    Blend: AUG-CC-PVTZ
  Basis Set: (AUG-CC-PVTZ AUX)
    Blend: AUG-CC-PVTZ-JKFIT

    Orbital Energies [Eh]
    ---------------------

    Doubly Occupied:

       1A    -20.189521     2A    -20.189170     3A    -20.187682
       4A    -20.185685     5A    -11.029678     6A    -11.027932
       7A    -10.924551     8A    -10.923038     9A     -1.051946
      10A     -1.050115    11A     -0.955788    12A     -0.951430
      13A     -0.735874    14A     -0.582495    15A     -0.402817
      16A     -0.400719    17A     -0.330001    18A     -0.326287
      19A     -0.299219    20A     -0.288591    21A     -0.276649
      22A     -0.246487    23A     -0.235603    24A     -0.186807
      25A     -0.178095    26A     -0.110585    27A     -0.101275
      28A     -0.096310    29A     -0.090693    30A     -0.087668
      31A     -0.072993

  @DF-RHF Final Energy:  -453.39559053620656

   => Energetics <=

    Nuclear Repulsion Energy =            337.9720559008356986
    One-Electron Energy =               -1315.3038844115728807
    Two-Electron Energy =                 523.9362379745306271
    Total Energy =                       -453.3955905362065550
  Basis Set: (AUG-CC-PVTZ AUX)
    Blend: AUG-CC-PVTZ-RI
    Molecular point group: c1

    Geometry (in Angstrom), charge = -2, multiplicity = 1:

       Center              X                  Y                   Z               Mass
    ------------   -----------------  -----------------  -----------------  -----------------
         O            2.849096278217    -0.639908969528    -0.716114319097    15.994914619570
         O           -2.203464221783    -0.958111269528     0.800653780903    15.994914619570
         O            2.212393778217     0.965296730472     0.800558780903    15.994914619570
         O           -2.872536221783     0.621080730472    -0.700050219097    15.994914619570
         C            0.551372778217    -0.530163269528    -0.102506219097    12.000000000000
         C           -0.542451221783     0.537342730472    -0.102510219097    12.000000000000
         C            2.012932778217    -0.000924269528    -0.000112219097    12.000000000000
         C           -2.004015221783     0.008058730472    -0.000052219097    12.000000000000
         H            0.477736778217    -1.158669269528    -1.000317219097     1.007825032230
         H            0.353764778217    -1.189196269528     0.753485780903     1.007825032230
         H           -0.468832221783     1.165772730472    -1.000386219097     1.007825032230
         H           -0.344786221783     1.196438730472     0.753424780903     1.007825032230

  Basis Set: AUG-CC-PVTZ
    Blend: AUG-CC-PVTZ
  Basis Set: (AUG-CC-PVTZ AUX)
    Blend: AUG-CC-PVTZ-JKFIT
	 Reference Energy          =    -453.3955905362065550 [Eh]
	 Singles Energy            =      -0.0000000000000000 [Eh]
	 Same-Spin Energy          =      -0.4507467125287805 [Eh]
	 Opposite-Spin Energy      =      -1.3277030346729872 [Eh]
	 Correlation Energy        =      -1.7784497472017677 [Eh]
	 Total Energy              =    -455.1740402834083170 [Eh]

	 ================> DF-SCS-MP2 Energies <==================
	-----------------------------------------------------------
	 SCS Same-Spin Scale       =       0.3333333333333333 [-]
	 SCS Opposite-Spin Scale   =       1.2000000000000000 [-]
	 SCS Same-Spin Energy      =      -0.1502489041762602 [Eh]
	 SCS Opposite-Spin Energy  =      -1.5932436416075846 [Eh]
	 SCS Correlation Energy    =      -1.7434925457838448 [Eh]
	 SCS Total Energy          =    -455.1390830819904068 [Eh]
	-----------------------------------------------------------

  Dipole Moment: [D]
     X:     0.0960      Y:     0.0352      Z:    -0.1865     Total:     0.2127

*** Psi4 exiting successfully. Buy a developer a beer!
