                               Psi4 1.3.2 release

  ==> Input File <==

--------------------------------------------------------------------------
#psi4
#
memory 32 gb

molecule  {
-2 1
  O        2.8770000    -0.6176760    -0.6980330
  O       -2.2079270    -0.9616680     0.8025740
  O        2.2079310     0.9617400     0.8024790
  O       -2.8769990     0.6175240    -0.6981300
  C        0.5469100    -0.5337200    -0.1005860
  C       -0.5469140     0.5337860    -0.1005900
  C        2.0204370    -0.0314906    -0.0438415
  C       -2.0084780     0.0045020     0.0018680
  H        0.4732740    -1.1622260    -0.9983970
  H        0.3493020    -1.1927530     0.7554060
  H       -0.4732950     1.1622160    -0.9984660
  H       -0.3492490     1.1928820     0.7553450
units angstrom
no_reorient  #important for SAPT in psi4, default
symmetry c1  #important for SAPT in psi4, default
}

set PROPERTIES_ORIGIN ["COM"]
properties('MP2/aug-cc-pvtz', properties = ['dipole'])
--------------------------------------------------------------------------

    Molecular point group: c1
  Charge       = -2
  Multiplicity = 1
  Basis Set: AUG-CC-PVTZ
    Blend: AUG-CC-PVTZ
  Basis Set: (AUG-CC-PVTZ AUX)
    Blend: AUG-CC-PVTZ-JKFIT

    Orbital Energies [Eh]
    ---------------------

    Doubly Occupied:

       1A    -20.200438     2A    -20.187997     3A    -20.186004
       4A    -20.174722     5A    -11.028633     6A    -11.028357
       7A    -10.926368     8A    -10.924930     9A     -1.063915
      10A     -1.050831    11A     -0.951762    12A     -0.941390
      13A     -0.736567    14A     -0.584880    15A     -0.402857
      16A     -0.401400    17A     -0.330370    18A     -0.328440
      19A     -0.299208    20A     -0.288307    21A     -0.279214
      22A     -0.247831    23A     -0.235975    24A     -0.187788
      25A     -0.178004    26A     -0.113633    27A     -0.099034
      28A     -0.090759    29A     -0.088291    30A     -0.084775
      31A     -0.074625

  @DF-RHF Final Energy:  -453.39179501463235

   => Energetics <=

    Nuclear Repulsion Energy =            337.7434756672394656
    One-Electron Energy =               -1314.8359260591744260
    Two-Electron Energy =                 523.7006553773027235
    Total Energy =                       -453.3917950146322937
  Basis Set: (AUG-CC-PVTZ AUX)
    Blend: AUG-CC-PVTZ-RI
    Molecular point group: c1

    Geometry (in Angstrom), charge = -2, multiplicity = 1:

       Center              X                  Y                   Z               Mass
    ------------   -----------------  -----------------  -----------------  -----------------
         O            2.875762425320    -0.614881170392    -0.697459501358    15.994914619570
         O           -2.209164574680    -0.958873170392     0.803147498642    15.994914619570
         O            2.206693425320     0.964534829608     0.803052498642    15.994914619570
         O           -2.878236574680     0.620318829608    -0.697556501358    15.994914619570
         C            0.545672425320    -0.530925170392    -0.100012501358    12.000000000000
         C           -0.548151574680     0.536580829608    -0.100016501358    12.000000000000
         C            2.019199425320    -0.028695770392    -0.043268001358    12.000000000000
         C           -2.009715574680     0.007296829608     0.002441498642    12.000000000000
         H            0.472036425320    -1.159431170392    -0.997823501358     1.007825032230
         H            0.348064425320    -1.189958170392     0.755979498642     1.007825032230
         H           -0.474532574680     1.165010829608    -0.997892501358     1.007825032230
         H           -0.350486574680     1.195676829608     0.755918498642     1.007825032230

  Basis Set: AUG-CC-PVTZ
    Blend: AUG-CC-PVTZ
  Basis Set: (AUG-CC-PVTZ AUX)
    Blend: AUG-CC-PVTZ-JKFIT
	 Reference Energy          =    -453.3917950146323506 [Eh]
	 Singles Energy            =      -0.0000000000000000 [Eh]
	 Same-Spin Energy          =      -0.4506807906043915 [Eh]
	 Opposite-Spin Energy      =      -1.3276673591482742 [Eh]
	 Correlation Energy        =      -1.7783481497526656 [Eh]
	 Total Energy              =    -455.1701431643850242 [Eh]

	 ================> DF-SCS-MP2 Energies <==================
	-----------------------------------------------------------
	 SCS Same-Spin Scale       =       0.3333333333333333 [-]
	 SCS Opposite-Spin Scale   =       1.2000000000000000 [-]
	 SCS Same-Spin Energy      =      -0.1502269302014638 [Eh]
	 SCS Opposite-Spin Energy  =      -1.5932008309779289 [Eh]
	 SCS Correlation Energy    =      -1.7434277611793927 [Eh]
	 SCS Total Energy          =    -455.1352227758117692 [Eh]
	-----------------------------------------------------------

  Dipole Moment: [D]
     X:     0.1862      Y:    -0.4040      Z:    -0.6183     Total:     0.7617

*** Psi4 exiting successfully. Buy a developer a beer!
