                               Psi4 1.3.2 release

  ==> Input File <==

--------------------------------------------------------------------------
#psi4
#
memory 32 gb

molecule  {
0 1
  N        2.4174678    -0.4213611    -0.0178596
  N       -2.5385500    -0.2293020    -0.0118130
  C       -0.0034440    -0.3352880    -0.0308710
  C        1.2721860     0.4950040     0.0229580
  C       -1.2742550     0.5122230     0.0365220
  H        0.0051090    -0.9258550    -0.9544470
  H       -0.0068300    -1.0519040     0.8031080
  H        1.2667210     1.1093200     0.9398110
  H        1.2834760     1.1922470    -0.8225180
  H       -1.2810840     1.2286150    -0.7932870
  H       -1.2759100     1.1062970     0.9579340
  H        2.5106650    -0.9703360     0.7209670
  H        3.2948780     0.1919650    -0.1037960
  H       -2.5611900    -0.9003030     0.7556260
  H       -2.5647950    -0.7858640    -0.8657540
units angstrom
no_reorient  #important for SAPT in psi4, default
symmetry c1  #important for SAPT in psi4, default
}

set PROPERTIES_ORIGIN ["COM"]
properties('MP2/aug-cc-pvtz', properties = ['dipole'])
--------------------------------------------------------------------------

    Molecular point group: c1
  Charge       = 0
  Multiplicity = 1
  Basis Set: AUG-CC-PVTZ
    Blend: AUG-CC-PVTZ
  Basis Set: (AUG-CC-PVTZ AUX)
    Blend: AUG-CC-PVTZ-JKFIT

    Orbital Energies [Eh]
    ---------------------

    Doubly Occupied:

       1A    -15.539066     2A    -15.536839     3A    -11.251123
       4A    -11.245422     5A    -11.215804     6A     -1.187007
       7A     -1.171675     8A     -1.013990     9A     -0.876109
      10A     -0.806491    11A     -0.679873    12A     -0.659990
      13A     -0.623240    14A     -0.604191    15A     -0.567182
      16A     -0.531527    17A     -0.523507    18A     -0.488316
      19A     -0.473699    20A     -0.396489    21A     -0.381915

  @DF-RHF Final Energy:  -228.38721561293880

   => Energetics <=

    Nuclear Repulsion Energy =            186.7016624803617617
    One-Electron Energy =                -678.6308469714738294
    Two-Electron Energy =                 263.5419688781732930
    Total Energy =                       -228.3872156129388031
  Basis Set: (AUG-CC-PVTZ AUX)
    Blend: AUG-CC-PVTZ-RI
    Molecular point group: c1

    Geometry (in Angstrom), charge = 0, multiplicity = 1:

       Center              X                  Y                   Z               Mass
    ------------   -----------------  -----------------  -----------------  -----------------
         N            2.432118497340    -0.409856463666    -0.025559385434    14.003074004430
         N           -2.523899302660    -0.217797363666    -0.019512785434    14.003074004430
         C            0.011206697340    -0.323783363666    -0.038570785434    12.000000000000
         C            1.286836697340     0.506508636334     0.015258214566    12.000000000000
         C           -1.259604302660     0.523727636334     0.028822214566    12.000000000000
         H            0.019759697340    -0.914350363666    -0.962146785434     1.007825032230
         H            0.007820697340    -1.040399363666     0.795408214566     1.007825032230
         H            1.281371697340     1.120824636334     0.932111214566     1.007825032230
         H            1.298126697340     1.203751636334    -0.830217785434     1.007825032230
         H           -1.266433302660     1.240119636334    -0.800986785434     1.007825032230
         H           -1.261259302660     1.117801636334     0.950234214566     1.007825032230
         H            2.525315697340    -0.958831363666     0.713267214566     1.007825032230
         H            3.309528697340     0.203469636334    -0.111495785434     1.007825032230
         H           -2.546539302660    -0.888798363666     0.747926214566     1.007825032230
         H           -2.550144302660    -0.774359363666    -0.873453785434     1.007825032230

  Basis Set: AUG-CC-PVTZ
    Blend: AUG-CC-PVTZ
  Basis Set: (AUG-CC-PVTZ AUX)
    Blend: AUG-CC-PVTZ-JKFIT
	 Reference Energy          =    -228.3872156129388031 [Eh]
	 Singles Energy            =      -0.0000000000000000 [Eh]
	 Same-Spin Energy          =      -0.2379567975112925 [Eh]
	 Opposite-Spin Energy      =      -0.8325036225938941 [Eh]
	 Correlation Energy        =      -1.0704604201051866 [Eh]
	 Total Energy              =    -229.4576760330439811 [Eh]

	 ================> DF-SCS-MP2 Energies <==================
	-----------------------------------------------------------
	 SCS Same-Spin Scale       =       0.3333333333333333 [-]
	 SCS Opposite-Spin Scale   =       1.2000000000000000 [-]
	 SCS Same-Spin Energy      =      -0.0793189325037642 [Eh]
	 SCS Opposite-Spin Energy  =      -0.9990043471126728 [Eh]
	 SCS Correlation Energy    =      -1.0783232796164370 [Eh]
	 SCS Total Energy          =    -229.4655388925552302 [Eh]
	-----------------------------------------------------------

  Dipole Moment: [D]
     X:     1.3355      Y:    -0.0697      Z:     0.8756     Total:     1.5984

*** Psi4 exiting successfully. Buy a developer a beer!
