                               Psi4 1.3.2 release

  ==> Input File <==

--------------------------------------------------------------------------
#psi4
#
memory 32 gb

molecule  {
0 1
  N        2.3833289    -0.4539884    -0.1105950
  N       -2.5385500    -0.2293020    -0.0118130
  C       -0.0034440    -0.3352880    -0.0308710
  C        1.2721860     0.4950040     0.0229580
  C       -1.2742550     0.5122230     0.0365220
  H        0.0051090    -0.9258550    -0.9544470
  H       -0.0068300    -1.0519040     0.8031080
  H        1.2667210     1.1093200     0.9398110
  H        1.2834760     1.1922470    -0.8225180
  H       -1.2810840     1.2286150    -0.7932870
  H       -1.2759100     1.1062970     0.9579340
  H        2.5106650    -0.9703360     0.7209670
  H        3.2948780     0.1919650    -0.1037960
  H       -2.5611900    -0.9003030     0.7556260
  H       -2.5647950    -0.7858640    -0.8657540
units angstrom
no_reorient  #important for SAPT in psi4, default
symmetry c1  #important for SAPT in psi4, default
}

set PROPERTIES_ORIGIN ["COM"]
properties('MP2/aug-cc-pvtz', properties = ['dipole'])
--------------------------------------------------------------------------

    Molecular point group: c1
  Charge       = 0
  Multiplicity = 1
  Basis Set: AUG-CC-PVTZ
    Blend: AUG-CC-PVTZ
  Basis Set: (AUG-CC-PVTZ AUX)
    Blend: AUG-CC-PVTZ-JKFIT

    Orbital Energies [Eh]
    ---------------------

    Doubly Occupied:

       1A    -15.553560     2A    -15.538702     3A    -11.251031
       4A    -11.244949     5A    -11.215013     6A     -1.183733
       7A     -1.169466     8A     -1.010356     9A     -0.872048
      10A     -0.804669    11A     -0.678011    12A     -0.646636
      13A     -0.623501    14A     -0.596192    15A     -0.564715
      16A     -0.525648    17A     -0.520962    18A     -0.485479
      19A     -0.472823    20A     -0.408458    21A     -0.383979

  @DF-RHF Final Energy:  -228.38620866876326

   => Energetics <=

    Nuclear Repulsion Energy =            186.5482554327099933
    One-Electron Energy =                -678.3690660699079444
    Two-Electron Energy =                 263.4346019684347198
    Total Energy =                       -228.3862086687632313
  Basis Set: (AUG-CC-PVTZ AUX)
    Blend: AUG-CC-PVTZ-RI
    Molecular point group: c1

    Geometry (in Angstrom), charge = 0, multiplicity = 1:

       Center              X                  Y                   Z               Mass
    ------------   -----------------  -----------------  -----------------  -----------------
         N            2.404432366802    -0.436316709512    -0.100766389465    14.003074004430
         N           -2.517446533198    -0.211630309512    -0.001984389465    14.003074004430
         C            0.017659466802    -0.317616309512    -0.021042389465    12.000000000000
         C            1.293289466802     0.512675690488     0.032786610535    12.000000000000
         C           -1.253151533198     0.529894690488     0.046350610535    12.000000000000
         H            0.026212466802    -0.908183309512    -0.944618389465     1.007825032230
         H            0.014273466802    -1.034232309512     0.812936610535     1.007825032230
         H            1.287824466802     1.126991690488     0.949639610535     1.007825032230
         H            1.304579466802     1.209918690488    -0.812689389465     1.007825032230
         H           -1.259980533198     1.246286690488    -0.783458389465     1.007825032230
         H           -1.254806533198     1.123968690488     0.967762610535     1.007825032230
         H            2.531768466802    -0.952664309512     0.730795610535     1.007825032230
         H            3.315981466802     0.209636690488    -0.093967389465     1.007825032230
         H           -2.540086533198    -0.882631309512     0.765454610535     1.007825032230
         H           -2.543691533198    -0.768192309512    -0.855925389465     1.007825032230

  Basis Set: AUG-CC-PVTZ
    Blend: AUG-CC-PVTZ
  Basis Set: (AUG-CC-PVTZ AUX)
    Blend: AUG-CC-PVTZ-JKFIT
	 Reference Energy          =    -228.3862086687632598 [Eh]
	 Singles Energy            =      -0.0000000000000000 [Eh]
	 Same-Spin Energy          =      -0.2386989843743768 [Eh]
	 Opposite-Spin Energy      =      -0.8349135455566767 [Eh]
	 Correlation Energy        =      -1.0736125299310535 [Eh]
	 Total Energy              =    -229.4598211986942999 [Eh]

	 ================> DF-SCS-MP2 Energies <==================
	-----------------------------------------------------------
	 SCS Same-Spin Scale       =       0.3333333333333333 [-]
	 SCS Opposite-Spin Scale   =       1.2000000000000000 [-]
	 SCS Same-Spin Energy      =      -0.0795663281247923 [Eh]
	 SCS Opposite-Spin Energy  =      -1.0018962546680121 [Eh]
	 SCS Correlation Energy    =      -1.0814625827928044 [Eh]
	 SCS Total Energy          =    -229.4676712515560553 [Eh]
	-----------------------------------------------------------

  Dipole Moment: [D]
     X:     1.3711      Y:    -0.0004      Z:     1.0587     Total:     1.7323

*** Psi4 exiting successfully. Buy a developer a beer!
