                               Psi4 1.3.2 release

  ==> Input File <==

--------------------------------------------------------------------------
#psi4
#
memory 32 gb

molecule  {
0 1
  N        2.4474120    -0.3743850    -0.1038020
  N       -2.5385500    -0.2293020    -0.0118130
  C       -0.0034440    -0.3352880    -0.0308710
  C        1.2721860     0.4950040     0.0229580
  C       -1.2742550     0.5122230     0.0365220
  H        0.0051090    -0.9258550    -0.9544470
  H       -0.0068300    -1.0519040     0.8031080
  H        1.2667210     1.1093200     0.9398110
  H        1.2834760     1.1922470    -0.8225180
  H       -1.2810840     1.2286150    -0.7932870
  H       -1.2759100     1.1062970     0.9579340
  H        2.5732316    -0.9396130     0.7352982
  H        3.2948780     0.1919650    -0.1037960
  H       -2.5611900    -0.9003030     0.7556260
  H       -2.5647950    -0.7858640    -0.8657540
units angstrom
no_reorient  #important for SAPT in psi4, default
symmetry c1  #important for SAPT in psi4, default
}

set PROPERTIES_ORIGIN ["COM"]
properties('MP2/aug-cc-pvtz', properties = ['dipole'])
--------------------------------------------------------------------------

    Molecular point group: c1
  Charge       = 0
  Multiplicity = 1
  Basis Set: AUG-CC-PVTZ
    Blend: AUG-CC-PVTZ
  Basis Set: (AUG-CC-PVTZ AUX)
    Blend: AUG-CC-PVTZ-JKFIT

    Orbital Energies [Eh]
    ---------------------

    Doubly Occupied:

       1A    -15.544271     2A    -15.539632     3A    -11.250808
       4A    -11.246271     5A    -11.216794     6A     -1.184074
       7A     -1.170833     8A     -1.013859     9A     -0.873921
      10A     -0.803775    11A     -0.678175    12A     -0.650335
      13A     -0.630955    14A     -0.595572    15A     -0.561774
      16A     -0.536723    17A     -0.522058    18A     -0.487926
      19A     -0.473146    20A     -0.401379    21A     -0.385933

  @DF-RHF Final Energy:  -228.39787634063390

   => Energetics <=

    Nuclear Repulsion Energy =            186.2505867011096541
    One-Electron Energy =                -677.7604961093605880
    Two-Electron Energy =                 263.1120330676170056
    Total Energy =                       -228.3978763406338999
  Basis Set: (AUG-CC-PVTZ AUX)
    Blend: AUG-CC-PVTZ-RI
    Molecular point group: c1

    Geometry (in Angstrom), charge = 0, multiplicity = 1:

       Center              X                  Y                   Z               Mass
    ------------   -----------------  -----------------  -----------------  -----------------
         N            2.455551649871    -0.372177506232    -0.095452327356    14.003074004430
         N           -2.530410350129    -0.227094506232    -0.003463327356    14.003074004430
         C            0.004695649871    -0.333080506232    -0.022521327356    12.000000000000
         C            1.280325649871     0.497211493768     0.031307672644    12.000000000000
         C           -1.266115350129     0.514430493768     0.044871672644    12.000000000000
         H            0.013248649871    -0.923647506232    -0.946097327356     1.007825032230
         H            0.001309649871    -1.049696506232     0.811457672644     1.007825032230
         H            1.274860649871     1.111527493768     0.948160672644     1.007825032230
         H            1.291615649871     1.194454493768    -0.814168327356     1.007825032230
         H           -1.272944350129     1.230822493768    -0.784937327356     1.007825032230
         H           -1.267770350129     1.108504493768     0.966283672644     1.007825032230
         H            2.581371249871    -0.937405506232     0.743647872644     1.007825032230
         H            3.303017649871     0.194172493768    -0.095446327356     1.007825032230
         H           -2.553050350129    -0.898095506232     0.763975672644     1.007825032230
         H           -2.556655350129    -0.783656506232    -0.857404327356     1.007825032230

  Basis Set: AUG-CC-PVTZ
    Blend: AUG-CC-PVTZ
  Basis Set: (AUG-CC-PVTZ AUX)
    Blend: AUG-CC-PVTZ-JKFIT
	 Reference Energy          =    -228.3978763406338999 [Eh]
	 Singles Energy            =      -0.0000000000000000 [Eh]
	 Same-Spin Energy          =      -0.2381119650188938 [Eh]
	 Opposite-Spin Energy      =      -0.8330171890976971 [Eh]
	 Correlation Energy        =      -1.0711291541165908 [Eh]
	 Total Energy              =    -229.4690054947504905 [Eh]

	 ================> DF-SCS-MP2 Energies <==================
	-----------------------------------------------------------
	 SCS Same-Spin Scale       =       0.3333333333333333 [-]
	 SCS Opposite-Spin Scale   =       1.2000000000000000 [-]
	 SCS Same-Spin Energy      =      -0.0793706550062979 [Eh]
	 SCS Opposite-Spin Energy  =      -0.9996206269172364 [Eh]
	 SCS Correlation Energy    =      -1.0789912819235343 [Eh]
	 SCS Total Energy          =    -229.4768676225574211 [Eh]
	-----------------------------------------------------------

  Dipole Moment: [D]
     X:     1.3213      Y:    -0.0794      Z:     1.0350     Total:     1.6803

*** Psi4 exiting successfully. Buy a developer a beer!
