                               Psi4 1.3.2 release

  ==> Input File <==

--------------------------------------------------------------------------
#psi4
#
memory 32 gb

molecule  {
0 1
  N        2.4474120    -0.3743850    -0.1038020
  N       -2.5385500    -0.2293020    -0.0118130
  C       -0.0034440    -0.3352880    -0.0308710
  C        1.3701274     0.6132432     0.0270025
  C       -1.2742550     0.5122230     0.0365220
  H        0.0051090    -0.9258550    -0.9544470
  H       -0.0068300    -1.0519040     0.8031080
  H        1.2667210     1.1093200     0.9398110
  H        1.2834760     1.1922470    -0.8225180
  H       -1.2810840     1.2286150    -0.7932870
  H       -1.2759100     1.1062970     0.9579340
  H        2.5106650    -0.9703360     0.7209670
  H        3.2948780     0.1919650    -0.1037960
  H       -2.5611900    -0.9003030     0.7556260
  H       -2.5647950    -0.7858640    -0.8657540
units angstrom
no_reorient  #important for SAPT in psi4, default
symmetry c1  #important for SAPT in psi4, default
}

set PROPERTIES_ORIGIN ["COM"]
properties('MP2/aug-cc-pvtz', properties = ['dipole'])
--------------------------------------------------------------------------

    Molecular point group: c1
  Charge       = 0
  Multiplicity = 1
  Basis Set: AUG-CC-PVTZ
    Blend: AUG-CC-PVTZ
  Basis Set: (AUG-CC-PVTZ AUX)
    Blend: AUG-CC-PVTZ-JKFIT

    Orbital Energies [Eh]
    ---------------------

    Doubly Occupied:

       1A    -15.546161     2A    -15.537425     3A    -11.247264
       4A    -11.243107     5A    -11.219567     6A     -1.181709
       7A     -1.169940     8A     -0.994920     9A     -0.876876
      10A     -0.806926    11A     -0.678799    12A     -0.657137
      13A     -0.627210    14A     -0.594678    15A     -0.563964
      16A     -0.540238    17A     -0.526264    18A     -0.475889
      19A     -0.459956    20A     -0.408442    21A     -0.374717

  @DF-RHF Final Energy:  -228.37800972317979

   => Energetics <=

    Nuclear Repulsion Energy =            184.8573639355996079
    One-Electron Energy =                -675.0083645043384877
    Two-Electron Energy =                 261.7729908455590930
    Total Energy =                       -228.3780097231797868
  Basis Set: (AUG-CC-PVTZ AUX)
    Blend: AUG-CC-PVTZ-RI
    Molecular point group: c1

    Geometry (in Angstrom), charge = 0, multiplicity = 1:

       Center              X                  Y                   Z               Mass
    ------------   -----------------  -----------------  -----------------  -----------------
         N            2.440538494073    -0.390911639501    -0.095912487102    14.003074004430
         N           -2.545423505927    -0.245828639501    -0.003923487102    14.003074004430
         C           -0.010317505927    -0.351814639501    -0.022981487102    12.000000000000
         C            1.363253894073     0.596716560499     0.034892012898    12.000000000000
         C           -1.281128505927     0.495696360499     0.044411512898    12.000000000000
         H           -0.001764505927    -0.942381639501    -0.946557487102     1.007825032230
         H           -0.013703505927    -1.068430639501     0.810997512898     1.007825032230
         H            1.259847494073     1.092793360499     0.947700512898     1.007825032230
         H            1.276602494073     1.175720360499    -0.814628487102     1.007825032230
         H           -1.287957505927     1.212088360499    -0.785397487102     1.007825032230
         H           -1.282783505927     1.089770360499     0.965823512898     1.007825032230
         H            2.503791494073    -0.986862639501     0.728856512898     1.007825032230
         H            3.288004494073     0.175438360499    -0.095906487102     1.007825032230
         H           -2.568063505927    -0.916829639501     0.763515512898     1.007825032230
         H           -2.571668505927    -0.802390639501    -0.857864487102     1.007825032230

  Basis Set: AUG-CC-PVTZ
    Blend: AUG-CC-PVTZ
  Basis Set: (AUG-CC-PVTZ AUX)
    Blend: AUG-CC-PVTZ-JKFIT
	 Reference Energy          =    -228.3780097231797868 [Eh]
	 Singles Energy            =      -0.0000000000000000 [Eh]
	 Same-Spin Energy          =      -0.2382074930660836 [Eh]
	 Opposite-Spin Energy      =      -0.8342006119888754 [Eh]
	 Correlation Energy        =      -1.0724081050549590 [Eh]
	 Total Energy              =    -229.4504178282347482 [Eh]

	 ================> DF-SCS-MP2 Energies <==================
	-----------------------------------------------------------
	 SCS Same-Spin Scale       =       0.3333333333333333 [-]
	 SCS Opposite-Spin Scale   =       1.2000000000000000 [-]
	 SCS Same-Spin Energy      =      -0.0794024976886945 [Eh]
	 SCS Opposite-Spin Energy  =      -1.0010407343866505 [Eh]
	 SCS Correlation Energy    =      -1.0804432320753450 [Eh]
	 SCS Total Energy          =    -229.4584529552551260 [Eh]
	-----------------------------------------------------------

  Dipole Moment: [D]
     X:     1.4146      Y:    -0.0675      Z:     1.0387     Total:     1.7563

*** Psi4 exiting successfully. Buy a developer a beer!
