                               Psi4 1.3.2 release

  ==> Input File <==

--------------------------------------------------------------------------
#psi4
#
memory 32 gb

molecule  {
0 1
  N        2.4003932    -0.4431884     0.0252124
  N       -2.5385500    -0.2293020    -0.0118130
  C       -0.0034440    -0.3352880    -0.0308710
  C        1.2721860     0.4950040     0.0229580
  C       -1.2742550     0.5122230     0.0365220
  H        0.0051090    -0.9258550    -0.9544470
  H       -0.0068300    -1.0519040     0.8031080
  H        1.2667210     1.1093200     0.9398110
  H        1.2834760     1.1922470    -0.8225180
  H       -1.2810840     1.2286150    -0.7932870
  H       -1.2759100     1.1062970     0.9579340
  H        2.5106650    -0.9703360     0.7209670
  H        3.2948780     0.1919650    -0.1037960
  H       -2.5611900    -0.9003030     0.7556260
  H       -2.5647950    -0.7858640    -0.8657540
units angstrom
no_reorient  #important for SAPT in psi4, default
symmetry c1  #important for SAPT in psi4, default
}

set PROPERTIES_ORIGIN ["COM"]
properties('MP2/aug-cc-pvtz', properties = ['dipole'])
--------------------------------------------------------------------------

    Molecular point group: c1
  Charge       = 0
  Multiplicity = 1
  Basis Set: AUG-CC-PVTZ
    Blend: AUG-CC-PVTZ
  Basis Set: (AUG-CC-PVTZ AUX)
    Blend: AUG-CC-PVTZ-JKFIT

    Orbital Energies [Eh]
    ---------------------

    Doubly Occupied:

       1A    -15.538787     2A    -15.533694     3A    -11.252299
       4A    -11.244993     5A    -11.215294     6A     -1.190245
       7A     -1.172264     8A     -1.015283     9A     -0.879406
      10A     -0.808064    11A     -0.680562    12A     -0.662936
      13A     -0.620969    14A     -0.607628    15A     -0.569275
      16A     -0.531604    17A     -0.520500    18A     -0.487362
      19A     -0.473716    20A     -0.395236    21A     -0.380146

  @DF-RHF Final Energy:  -228.36996500687133

   => Energetics <=

    Nuclear Repulsion Energy =            186.9257401813726744
    One-Electron Energy =                -679.0308888148073265
    Two-Electron Energy =                 263.7351836265632983
    Total Energy =                       -228.3699650068713254
  Basis Set: (AUG-CC-PVTZ AUX)
    Blend: AUG-CC-PVTZ-RI
    Molecular point group: c1

    Geometry (in Angstrom), charge = 0, multiplicity = 1:

       Center              X                  Y                   Z               Mass
    ------------   -----------------  -----------------  -----------------  -----------------
         N            2.418271255499    -0.427558073182     0.009371353827    14.003074004430
         N           -2.520671944501    -0.213671673182    -0.027654046173    14.003074004430
         C            0.014434055499    -0.319657673182    -0.046712046173    12.000000000000
         C            1.290064055499     0.510634326818     0.007116953827    12.000000000000
         C           -1.256376944501     0.527853326818     0.020680953827    12.000000000000
         H            0.022987055499    -0.910224673182    -0.970288046173     1.007825032230
         H            0.011048055499    -1.036273673182     0.787266953827     1.007825032230
         H            1.284599055499     1.124950326818     0.923969953827     1.007825032230
         H            1.301354055499     1.207877326818    -0.838359046173     1.007825032230
         H           -1.263205944501     1.244245326818    -0.809128046173     1.007825032230
         H           -1.258031944501     1.121927326818     0.942092953827     1.007825032230
         H            2.528543055499    -0.954705673182     0.705125953827     1.007825032230
         H            3.312756055499     0.207595326818    -0.119637046173     1.007825032230
         H           -2.543311944501    -0.884672673182     0.739784953827     1.007825032230
         H           -2.546916944501    -0.770233673182    -0.881595046173     1.007825032230

  Basis Set: AUG-CC-PVTZ
    Blend: AUG-CC-PVTZ
  Basis Set: (AUG-CC-PVTZ AUX)
    Blend: AUG-CC-PVTZ-JKFIT
	 Reference Energy          =    -228.3699650068713254 [Eh]
	 Singles Energy            =      -0.0000000000000000 [Eh]
	 Same-Spin Energy          =      -0.2379797620684914 [Eh]
	 Opposite-Spin Energy      =      -0.8326748306040579 [Eh]
	 Correlation Energy        =      -1.0706545926725493 [Eh]
	 Total Energy              =    -229.4406195995438793 [Eh]

	 ================> DF-SCS-MP2 Energies <==================
	-----------------------------------------------------------
	 SCS Same-Spin Scale       =       0.3333333333333333 [-]
	 SCS Opposite-Spin Scale   =       1.2000000000000000 [-]
	 SCS Same-Spin Energy      =      -0.0793265873561638 [Eh]
	 SCS Opposite-Spin Energy  =      -0.9992097967248694 [Eh]
	 SCS Correlation Energy    =      -1.0785363840810331 [Eh]
	 SCS Total Energy          =    -229.4485013909523445 [Eh]
	-----------------------------------------------------------

  Dipole Moment: [D]
     X:     1.3538      Y:    -0.0385      Z:     0.7979     Total:     1.5719

*** Psi4 exiting successfully. Buy a developer a beer!
