                               Psi4 1.3.2 release

  ==> Input File <==

--------------------------------------------------------------------------
#psi4
#
memory 32 gb

molecule  {
0 1
  N        2.4815548    -0.2960564    -0.2314276
  N       -2.5385500    -0.2293020    -0.0118130
  C       -0.0034440    -0.3352880    -0.0308710
  C        1.2721860     0.4950040     0.0229580
  C       -1.2742550     0.5122230     0.0365220
  H        0.0051090    -0.9258550    -0.9544470
  H       -0.0068300    -1.0519040     0.8031080
  H        1.2667210     1.1093200     0.9398110
  H        1.2834760     1.1922470    -0.8225180
  H       -1.2810840     1.2286150    -0.7932870
  H       -1.2759100     1.1062970     0.9579340
  H        2.5106650    -0.9703360     0.7209670
  H        3.2948780     0.1919650    -0.1037960
  H       -2.5611900    -0.9003030     0.7556260
  H       -2.5647950    -0.7858640    -0.8657540
units angstrom
no_reorient  #important for SAPT in psi4, default
symmetry c1  #important for SAPT in psi4, default
}

set PROPERTIES_ORIGIN ["COM"]
properties('MP2/aug-cc-pvtz', properties = ['dipole'])
--------------------------------------------------------------------------

    Molecular point group: c1
  Charge       = 0
  Multiplicity = 1
  Basis Set: AUG-CC-PVTZ
    Blend: AUG-CC-PVTZ
  Basis Set: (AUG-CC-PVTZ AUX)
    Blend: AUG-CC-PVTZ-JKFIT

    Orbital Energies [Eh]
    ---------------------

    Doubly Occupied:

       1A    -15.556289     2A    -15.541118     3A    -11.251445
       4A    -11.248254     5A    -11.219861     6A     -1.184055
       7A     -1.171345     8A     -1.015558     9A     -0.874189
      10A     -0.803132    11A     -0.678702    12A     -0.653359
      13A     -0.633672    14A     -0.588083    15A     -0.551349
      16A     -0.545814    17A     -0.514167    18A     -0.482668
      19A     -0.469467    20A     -0.408123    21A     -0.390215

  @DF-RHF Final Energy:  -228.37423142160648

   => Energetics <=

    Nuclear Repulsion Energy =            185.8450224929576677
    One-Electron Energy =                -676.8767796417986347
    Two-Electron Energy =                 262.6575257272344288
    Total Energy =                       -228.3742314216065097
  Basis Set: (AUG-CC-PVTZ AUX)
    Blend: AUG-CC-PVTZ-RI
    Molecular point group: c1

    Geometry (in Angstrom), charge = 0, multiplicity = 1:

       Center              X                  Y                   Z               Mass
    ------------   -----------------  -----------------  -----------------  -----------------
         N            2.484092083127    -0.308236250909    -0.198759796895    14.003074004430
         N           -2.536012716873    -0.241481850909     0.020854803105    14.003074004430
         C           -0.000906716873    -0.347467850909     0.001796803105    12.000000000000
         C            1.274723283127     0.482824149091     0.055625803105    12.000000000000
         C           -1.271717716873     0.500043149091     0.069189803105    12.000000000000
         H            0.007646283127    -0.938034850909    -0.921779196895     1.007825032230
         H           -0.004292716873    -1.064083850909     0.835775803105     1.007825032230
         H            1.269258283127     1.097140149091     0.972478803105     1.007825032230
         H            1.286013283127     1.180067149091    -0.789850196895     1.007825032230
         H           -1.278546716873     1.216435149091    -0.760619196895     1.007825032230
         H           -1.273372716873     1.094117149091     0.990601803105     1.007825032230
         H            2.513202283127    -0.982515850909     0.753634803105     1.007825032230
         H            3.297415283127     0.179785149091    -0.071128196895     1.007825032230
         H           -2.558652716873    -0.912482850909     0.788293803105     1.007825032230
         H           -2.562257716873    -0.798043850909    -0.833086196895     1.007825032230

  Basis Set: AUG-CC-PVTZ
    Blend: AUG-CC-PVTZ
  Basis Set: (AUG-CC-PVTZ AUX)
    Blend: AUG-CC-PVTZ-JKFIT
	 Reference Energy          =    -228.3742314216064813 [Eh]
	 Singles Energy            =      -0.0000000000000000 [Eh]
	 Same-Spin Energy          =      -0.2387638427220390 [Eh]
	 Opposite-Spin Energy      =      -0.8355257080142550 [Eh]
	 Correlation Energy        =      -1.0742895507362940 [Eh]
	 Total Energy              =    -229.4485209723427772 [Eh]

	 ================> DF-SCS-MP2 Energies <==================
	-----------------------------------------------------------
	 SCS Same-Spin Scale       =       0.3333333333333333 [-]
	 SCS Opposite-Spin Scale   =       1.2000000000000000 [-]
	 SCS Same-Spin Energy      =      -0.0795879475740130 [Eh]
	 SCS Opposite-Spin Energy  =      -1.0026308496171059 [Eh]
	 SCS Correlation Energy    =      -1.0822187971911190 [Eh]
	 SCS Total Energy          =    -229.4564502187976132 [Eh]
	-----------------------------------------------------------

  Dipole Moment: [D]
     X:     1.1674      Y:    -0.1467      Z:     1.1849     Total:     1.6698

*** Psi4 exiting successfully. Buy a developer a beer!
