                               Psi4 1.3.2 release

  ==> Input File <==

--------------------------------------------------------------------------
#psi4
#
memory 32 gb

molecule  {
0 1
  N        2.4474120    -0.3743850    -0.1038020
  N       -2.5385500    -0.2293020    -0.0118130
  C       -0.0034440    -0.3352880    -0.0308710
  C        1.1120005     0.6135033     0.0402356
  C       -1.2742550     0.5122230     0.0365220
  H        0.0051090    -0.9258550    -0.9544470
  H       -0.0068300    -1.0519040     0.8031080
  H        1.2667210     1.1093200     0.9398110
  H        1.2834760     1.1922470    -0.8225180
  H       -1.2810840     1.2286150    -0.7932870
  H       -1.2759100     1.1062970     0.9579340
  H        2.5106650    -0.9703360     0.7209670
  H        3.2948780     0.1919650    -0.1037960
  H       -2.5611900    -0.9003030     0.7556260
  H       -2.5647950    -0.7858640    -0.8657540
units angstrom
no_reorient  #important for SAPT in psi4, default
symmetry c1  #important for SAPT in psi4, default
}

set PROPERTIES_ORIGIN ["COM"]
properties('MP2/aug-cc-pvtz', properties = ['dipole'])
--------------------------------------------------------------------------

    Molecular point group: c1
  Charge       = 0
  Multiplicity = 1
  Basis Set: AUG-CC-PVTZ
    Blend: AUG-CC-PVTZ
  Basis Set: (AUG-CC-PVTZ AUX)
    Blend: AUG-CC-PVTZ-JKFIT

    Orbital Energies [Eh]
    ---------------------

    Doubly Occupied:

       1A    -15.540021     2A    -15.536013     3A    -11.252732
       4A    -11.247789     5A    -11.219798     6A     -1.179687
       7A     -1.133730     8A     -1.027729     9A     -0.879845
      10A     -0.814370    11A     -0.685150    12A     -0.645429
      13A     -0.619947    14A     -0.600337    15A     -0.563380
      16A     -0.534263    17A     -0.517304    18A     -0.488496
      19A     -0.480739    20A     -0.391126    21A     -0.384245

  @DF-RHF Final Energy:  -228.36811957605903

   => Energetics <=

    Nuclear Repulsion Energy =            185.9250082689649162
    One-Electron Energy =                -677.1019971570402731
    Two-Electron Energy =                 262.8088693120163271
    Total Energy =                       -228.3681195760590299
  Basis Set: (AUG-CC-PVTZ AUX)
    Blend: AUG-CC-PVTZ-RI
    Molecular point group: c1

    Geometry (in Angstrom), charge = 0, multiplicity = 1:

       Center              X                  Y                   Z               Mass
    ------------   -----------------  -----------------  -----------------  -----------------
         N            2.482349224399    -0.390953769829    -0.098055950552    14.003074004430
         N           -2.503612775601    -0.245870769829    -0.006066950552    14.003074004430
         C            0.031493224399    -0.351856769829    -0.025124950552    12.000000000000
         C            1.146937724399     0.596934530171     0.045981649448    12.000000000000
         C           -1.239317775601     0.495654230171     0.042268049448    12.000000000000
         H            0.040046224399    -0.942423769829    -0.948700950552     1.007825032230
         H            0.028107224399    -1.068472769829     0.808854049448     1.007825032230
         H            1.301658224399     1.092751230171     0.945557049448     1.007825032230
         H            1.318413224399     1.175678230171    -0.816771950552     1.007825032230
         H           -1.246146775601     1.212046230171    -0.787540950552     1.007825032230
         H           -1.240972775601     1.089728230171     0.963680049448     1.007825032230
         H            2.545602224399    -0.986904769829     0.726713049448     1.007825032230
         H            3.329815224399     0.175396230171    -0.098049950552     1.007825032230
         H           -2.526252775601    -0.916871769829     0.761372049448     1.007825032230
         H           -2.529857775601    -0.802432769829    -0.860007950552     1.007825032230

  Basis Set: AUG-CC-PVTZ
    Blend: AUG-CC-PVTZ
  Basis Set: (AUG-CC-PVTZ AUX)
    Blend: AUG-CC-PVTZ-JKFIT
	 Reference Energy          =    -228.3681195760590299 [Eh]
	 Singles Energy            =      -0.0000000000000000 [Eh]
	 Same-Spin Energy          =      -0.2391070874381441 [Eh]
	 Opposite-Spin Energy      =      -0.8364071603835184 [Eh]
	 Correlation Energy        =      -1.0755142478216624 [Eh]
	 Total Energy              =    -229.4436338238807025 [Eh]

	 ================> DF-SCS-MP2 Energies <==================
	-----------------------------------------------------------
	 SCS Same-Spin Scale       =       0.3333333333333333 [-]
	 SCS Opposite-Spin Scale   =       1.2000000000000000 [-]
	 SCS Same-Spin Energy      =      -0.0797023624793814 [Eh]
	 SCS Opposite-Spin Energy  =      -1.0036885924602219 [Eh]
	 SCS Correlation Energy    =      -1.0833909549396032 [Eh]
	 SCS Total Energy          =    -229.4515105309986325 [Eh]
	-----------------------------------------------------------

  Dipole Moment: [D]
     X:     0.8826      Y:     0.0877      Z:     1.0472     Total:     1.3723

*** Psi4 exiting successfully. Buy a developer a beer!
