                               Psi4 1.4a3.dev225

  ==> Input File <==

--------------------------------------------------------------------------
#psi4
#
memory 32 gb

molecule  {
0 1
  N        2.4472590    -0.3746750    -0.1036760
  N       -2.5383840    -0.2296350    -0.0118050
  C       -0.0033610    -0.3349390    -0.0309630
  C        1.2723060     0.4951460     0.0229450
  C       -1.2744810     0.5123910     0.0365760
  H        0.0049230    -0.9252980    -0.9546620
  H       -0.0068110    -1.0516390     0.8029280
  H        1.2668140     1.1094270     0.9397930
  H        1.2839730     1.1922540    -0.8226020
  H       -1.2814540     1.2287750    -0.7932160
  H       -1.2762360     1.1063260     0.9580520
  H        2.5075077    -0.9409190     0.6809243
  H        3.2948040     0.1914740    -0.1044810
  H       -2.5609240    -0.9005840     0.7556250
  H       -2.5646110    -0.7860270    -0.8658080
units angstrom
no_reorient  #important for SAPT in psi4, default
symmetry c1  #important for SAPT in psi4, default
}

set PROPERTIES_ORIGIN ["COM"]
properties('MP2/aug-cc-pvtz', properties = ['dipole'])
--------------------------------------------------------------------------

    Molecular point group: c1
  Charge       = 0
  Multiplicity = 1
  Basis Set: AUG-CC-PVTZ
    Blend: AUG-CC-PVTZ
  Basis Set: (AUG-CC-PVTZ AUX)
    Blend: AUG-CC-PVTZ-JKFIT

    Orbital Energies [Eh]
    ---------------------

    Doubly Occupied:

       1A    -15.539783     2A    -15.537922     3A    -11.249943
       4A    -11.246485     5A    -11.217241     6A     -1.188555
       7A     -1.172820     8A     -1.014998     9A     -0.874796
      10A     -0.805052    11A     -0.680067    12A     -0.660486
      13A     -0.629586    14A     -0.597913    15A     -0.562942
      16A     -0.536769    17A     -0.523137    18A     -0.488774
      19A     -0.473695    20A     -0.400502    21A     -0.385628

  @DF-RHF Final Energy:  -228.39782032612951

   => Energetics <=

    Nuclear Repulsion Energy =            186.5603415450109424
    One-Electron Energy =                -678.3421364107374529
    Two-Electron Energy =                 263.3839745395969771
    Total Energy =                       -228.3978203261295334
  Basis Set: (AUG-CC-PVTZ AUX)
    Blend: AUG-CC-PVTZ-RI
    Molecular point group: c1

    Geometry (in Angstrom), charge = 0, multiplicity = 1:

       Center              X                  Y                   Z               Mass
    ------------   -----------------  -----------------  -----------------  -----------------
         N            2.456292607940    -0.372441311137    -0.094589449316    14.003074004430
         N           -2.529350392060    -0.227401311137    -0.002718449316    14.003074004430
         C            0.005672607940    -0.332705311137    -0.021876449316    12.000000000000
         C            1.281339607940     0.497379688863     0.032031550684    12.000000000000
         C           -1.265447392060     0.514624688863     0.045662550684    12.000000000000
         H            0.013956607940    -0.923064311137    -0.945575449316     1.007825032230
         H            0.002222607940    -1.049405311137     0.812014550684     1.007825032230
         H            1.275847607940     1.111660688863     0.948879550684     1.007825032230
         H            1.293006607940     1.194487688863    -0.813515449316     1.007825032230
         H           -1.272420392060     1.231008688863    -0.784129449316     1.007825032230
         H           -1.267202392060     1.108559688863     0.967138550684     1.007825032230
         H            2.516541307940    -0.938685311137     0.690010850684     1.007825032230
         H            3.303837607940     0.193707688863    -0.095394449316     1.007825032230
         H           -2.551890392060    -0.898350311137     0.764711550684     1.007825032230
         H           -2.555577392060    -0.783793311137    -0.856721449316     1.007825032230

  Basis Set: AUG-CC-PVTZ
    Blend: AUG-CC-PVTZ
  Basis Set: (AUG-CC-PVTZ AUX)
    Blend: AUG-CC-PVTZ-JKFIT
	 Reference Energy          =    -228.3978203261295050 [Eh]
	 Singles Energy            =      -0.0000000000000000 [Eh]
	 Same-Spin Energy          =      -0.2378883946808449 [Eh]
	 Opposite-Spin Energy      =      -0.8322010686257391 [Eh]
	 Correlation Energy        =      -1.0700894633065841 [Eh]
	 Total Energy              =    -229.4679097894360780 [Eh]

	 ================> DF-SCS-MP2 Energies <==================
	-----------------------------------------------------------
	 SCS Same-Spin Scale       =       0.3333333333333333 [-]
	 SCS Opposite-Spin Scale   =       1.2000000000000000 [-]
	 SCS Same-Spin Energy      =      -0.0792961315602816 [Eh]
	 SCS Opposite-Spin Energy  =      -0.9986412823508868 [Eh]
	 SCS Correlation Energy    =      -1.0779374139111684 [Eh]
	 SCS Total Energy          =    -229.4757577400406774 [Eh]
	-----------------------------------------------------------

  Dipole Moment: [D]
     X:     1.2851      Y:    -0.1099      Z:     1.0128     Total:     1.6399

*** Psi4 exiting successfully. Buy a developer a beer!
