                               Psi4 1.3.2 release

  ==> Input File <==

--------------------------------------------------------------------------
#psi4
#
memory 32 gb

molecule  {
0 1
  N        2.4474120    -0.3743850    -0.1038020
  N       -2.5385500    -0.2293020    -0.0118130
  C       -0.0034440    -0.3352880    -0.0308710
  C        1.2721860     0.4950040     0.0229580
  C       -1.2742550     0.5122230     0.0365220
  H        0.0051090    -0.9258550    -0.9544470
  H       -0.0068300    -1.0519040     0.8031080
  H        1.2667210     1.1093200     0.9398110
  H        1.2834760     1.1922470    -0.8225180
  H       -1.2810840     1.2286150    -0.7932870
  H       -1.2759100     1.1062970     0.9579340
  H        2.4792470    -0.9846175     0.7122894
  H        3.2948780     0.1919650    -0.1037960
  H       -2.5611900    -0.9003030     0.7556260
  H       -2.5647950    -0.7858640    -0.8657540
units angstrom
no_reorient  #important for SAPT in psi4, default
symmetry c1  #important for SAPT in psi4, default
}

set PROPERTIES_ORIGIN ["COM"]
properties('MP2/aug-cc-pvtz', properties = ['dipole'])
--------------------------------------------------------------------------

    Molecular point group: c1
  Charge       = 0
  Multiplicity = 1
  Basis Set: AUG-CC-PVTZ
    Blend: AUG-CC-PVTZ
  Basis Set: (AUG-CC-PVTZ AUX)
    Blend: AUG-CC-PVTZ-JKFIT

    Orbital Energies [Eh]
    ---------------------

    Doubly Occupied:

       1A    -15.543603     2A    -15.539867     3A    -11.249776
       4A    -11.246556     5A    -11.217388     6A     -1.183810
       7A     -1.170593     8A     -1.013091     9A     -0.872389
      10A     -0.804009    11A     -0.679150    12A     -0.657898
      13A     -0.628337    14A     -0.595686    15A     -0.560514
      16A     -0.536802    17A     -0.522600    18A     -0.488333
      19A     -0.473837    20A     -0.399167    21A     -0.385366

  @DF-RHF Final Energy:  -228.39825034560997

   => Energetics <=

    Nuclear Repulsion Energy =            186.3467201960906721
    One-Electron Energy =                -677.9523987160316665
    Two-Electron Energy =                 263.2074281743309712
    Total Energy =                       -228.3982503456099948
  Basis Set: (AUG-CC-PVTZ AUX)
    Blend: AUG-CC-PVTZ-RI
    Molecular point group: c1

    Geometry (in Angstrom), charge = 0, multiplicity = 1:

       Center              X                  Y                   Z               Mass
    ------------   -----------------  -----------------  -----------------  -----------------
         N            2.456830192110    -0.371565276630    -0.095139321580    14.003074004430
         N           -2.529131807890    -0.226482276630    -0.003150321580    14.003074004430
         C            0.005974192110    -0.332468276630    -0.022208321580    12.000000000000
         C            1.281604192110     0.497823723370     0.031620678420    12.000000000000
         C           -1.264836807890     0.515042723370     0.045184678420    12.000000000000
         H            0.014527192110    -0.923035276630    -0.945784321580     1.007825032230
         H            0.002588192110    -1.049084276630     0.811770678420     1.007825032230
         H            1.276139192110     1.112139723370     0.948473678420     1.007825032230
         H            1.292894192110     1.195066723370    -0.813855321580     1.007825032230
         H           -1.271665807890     1.231434723370    -0.784624321580     1.007825032230
         H           -1.266491807890     1.109116723370     0.966596678420     1.007825032230
         H            2.488665192110    -0.981797776630     0.720952078420     1.007825032230
         H            3.304296192110     0.194784723370    -0.095133321580     1.007825032230
         H           -2.551771807890    -0.897483276630     0.764288678420     1.007825032230
         H           -2.555376807890    -0.783044276630    -0.857091321580     1.007825032230

  Basis Set: AUG-CC-PVTZ
    Blend: AUG-CC-PVTZ
  Basis Set: (AUG-CC-PVTZ AUX)
    Blend: AUG-CC-PVTZ-JKFIT
	 Reference Energy          =    -228.3982503456099664 [Eh]
	 Singles Energy            =      -0.0000000000000000 [Eh]
	 Same-Spin Energy          =      -0.2381351403682766 [Eh]
	 Opposite-Spin Energy      =      -0.8329900380020679 [Eh]
	 Correlation Energy        =      -1.0711251783703446 [Eh]
	 Total Energy              =    -229.4693755239803181 [Eh]

	 ================> DF-SCS-MP2 Energies <==================
	-----------------------------------------------------------
	 SCS Same-Spin Scale       =       0.3333333333333333 [-]
	 SCS Opposite-Spin Scale   =       1.2000000000000000 [-]
	 SCS Same-Spin Energy      =      -0.0793783801227589 [Eh]
	 SCS Opposite-Spin Energy  =      -0.9995880456024815 [Eh]
	 SCS Correlation Energy    =      -1.0789664257252403 [Eh]
	 SCS Total Energy          =    -229.4772167713352076 [Eh]
	-----------------------------------------------------------

  Dipole Moment: [D]
     X:     1.2593      Y:    -0.1348      Z:     1.0050     Total:     1.6168

*** Psi4 exiting successfully. Buy a developer a beer!
