                               Psi4 1.3.2 release

  ==> Input File <==

--------------------------------------------------------------------------
#psi4
#
memory 32 gb

molecule  {
0 1
  N        2.4474120    -0.3743850    -0.1038020
  N       -2.5385500    -0.2293020    -0.0118130
  C       -0.0034440    -0.3352880    -0.0308710
  C        1.2721860     0.4950040     0.0229580
  C       -1.2742550     0.5122230     0.0365220
  H        0.0051090    -0.9258550    -0.9544470
  H       -0.0068300    -1.0519040     0.8031080
  H        1.2667210     1.1093200     0.9398110
  H        1.2834760     1.1922470    -0.8225180
  H       -1.2810840     1.2286150    -0.7932870
  H       -1.2759100     1.1062970     0.9579340
  H        2.4982565    -0.8534268     0.5591700
  H        3.2948780     0.1919650    -0.1037960
  H       -2.5611900    -0.9003030     0.7556260
  H       -2.5647950    -0.7858640    -0.8657540
units angstrom
no_reorient  #important for SAPT in psi4, default
symmetry c1  #important for SAPT in psi4, default
}

set PROPERTIES_ORIGIN ["COM"]
properties('MP2/aug-cc-pvtz', properties = ['dipole'])
--------------------------------------------------------------------------

    Molecular point group: c1
  Charge       = 0
  Multiplicity = 1
  Basis Set: AUG-CC-PVTZ
    Blend: AUG-CC-PVTZ
  Basis Set: (AUG-CC-PVTZ AUX)
    Blend: AUG-CC-PVTZ-JKFIT

    Orbital Energies [Eh]
    ---------------------

    Doubly Occupied:

       1A    -15.539926     2A    -15.518969     3A    -11.249890
       4A    -11.246685     5A    -11.217586     6A     -1.215897
       7A     -1.175354     8A     -1.021330     9A     -0.882328
      10A     -0.809182    11A     -0.691205    12A     -0.671251
      13A     -0.630971    14A     -0.603377    15A     -0.566745
      16A     -0.537221    17A     -0.524841    18A     -0.490045
      19A     -0.474010    20A     -0.402910    21A     -0.386118

  @DF-RHF Final Energy:  -228.35505282335541

   => Energetics <=

    Nuclear Repulsion Energy =            187.4371312124344797
    One-Electron Energy =                -679.8726866018311057
    Two-Electron Energy =                 264.0805025660412184
    Total Energy =                       -228.3550528233554360
  Basis Set: (AUG-CC-PVTZ AUX)
    Blend: AUG-CC-PVTZ-RI
    Molecular point group: c1

    Geometry (in Angstrom), charge = 0, multiplicity = 1:

       Center              X                  Y                   Z               Mass
    ------------   -----------------  -----------------  -----------------  -----------------
         N            2.456571591779    -0.373349961050    -0.093056324786    14.003074004430
         N           -2.529390408221    -0.228266961050    -0.001067324786    14.003074004430
         C            0.005715591779    -0.334252961050    -0.020125324786    12.000000000000
         C            1.281345591779     0.496039038950     0.033703675214    12.000000000000
         C           -1.265095408221     0.513258038950     0.047267675214    12.000000000000
         H            0.014268591779    -0.924819961050    -0.943701324786     1.007825032230
         H            0.002329591779    -1.050868961050     0.813853675214     1.007825032230
         H            1.275880591779     1.110355038950     0.950556675214     1.007825032230
         H            1.292635591779     1.193282038950    -0.811772324786     1.007825032230
         H           -1.271924408221     1.229650038950    -0.782541324786     1.007825032230
         H           -1.266750408221     1.107332038950     0.968679675214     1.007825032230
         H            2.507416091779    -0.852391761050     0.569915675214     1.007825032230
         H            3.304037591779     0.193000038950    -0.093050324786     1.007825032230
         H           -2.552030408221    -0.899267961050     0.766371675214     1.007825032230
         H           -2.555635408221    -0.784828961050    -0.855008324786     1.007825032230

  Basis Set: AUG-CC-PVTZ
    Blend: AUG-CC-PVTZ
  Basis Set: (AUG-CC-PVTZ AUX)
    Blend: AUG-CC-PVTZ-JKFIT
	 Reference Energy          =    -228.3550528233554076 [Eh]
	 Singles Energy            =      -0.0000000000000000 [Eh]
	 Same-Spin Energy          =      -0.2372964021203359 [Eh]
	 Opposite-Spin Energy      =      -0.8304491486839515 [Eh]
	 Correlation Energy        =      -1.0677455508042875 [Eh]
	 Total Energy              =    -229.4227983741596972 [Eh]

	 ================> DF-SCS-MP2 Energies <==================
	-----------------------------------------------------------
	 SCS Same-Spin Scale       =       0.3333333333333333 [-]
	 SCS Opposite-Spin Scale   =       1.2000000000000000 [-]
	 SCS Same-Spin Energy      =      -0.0790988007067786 [Eh]
	 SCS Opposite-Spin Energy  =      -0.9965389784207417 [Eh]
	 SCS Correlation Energy    =      -1.0756377791275202 [Eh]
	 SCS Total Energy          =    -229.4306906024829402 [Eh]
	-----------------------------------------------------------

  Dipole Moment: [D]
     X:     1.2907      Y:    -0.0764      Z:     0.9965     Total:     1.6324

*** Psi4 exiting successfully. Buy a developer a beer!
