                               Psi4 1.3.2 release

  ==> Input File <==

--------------------------------------------------------------------------
#psi4
#
memory 32 gb

molecule  {
0 1
  N        2.4474120    -0.3743850    -0.1038020
  N       -2.5385500    -0.2293020    -0.0118130
  C       -0.0034440    -0.3352880    -0.0308710
  C        1.2721860     0.4950040     0.0229580
  C       -1.2742550     0.5122230     0.0365220
  H        0.0051090    -0.9258550    -0.9544470
  H       -0.0068300    -1.0519040     0.8031080
  H        1.2667210     1.1093200     0.9398110
  H        1.2834760     1.1922470    -0.8225180
  H       -1.2810840     1.2286150    -0.7932870
  H       -1.2759100     1.1062970     0.9579340
  H        2.6043040    -0.9232090     0.7409344
  H        3.2948780     0.1919650    -0.1037960
  H       -2.5611900    -0.9003030     0.7556260
  H       -2.5647950    -0.7858640    -0.8657540
units angstrom
no_reorient  #important for SAPT in psi4, default
symmetry c1  #important for SAPT in psi4, default
}

set PROPERTIES_ORIGIN ["COM"]
properties('MP2/aug-cc-pvtz', properties = ['dipole'])
--------------------------------------------------------------------------

    Molecular point group: c1
  Charge       = 0
  Multiplicity = 1
  Basis Set: AUG-CC-PVTZ
    Blend: AUG-CC-PVTZ
  Basis Set: (AUG-CC-PVTZ AUX)
    Blend: AUG-CC-PVTZ-JKFIT

    Orbital Energies [Eh]
    ---------------------

    Doubly Occupied:

       1A    -15.544468     2A    -15.539566     3A    -11.251160
       4A    -11.246194     5A    -11.216623     6A     -1.184236
       7A     -1.170946     8A     -1.014151     9A     -0.874458
      10A     -0.803724    11A     -0.677949    12A     -0.647909
      13A     -0.631922    14A     -0.595368    15A     -0.562108
      16A     -0.536681    17A     -0.521786    18A     -0.487741
      19A     -0.472918    20A     -0.402145    21A     -0.386084

  @DF-RHF Final Energy:  -228.39722464872483

   => Energetics <=

    Nuclear Repulsion Energy =            186.2213707612340841
    One-Electron Energy =                -677.7009139622266503
    Two-Electron Energy =                 263.0823185522677363
    Total Energy =                       -228.3972246487248299
  Basis Set: (AUG-CC-PVTZ AUX)
    Blend: AUG-CC-PVTZ-RI
    Molecular point group: c1

    Geometry (in Angstrom), charge = 0, multiplicity = 1:

       Center              X                  Y                   Z               Mass
    ------------   -----------------  -----------------  -----------------  -----------------
         N            2.455128948962    -0.372400662014    -0.095529000766    14.003074004430
         N           -2.530833051038    -0.227317662014    -0.003540000766    14.003074004430
         C            0.004272948962    -0.333303662014    -0.022598000766    12.000000000000
         C            1.279902948962     0.496988337986     0.031230999234    12.000000000000
         C           -1.266538051038     0.514207337986     0.044794999234    12.000000000000
         H            0.012825948962    -0.923870662014    -0.946174000766     1.007825032230
         H            0.000886948962    -1.049919662014     0.811380999234     1.007825032230
         H            1.274437948962     1.111304337986     0.948083999234     1.007825032230
         H            1.291192948962     1.194231337986    -0.814245000766     1.007825032230
         H           -1.273367051038     1.230599337986    -0.785014000766     1.007825032230
         H           -1.268193051038     1.108281337986     0.966206999234     1.007825032230
         H            2.612020948962    -0.921224662014     0.749207399234     1.007825032230
         H            3.302594948962     0.193949337986    -0.095523000766     1.007825032230
         H           -2.553473051038    -0.898318662014     0.763898999234     1.007825032230
         H           -2.557078051038    -0.783879662014    -0.857481000766     1.007825032230

  Basis Set: AUG-CC-PVTZ
    Blend: AUG-CC-PVTZ
  Basis Set: (AUG-CC-PVTZ AUX)
    Blend: AUG-CC-PVTZ-JKFIT
	 Reference Energy          =    -228.3972246487248299 [Eh]
	 Singles Energy            =      -0.0000000000000000 [Eh]
	 Same-Spin Energy          =      -0.2381303023690027 [Eh]
	 Opposite-Spin Energy      =      -0.8330666849864283 [Eh]
	 Correlation Energy        =      -1.0711969873554310 [Eh]
	 Total Energy              =    -229.4684216360802509 [Eh]

	 ================> DF-SCS-MP2 Energies <==================
	-----------------------------------------------------------
	 SCS Same-Spin Scale       =       0.3333333333333333 [-]
	 SCS Opposite-Spin Scale   =       1.2000000000000000 [-]
	 SCS Same-Spin Energy      =      -0.0793767674563342 [Eh]
	 SCS Opposite-Spin Energy  =      -0.9996800219837140 [Eh]
	 SCS Correlation Energy    =      -1.0790567894400482 [Eh]
	 SCS Total Energy          =    -229.4762814381648752 [Eh]
	-----------------------------------------------------------

  Dipole Moment: [D]
     X:     1.3414      Y:    -0.0594      Z:     1.0430     Total:     1.7002

*** Psi4 exiting successfully. Buy a developer a beer!
