                               Psi4 1.3.2 release

  ==> Input File <==

--------------------------------------------------------------------------
#psi4
#
memory 32 gb

molecule  {
0 1
  N        2.4716306    -0.3231734    -0.1891268
  N       -2.5385500    -0.2293020    -0.0118130
  C       -0.0034440    -0.3352880    -0.0308710
  C        1.2721860     0.4950040     0.0229580
  C       -1.2742550     0.5122230     0.0365220
  H        0.0051090    -0.9258550    -0.9544470
  H       -0.0068300    -1.0519040     0.8031080
  H        1.2667210     1.1093200     0.9398110
  H        1.2834760     1.1922470    -0.8225180
  H       -1.2810840     1.2286150    -0.7932870
  H       -1.2759100     1.1062970     0.9579340
  H        2.5106650    -0.9703360     0.7209670
  H        3.2948780     0.1919650    -0.1037960
  H       -2.5611900    -0.9003030     0.7556260
  H       -2.5647950    -0.7858640    -0.8657540
units angstrom
no_reorient  #important for SAPT in psi4, default
symmetry c1  #important for SAPT in psi4, default
}

set PROPERTIES_ORIGIN ["COM"]
properties('MP2/aug-cc-pvtz', properties = ['dipole'])
--------------------------------------------------------------------------

    Molecular point group: c1
  Charge       = 0
  Multiplicity = 1
  Basis Set: AUG-CC-PVTZ
    Blend: AUG-CC-PVTZ
  Basis Set: (AUG-CC-PVTZ AUX)
    Blend: AUG-CC-PVTZ-JKFIT

    Orbital Energies [Eh]
    ---------------------

    Doubly Occupied:

       1A    -15.551834     2A    -15.540650     3A    -11.250673
       4A    -11.247635     5A    -11.218907     6A     -1.183575
       7A     -1.170769     8A     -1.014535     9A     -0.873207
      10A     -0.802954    11A     -0.678427    12A     -0.653057
      13A     -0.633281    14A     -0.589823    15A     -0.553520
      16A     -0.543689    17A     -0.516867    18A     -0.484983
      19A     -0.472230    20A     -0.404949    21A     -0.388856

  @DF-RHF Final Energy:  -228.38628352720588

   => Energetics <=

    Nuclear Repulsion Energy =            185.9895050541382204
    One-Electron Energy =                -677.2027370402173574
    Two-Electron Energy =                 262.8269484588732325
    Total Energy =                       -228.3862835272058760
  Basis Set: (AUG-CC-PVTZ AUX)
    Blend: AUG-CC-PVTZ-RI
    Molecular point group: c1

    Geometry (in Angstrom), charge = 0, multiplicity = 1:

       Center              X                  Y                   Z               Mass
    ------------   -----------------  -----------------  -----------------  -----------------
         N            2.476043707324    -0.330227726962    -0.164454489147    14.003074004430
         N           -2.534136892676    -0.236356326962     0.012859310853    14.003074004430
         C            0.000969107324    -0.342342326962    -0.006198689147    12.000000000000
         C            1.276599107324     0.487949673038     0.047630310853    12.000000000000
         C           -1.269841892676     0.505168673038     0.061194310853    12.000000000000
         H            0.009522107324    -0.932909326962    -0.929774689147     1.007825032230
         H           -0.002416892676    -1.058958326962     0.827780310853     1.007825032230
         H            1.271134107324     1.102265673038     0.964483310853     1.007825032230
         H            1.287889107324     1.185192673038    -0.797845689147     1.007825032230
         H           -1.276670892676     1.221560673038    -0.768614689147     1.007825032230
         H           -1.271496892676     1.099242673038     0.982606310853     1.007825032230
         H            2.515078107324    -0.977390326962     0.745639310853     1.007825032230
         H            3.299291107324     0.184910673038    -0.079123689147     1.007825032230
         H           -2.556776892676    -0.907357326962     0.780298310853     1.007825032230
         H           -2.560381892676    -0.792918326962    -0.841081689147     1.007825032230

  Basis Set: AUG-CC-PVTZ
    Blend: AUG-CC-PVTZ
  Basis Set: (AUG-CC-PVTZ AUX)
    Blend: AUG-CC-PVTZ-JKFIT
	 Reference Energy          =    -228.3862835272058760 [Eh]
	 Singles Energy            =      -0.0000000000000000 [Eh]
	 Same-Spin Energy          =      -0.2384998524553860 [Eh]
	 Opposite-Spin Energy      =      -0.8344517229923584 [Eh]
	 Correlation Energy        =      -1.0729515754477443 [Eh]
	 Total Energy              =    -229.4592351026536221 [Eh]

	 ================> DF-SCS-MP2 Energies <==================
	-----------------------------------------------------------
	 SCS Same-Spin Scale       =       0.3333333333333333 [-]
	 SCS Opposite-Spin Scale   =       1.2000000000000000 [-]
	 SCS Same-Spin Energy      =      -0.0794999508184620 [Eh]
	 SCS Opposite-Spin Energy  =      -1.0013420675908300 [Eh]
	 SCS Correlation Energy    =      -1.0808420184092919 [Eh]
	 SCS Total Energy          =    -229.4671255456151755 [Eh]
	-----------------------------------------------------------

  Dipole Moment: [D]
     X:     1.2074      Y:    -0.1421      Z:     1.1342     Total:     1.6627

*** Psi4 exiting successfully. Buy a developer a beer!
