                               Psi4 1.3.2 release

  ==> Input File <==

--------------------------------------------------------------------------
#psi4
#
memory 32 gb

molecule  {
0 1
  N        2.4319163    -0.3946985    -0.1055595
  N       -2.5385500    -0.2293020    -0.0118130
  C       -0.0034440    -0.3352880    -0.0308710
  C        1.2721860     0.4950040     0.0229580
  C       -1.2742550     0.5122230     0.0365220
  H        0.0051090    -0.9258550    -0.9544470
  H       -0.0068300    -1.0519040     0.8031080
  H        1.2667210     1.1093200     0.9398110
  H        1.2834760     1.1922470    -0.8225180
  H       -1.2810840     1.2286150    -0.7932870
  H       -1.2759100     1.1062970     0.9579340
  H        2.5106650    -0.9703360     0.7209670
  H        3.2948780     0.1919650    -0.1037960
  H       -2.5611900    -0.9003030     0.7556260
  H       -2.5647950    -0.7858640    -0.8657540
units angstrom
no_reorient  #important for SAPT in psi4, default
symmetry c1  #important for SAPT in psi4, default
}

set PROPERTIES_ORIGIN ["COM"]
properties('MP2/aug-cc-pvtz', properties = ['dipole'])
--------------------------------------------------------------------------

    Molecular point group: c1
  Charge       = 0
  Multiplicity = 1
  Basis Set: AUG-CC-PVTZ
    Blend: AUG-CC-PVTZ
  Basis Set: (AUG-CC-PVTZ AUX)
    Blend: AUG-CC-PVTZ-JKFIT

    Orbital Energies [Eh]
    ---------------------

    Doubly Occupied:

       1A    -15.546159     2A    -15.539485     3A    -11.250236
       4A    -11.246048     5A    -11.216568     6A     -1.183658
       7A     -1.170234     8A     -1.012459     9A     -0.872461
      10A     -0.804057    11A     -0.678449    12A     -0.651922
      13A     -0.628596    14A     -0.595969    15A     -0.562052
      16A     -0.533619    17A     -0.522503    18A     -0.487904
      19A     -0.473410    20A     -0.401739    21A     -0.385359

  @DF-RHF Final Energy:  -228.39704317479331

   => Energetics <=

    Nuclear Repulsion Energy =            186.3658383614599074
    One-Electron Energy =                -677.9999870986587212
    Two-Electron Energy =                 263.2371055624055316
    Total Energy =                       -228.3970431747932821
  Basis Set: (AUG-CC-PVTZ AUX)
    Blend: AUG-CC-PVTZ-RI
    Molecular point group: c1

    Geometry (in Angstrom), charge = 0, multiplicity = 1:

       Center              X                  Y                   Z               Mass
    ------------   -----------------  -----------------  -----------------  -----------------
         N            2.443836011879    -0.388233499127    -0.096682675276    14.003074004430
         N           -2.526630288121    -0.222836999127    -0.002936175276    14.003074004430
         C            0.008475711879    -0.328822999127    -0.021994175276    12.000000000000
         C            1.284105711879     0.501469000873     0.031834824724    12.000000000000
         C           -1.262335288121     0.518688000873     0.045398824724    12.000000000000
         H            0.017028711879    -0.919389999127    -0.945570175276     1.007825032230
         H            0.005089711879    -1.045438999127     0.811984824724     1.007825032230
         H            1.278640711879     1.115785000873     0.948687824724     1.007825032230
         H            1.295395711879     1.198712000873    -0.813641175276     1.007825032230
         H           -1.269164288121     1.235080000873    -0.784410175276     1.007825032230
         H           -1.263990288121     1.112762000873     0.966810824724     1.007825032230
         H            2.522584711879    -0.963870999127     0.729843824724     1.007825032230
         H            3.306797711879     0.198430000873    -0.094919175276     1.007825032230
         H           -2.549270288121    -0.893837999127     0.764502824724     1.007825032230
         H           -2.552875288121    -0.779398999127    -0.856877175276     1.007825032230

  Basis Set: AUG-CC-PVTZ
    Blend: AUG-CC-PVTZ
  Basis Set: (AUG-CC-PVTZ AUX)
    Blend: AUG-CC-PVTZ-JKFIT
	 Reference Energy          =    -228.3970431747933105 [Eh]
	 Singles Energy            =      -0.0000000000000000 [Eh]
	 Same-Spin Energy          =      -0.2382336107517223 [Eh]
	 Opposite-Spin Energy      =      -0.8333644268545911 [Eh]
	 Correlation Energy        =      -1.0715980376063134 [Eh]
	 Total Energy              =    -229.4686412123996320 [Eh]

	 ================> DF-SCS-MP2 Energies <==================
	-----------------------------------------------------------
	 SCS Same-Spin Scale       =       0.3333333333333333 [-]
	 SCS Opposite-Spin Scale   =       1.2000000000000000 [-]
	 SCS Same-Spin Energy      =      -0.0794112035839074 [Eh]
	 SCS Opposite-Spin Energy  =      -1.0000373122255093 [Eh]
	 SCS Correlation Energy    =      -1.0794485158094167 [Eh]
	 SCS Total Energy          =    -229.4764916906027281 [Eh]
	-----------------------------------------------------------

  Dipole Moment: [D]
     X:     1.3073      Y:    -0.0862      Z:     1.0272     Total:     1.6648

*** Psi4 exiting successfully. Buy a developer a beer!
