                               Psi4 1.3.2 release

  ==> Input File <==

--------------------------------------------------------------------------
#psi4
#
memory 32 gb

molecule  {
0 1
  N        2.4474120    -0.3743850    -0.1038020
  N       -2.5385500    -0.2293020    -0.0118130
  C       -0.0034440    -0.3352880    -0.0308710
  C        1.2721860     0.4950040     0.0229580
  C       -1.2742550     0.5122230     0.0365220
  H        0.0051090    -0.9258550    -0.9544470
  H       -0.0068300    -1.0519040     0.8031080
  H        1.2667210     1.1093200     0.9398110
  H        1.2834760     1.1922470    -0.8225180
  H       -1.2810840     1.2286150    -0.7932870
  H       -1.2759100     1.1062970     0.9579340
  H        2.5044608    -0.9118814     0.6400685
  H        3.2948780     0.1919650    -0.1037960
  H       -2.5611900    -0.9003030     0.7556260
  H       -2.5647950    -0.7858640    -0.8657540
units angstrom
no_reorient  #important for SAPT in psi4, default
symmetry c1  #important for SAPT in psi4, default
}

set PROPERTIES_ORIGIN ["COM"]
properties('MP2/aug-cc-pvtz', properties = ['dipole'])
--------------------------------------------------------------------------

    Molecular point group: c1
  Charge       = 0
  Multiplicity = 1
  Basis Set: AUG-CC-PVTZ
    Blend: AUG-CC-PVTZ
  Basis Set: (AUG-CC-PVTZ AUX)
    Blend: AUG-CC-PVTZ-JKFIT

    Orbital Energies [Eh]
    ---------------------

    Doubly Occupied:

       1A    -15.539839     2A    -15.531781     3A    -11.249866
       4A    -11.246546     5A    -11.217363     6A     -1.195532
       7A     -1.174103     8A     -1.016944     9A     -0.876992
      10A     -0.806345    11A     -0.682267    12A     -0.665234
      13A     -0.630033    14A     -0.599959    15A     -0.564460
      16A     -0.536893    17A     -0.523746    18A     -0.489230
      19A     -0.473792    20A     -0.401204    21A     -0.385798

  @DF-RHF Final Energy:  -228.39182115780136

   => Energetics <=

    Nuclear Repulsion Energy =            186.8262530907400674
    One-Electron Energy =                -678.8202983817586755
    Two-Electron Energy =                 263.6022241332172484
    Total Energy =                       -228.3918211578013597
  Basis Set: (AUG-CC-PVTZ AUX)
    Blend: AUG-CC-PVTZ-RI
    Molecular point group: c1

    Geometry (in Angstrom), charge = 0, multiplicity = 1:

       Center              X                  Y                   Z               Mass
    ------------   -----------------  -----------------  -----------------  -----------------
         N            2.456487190083    -0.372554759760    -0.094156847098    14.003074004430
         N           -2.529474809917    -0.227471759760    -0.002167847098    14.003074004430
         C            0.005631190083    -0.333457759760    -0.021225847098    12.000000000000
         C            1.281261190083     0.496834240240     0.032603152902    12.000000000000
         C           -1.265179809917     0.514053240240     0.046167152902    12.000000000000
         H            0.014184190083    -0.924024759760    -0.944801847098     1.007825032230
         H            0.002245190083    -1.050073759760     0.812753152902     1.007825032230
         H            1.275796190083     1.111150240240     0.949456152902     1.007825032230
         H            1.292551190083     1.194077240240    -0.812872847098     1.007825032230
         H           -1.272008809917     1.230445240240    -0.783641847098     1.007825032230
         H           -1.266834809917     1.108127240240     0.967579152902     1.007825032230
         H            2.513535990083    -0.910051159760     0.649713652902     1.007825032230
         H            3.303953190083     0.193795240240    -0.094150847098     1.007825032230
         H           -2.552114809917    -0.898472759760     0.765271152902     1.007825032230
         H           -2.555719809917    -0.784033759760    -0.856108847098     1.007825032230

  Basis Set: AUG-CC-PVTZ
    Blend: AUG-CC-PVTZ
  Basis Set: (AUG-CC-PVTZ AUX)
    Blend: AUG-CC-PVTZ-JKFIT
	 Reference Energy          =    -228.3918211578013597 [Eh]
	 Singles Energy            =      -0.0000000000000000 [Eh]
	 Same-Spin Energy          =      -0.2376721595213572 [Eh]
	 Opposite-Spin Energy      =      -0.8315153229730008 [Eh]
	 Correlation Energy        =      -1.0691874824943579 [Eh]
	 Total Energy              =    -229.4610086402957165 [Eh]

	 ================> DF-SCS-MP2 Energies <==================
	-----------------------------------------------------------
	 SCS Same-Spin Scale       =       0.3333333333333333 [-]
	 SCS Opposite-Spin Scale   =       1.2000000000000000 [-]
	 SCS Same-Spin Energy      =      -0.0792240531737857 [Eh]
	 SCS Opposite-Spin Energy  =      -0.9978183875676009 [Eh]
	 SCS Correlation Energy    =      -1.0770424407413866 [Eh]
	 SCS Total Energy          =    -229.4688635985427538 [Eh]
	-----------------------------------------------------------

  Dipole Moment: [D]
     X:     1.2879      Y:    -0.1023      Z:     1.0094     Total:     1.6395

*** Psi4 exiting successfully. Buy a developer a beer!
