                               Psi4 1.3.2 release

  ==> Input File <==

--------------------------------------------------------------------------
#psi4
#
memory 32 gb

molecule  {
0 1
  N        2.4404575    -0.3865354    -0.0823580
  N       -2.5385500    -0.2293020    -0.0118130
  C       -0.0034440    -0.3352880    -0.0308710
  C        1.2721860     0.4950040     0.0229580
  C       -1.2742550     0.5122230     0.0365220
  H        0.0051090    -0.9258550    -0.9544470
  H       -0.0068300    -1.0519040     0.8031080
  H        1.2667210     1.1093200     0.9398110
  H        1.2834760     1.1922470    -0.8225180
  H       -1.2810840     1.2286150    -0.7932870
  H       -1.2759100     1.1062970     0.9579340
  H        2.5106650    -0.9703360     0.7209670
  H        3.2948780     0.1919650    -0.1037960
  H       -2.5611900    -0.9003030     0.7556260
  H       -2.5647950    -0.7858640    -0.8657540
units angstrom
no_reorient  #important for SAPT in psi4, default
symmetry c1  #important for SAPT in psi4, default
}

set PROPERTIES_ORIGIN ["COM"]
properties('MP2/aug-cc-pvtz', properties = ['dipole'])
--------------------------------------------------------------------------

    Molecular point group: c1
  Charge       = 0
  Multiplicity = 1
  Basis Set: AUG-CC-PVTZ
    Blend: AUG-CC-PVTZ
  Basis Set: (AUG-CC-PVTZ AUX)
    Blend: AUG-CC-PVTZ-JKFIT

    Orbital Energies [Eh]
    ---------------------

    Doubly Occupied:

       1A    -15.542003     2A    -15.539586     3A    -11.250210
       4A    -11.246176     5A    -11.216793     6A     -1.184308
       7A     -1.170840     8A     -1.013285     9A     -0.873301
      10A     -0.804437    11A     -0.678991    12A     -0.656359
      13A     -0.627707    14A     -0.597723    15A     -0.562774
      16A     -0.535025    17A     -0.523439    18A     -0.488505
      19A     -0.473663    20A     -0.398899    21A     -0.384673

  @DF-RHF Final Energy:  -228.39813474426603

   => Energetics <=

    Nuclear Repulsion Energy =            186.4035137454135338
    One-Electron Energy =                -678.0659033360070680
    Two-Electron Energy =                 263.2642548463275034
    Total Energy =                       -228.3981347442660308
  Basis Set: (AUG-CC-PVTZ AUX)
    Blend: AUG-CC-PVTZ-RI
    Molecular point group: c1

    Geometry (in Angstrom), charge = 0, multiplicity = 1:

       Center              X                  Y                   Z               Mass
    ------------   -----------------  -----------------  -----------------  -----------------
         N            2.450762795641    -0.381613348735    -0.077866610386    14.003074004430
         N           -2.528244704359    -0.224379948735    -0.007321610386    14.003074004430
         C            0.006861295641    -0.330365948735    -0.026379610386    12.000000000000
         C            1.282491295641     0.499926051265     0.027449389614    12.000000000000
         C           -1.263949704359     0.517145051265     0.041013389614    12.000000000000
         H            0.015414295641    -0.920932948735    -0.949955610386     1.007825032230
         H            0.003475295641    -1.046981948735     0.807599389614     1.007825032230
         H            1.277026295641     1.114242051265     0.944302389614     1.007825032230
         H            1.293781295641     1.197169051265    -0.818026610386     1.007825032230
         H           -1.270778704359     1.233537051265    -0.788795610386     1.007825032230
         H           -1.265604704359     1.111219051265     0.962425389614     1.007825032230
         H            2.520970295641    -0.965413948735     0.725458389614     1.007825032230
         H            3.305183295641     0.196887051265    -0.099304610386     1.007825032230
         H           -2.550884704359    -0.895380948735     0.760117389614     1.007825032230
         H           -2.554489704359    -0.780941948735    -0.861262610386     1.007825032230

  Basis Set: AUG-CC-PVTZ
    Blend: AUG-CC-PVTZ
  Basis Set: (AUG-CC-PVTZ AUX)
    Blend: AUG-CC-PVTZ-JKFIT
	 Reference Energy          =    -228.3981347442660308 [Eh]
	 Singles Energy            =      -0.0000000000000000 [Eh]
	 Same-Spin Energy          =      -0.2380514647101137 [Eh]
	 Opposite-Spin Energy      =      -0.8327622475301935 [Eh]
	 Correlation Energy        =      -1.0708137122403072 [Eh]
	 Total Energy              =    -229.4689484565063253 [Eh]

	 ================> DF-SCS-MP2 Energies <==================
	-----------------------------------------------------------
	 SCS Same-Spin Scale       =       0.3333333333333333 [-]
	 SCS Opposite-Spin Scale   =       1.2000000000000000 [-]
	 SCS Same-Spin Energy      =      -0.0793504882367046 [Eh]
	 SCS Opposite-Spin Energy  =      -0.9993146970362321 [Eh]
	 SCS Correlation Energy    =      -1.0786651852729368 [Eh]
	 SCS Total Energy          =    -229.4767999295389700 [Eh]
	-----------------------------------------------------------

  Dipole Moment: [D]
     X:     1.2961      Y:    -0.1073      Z:     0.9829     Total:     1.6302

*** Psi4 exiting successfully. Buy a developer a beer!
