                               Psi4 1.3.2 release

  ==> Input File <==

--------------------------------------------------------------------------
#psi4
#
memory 32 gb

molecule  {
0 1
  N        2.4474120    -0.3743850    -0.1038020
  N       -2.5385500    -0.2293020    -0.0118130
  C       -0.0034440    -0.3352880    -0.0308710
  C        1.1920933     0.5542537     0.0315968
  C       -1.2742550     0.5122230     0.0365220
  H        0.0051090    -0.9258550    -0.9544470
  H       -0.0068300    -1.0519040     0.8031080
  H        1.2667210     1.1093200     0.9398110
  H        1.2834760     1.1922470    -0.8225180
  H       -1.2810840     1.2286150    -0.7932870
  H       -1.2759100     1.1062970     0.9579340
  H        2.5106650    -0.9703360     0.7209670
  H        3.2948780     0.1919650    -0.1037960
  H       -2.5611900    -0.9003030     0.7556260
  H       -2.5647950    -0.7858640    -0.8657540
units angstrom
no_reorient  #important for SAPT in psi4, default
symmetry c1  #important for SAPT in psi4, default
}

set PROPERTIES_ORIGIN ["COM"]
properties('MP2/aug-cc-pvtz', properties = ['dipole'])
--------------------------------------------------------------------------

    Molecular point group: c1
  Charge       = 0
  Multiplicity = 1
  Basis Set: AUG-CC-PVTZ
    Blend: AUG-CC-PVTZ
  Basis Set: (AUG-CC-PVTZ AUX)
    Blend: AUG-CC-PVTZ-JKFIT

    Orbital Energies [Eh]
    ---------------------

    Doubly Occupied:

       1A    -15.540494     2A    -15.539773     3A    -11.249706
       4A    -11.246853     5A    -11.218022     6A     -1.178942
       7A     -1.151479     8A     -1.020834     9A     -0.876547
      10A     -0.809190    11A     -0.681203    12A     -0.647645
      13A     -0.623533    14A     -0.596692    15A     -0.561485
      16A     -0.530173    17A     -0.513561    18A     -0.502807
      19A     -0.477407    20A     -0.397485    21A     -0.386419

  @DF-RHF Final Energy:  -228.38996805783717

   => Energetics <=

    Nuclear Repulsion Energy =            186.0933479127560588
    One-Electron Energy =                -677.4661335086235567
    Two-Electron Energy =                 262.9828175380303605
    Total Energy =                       -228.3899680578371658
  Basis Set: (AUG-CC-PVTZ AUX)
    Blend: AUG-CC-PVTZ-RI
    Molecular point group: c1

    Geometry (in Angstrom), charge = 0, multiplicity = 1:

       Center              X                  Y                   Z               Mass
    ------------   -----------------  -----------------  -----------------  -----------------
         N            2.469375998975    -0.381356672249    -0.096656659981    14.003074004430
         N           -2.516586001025    -0.236273672249    -0.004667659981    14.003074004430
         C            0.018519998975    -0.342259672249    -0.023725659981    12.000000000000
         C            1.214057298975     0.547282027751     0.038742140019    12.000000000000
         C           -1.252291001025     0.505251327751     0.043667340019    12.000000000000
         H            0.027072998975    -0.932826672249    -0.947301659981     1.007825032230
         H            0.015133998975    -1.058875672249     0.810253340019     1.007825032230
         H            1.288684998975     1.102348327751     0.946956340019     1.007825032230
         H            1.305439998975     1.185275327751    -0.815372659981     1.007825032230
         H           -1.259120001025     1.221643327751    -0.786141659981     1.007825032230
         H           -1.253946001025     1.099325327751     0.965079340019     1.007825032230
         H            2.532628998975    -0.977307672249     0.728112340019     1.007825032230
         H            3.316841998975     0.184993327751    -0.096650659981     1.007825032230
         H           -2.539226001025    -0.907274672249     0.762771340019     1.007825032230
         H           -2.542831001025    -0.792835672249    -0.858608659981     1.007825032230

  Basis Set: AUG-CC-PVTZ
    Blend: AUG-CC-PVTZ
  Basis Set: (AUG-CC-PVTZ AUX)
    Blend: AUG-CC-PVTZ-JKFIT
	 Reference Energy          =    -228.3899680578371658 [Eh]
	 Singles Energy            =      -0.0000000000000000 [Eh]
	 Same-Spin Energy          =      -0.2382886208171024 [Eh]
	 Opposite-Spin Energy      =      -0.8341038649768706 [Eh]
	 Correlation Energy        =      -1.0723924857939731 [Eh]
	 Total Energy              =    -229.4623605436311493 [Eh]

	 ================> DF-SCS-MP2 Energies <==================
	-----------------------------------------------------------
	 SCS Same-Spin Scale       =       0.3333333333333333 [-]
	 SCS Opposite-Spin Scale   =       1.2000000000000000 [-]
	 SCS Same-Spin Energy      =      -0.0794295402723675 [Eh]
	 SCS Opposite-Spin Energy  =      -1.0009246379722447 [Eh]
	 SCS Correlation Energy    =      -1.0803541782446122 [Eh]
	 SCS Total Energy          =    -229.4703222360817847 [Eh]
	-----------------------------------------------------------

  Dipole Moment: [D]
     X:     1.0729      Y:     0.0024      Z:     1.0390     Total:     1.4935

*** Psi4 exiting successfully. Buy a developer a beer!
