                               Psi4 1.3.2 release

  ==> Input File <==

--------------------------------------------------------------------------
#psi4
#
memory 32 gb

molecule  {
0 1
  N        2.4474120    -0.3743850    -0.1038020
  N       -2.5385500    -0.2293020    -0.0118130
  C       -0.0034440    -0.3352880    -0.0308710
  C        1.2721860     0.4950040     0.0229580
  C       -1.2742550     0.5122230     0.0365220
  H        0.0051090    -0.9258550    -0.9544470
  H       -0.0068300    -1.0519040     0.8031080
  H        1.2667210     1.1093200     0.9398110
  H        1.2834760     1.1922470    -0.8225180
  H       -1.2810840     1.2286150    -0.7932870
  H       -1.2759100     1.1062970     0.9579340
  H        2.5263475    -0.9629218     0.7249296
  H        3.2948780     0.1919650    -0.1037960
  H       -2.5611900    -0.9003030     0.7556260
  H       -2.5647950    -0.7858640    -0.8657540
units angstrom
no_reorient  #important for SAPT in psi4, default
symmetry c1  #important for SAPT in psi4, default
}

set PROPERTIES_ORIGIN ["COM"]
properties('MP2/aug-cc-pvtz', properties = ['dipole'])
--------------------------------------------------------------------------

    Molecular point group: c1
  Charge       = 0
  Multiplicity = 1
  Basis Set: AUG-CC-PVTZ
    Blend: AUG-CC-PVTZ
  Basis Set: (AUG-CC-PVTZ AUX)
    Blend: AUG-CC-PVTZ-JKFIT

    Orbital Energies [Eh]
    ---------------------

    Doubly Occupied:

       1A    -15.543952     2A    -15.539742     3A    -11.250287
       4A    -11.246403     5A    -11.217075     6A     -1.183903
       7A     -1.170693     8A     -1.013455     9A     -0.873140
      10A     -0.803877    11A     -0.678596    12A     -0.654099
      13A     -0.629584    14A     -0.595715    15A     -0.561191
      16A     -0.536771    17A     -0.522378    18A     -0.488154
      19A     -0.473489    20A     -0.400253    21A     -0.385674

  @DF-RHF Final Energy:  -228.39835763380074

   => Energetics <=

    Nuclear Repulsion Energy =            186.2970659672603233
    One-Electron Energy =                -677.8539877069531485
    Two-Electron Energy =                 263.1585641058920828
    Total Energy =                       -228.3983576338007424
  Basis Set: (AUG-CC-PVTZ AUX)
    Blend: AUG-CC-PVTZ-RI
    Molecular point group: c1

    Geometry (in Angstrom), charge = 0, multiplicity = 1:

       Center              X                  Y                   Z               Mass
    ------------   -----------------  -----------------  -----------------  -----------------
         N            2.456189449066    -0.371860419333    -0.095311275598    14.003074004430
         N           -2.529772550934    -0.226777419333    -0.003322275598    14.003074004430
         C            0.005333449066    -0.332763419333    -0.022380275598    12.000000000000
         C            1.280963449066     0.497528580667     0.031448724402    12.000000000000
         C           -1.265477550934     0.514747580667     0.045012724402    12.000000000000
         H            0.013886449066    -0.923330419333    -0.945956275598     1.007825032230
         H            0.001947449066    -1.049379419333     0.811598724402     1.007825032230
         H            1.275498449066     1.111844580667     0.948301724402     1.007825032230
         H            1.292253449066     1.194771580667    -0.814027275598     1.007825032230
         H           -1.272306550934     1.231139580667    -0.784796275598     1.007825032230
         H           -1.267132550934     1.108821580667     0.966424724402     1.007825032230
         H            2.535124949066    -0.960397219333     0.733420324402     1.007825032230
         H            3.303655449066     0.194489580667    -0.095305275598     1.007825032230
         H           -2.552412550934    -0.897778419333     0.764116724402     1.007825032230
         H           -2.556017550934    -0.783339419333    -0.857263275598     1.007825032230

  Basis Set: AUG-CC-PVTZ
    Blend: AUG-CC-PVTZ
  Basis Set: (AUG-CC-PVTZ AUX)
    Blend: AUG-CC-PVTZ-JKFIT
	 Reference Energy          =    -228.3983576338007424 [Eh]
	 Singles Energy            =      -0.0000000000000000 [Eh]
	 Same-Spin Energy          =      -0.2381089122623863 [Eh]
	 Opposite-Spin Energy      =      -0.8329811670644779 [Eh]
	 Correlation Energy        =      -1.0710900793268643 [Eh]
	 Total Energy              =    -229.4694477131276074 [Eh]

	 ================> DF-SCS-MP2 Energies <==================
	-----------------------------------------------------------
	 SCS Same-Spin Scale       =       0.3333333333333333 [-]
	 SCS Opposite-Spin Scale   =       1.2000000000000000 [-]
	 SCS Same-Spin Energy      =      -0.0793696374207954 [Eh]
	 SCS Opposite-Spin Energy  =      -0.9995774004773734 [Eh]
	 SCS Correlation Energy    =      -1.0789470378981689 [Eh]
	 SCS Total Energy          =    -229.4773046716989029 [Eh]
	-----------------------------------------------------------

  Dipole Moment: [D]
     X:     1.2907      Y:    -0.1080      Z:     1.0211     Total:     1.6493

*** Psi4 exiting successfully. Buy a developer a beer!
