                               Psi4 1.4a3.dev225

  ==> Input File <==

--------------------------------------------------------------------------
#psi4
#
memory 32 gb

molecule  {
0 1
  N        2.4472590    -0.3746750    -0.1036760
  N       -2.5383840    -0.2296350    -0.0118050
  C       -0.0033610    -0.3349390    -0.0309630
  C        1.2322696     0.5247850     0.0272596
  C       -1.2744810     0.5123910     0.0365760
  H        0.0049230    -0.9252980    -0.9546620
  H       -0.0068110    -1.0516390     0.8029280
  H        1.2668140     1.1094270     0.9397930
  H        1.2839730     1.1922540    -0.8226020
  H       -1.2814540     1.2287750    -0.7932160
  H       -1.2762360     1.1063260     0.9580520
  H        2.5106150    -0.9701230     0.7213900
  H        3.2948040     0.1914740    -0.1044810
  H       -2.5609240    -0.9005840     0.7556250
  H       -2.5646110    -0.7860270    -0.8658080
units angstrom
no_reorient  #important for SAPT in psi4, default
symmetry c1  #important for SAPT in psi4, default
}

set PROPERTIES_ORIGIN ["COM"]
properties('MP2/aug-cc-pvtz', properties = ['dipole'])
--------------------------------------------------------------------------

    Molecular point group: c1
  Charge       = 0
  Multiplicity = 1
  Basis Set: AUG-CC-PVTZ
    Blend: AUG-CC-PVTZ
  Basis Set: (AUG-CC-PVTZ AUX)
    Blend: AUG-CC-PVTZ-JKFIT

    Orbital Energies [Eh]
    ---------------------

    Doubly Occupied:

       1A    -15.542275     2A    -15.539732     3A    -11.249475
       4A    -11.246593     5A    -11.217470     6A     -1.179619
       7A     -1.161882     8A     -1.017096     9A     -0.874779
      10A     -0.806520    11A     -0.679788    12A     -0.650897
      13A     -0.625644    14A     -0.595999    15A     -0.560839
      16A     -0.530695    17A     -0.521237    18A     -0.496078
      19A     -0.475612    20A     -0.399337    21A     -0.386283

  @DF-RHF Final Energy:  -228.39621046972189

   => Energetics <=

    Nuclear Repulsion Energy =            186.1949838747683543
    One-Electron Energy =                -677.6666868156829651
    Two-Electron Energy =                 263.0754924711927174
    Total Energy =                       -228.3962104697218933
  Basis Set: (AUG-CC-PVTZ AUX)
    Blend: AUG-CC-PVTZ-RI
    Molecular point group: c1

    Geometry (in Angstrom), charge = 0, multiplicity = 1:

       Center              X                  Y                   Z               Mass
    ------------   -----------------  -----------------  -----------------  -----------------
         N            2.462735329971    -0.376844876329    -0.095838802048    14.003074004430
         N           -2.522907670029    -0.231804876329    -0.003967802048    14.003074004430
         C            0.012115329971    -0.337108876329    -0.023125802048    12.000000000000
         C            1.247745929971     0.522615123671     0.035096797952    12.000000000000
         C           -1.259004670029     0.510221123671     0.044413197952    12.000000000000
         H            0.020399329971    -0.927467876329    -0.946824802048     1.007825032230
         H            0.008665329971    -1.053808876329     0.810765197952     1.007825032230
         H            1.282290329971     1.107257123671     0.947630197952     1.007825032230
         H            1.299449329971     1.190084123671    -0.814764802048     1.007825032230
         H           -1.265977670029     1.226605123671    -0.785378802048     1.007825032230
         H           -1.260759670029     1.104156123671     0.965889197952     1.007825032230
         H            2.526091329971    -0.972292876329     0.729227197952     1.007825032230
         H            3.310280329971     0.189304123671    -0.096643802048     1.007825032230
         H           -2.545447670029    -0.902753876329     0.763462197952     1.007825032230
         H           -2.549134670029    -0.788196876329    -0.857970802048     1.007825032230

  Basis Set: AUG-CC-PVTZ
    Blend: AUG-CC-PVTZ
  Basis Set: (AUG-CC-PVTZ AUX)
    Blend: AUG-CC-PVTZ-JKFIT
	 Reference Energy          =    -228.3962104697218933 [Eh]
	 Singles Energy            =      -0.0000000000000000 [Eh]
	 Same-Spin Energy          =      -0.2381140879842431 [Eh]
	 Opposite-Spin Energy      =      -0.8333811188296252 [Eh]
	 Correlation Energy        =      -1.0714952068138683 [Eh]
	 Total Energy              =    -229.4677056765357577 [Eh]

	 ================> DF-SCS-MP2 Energies <==================
	-----------------------------------------------------------
	 SCS Same-Spin Scale       =       0.3333333333333333 [-]
	 SCS Opposite-Spin Scale   =       1.2000000000000000 [-]
	 SCS Same-Spin Energy      =      -0.0793713626614143 [Eh]
	 SCS Opposite-Spin Energy  =      -1.0000573425955501 [Eh]
	 SCS Correlation Energy    =      -1.0794287052569644 [Eh]
	 SCS Total Energy          =    -229.4756391749788520 [Eh]
	-----------------------------------------------------------

  Dipole Moment: [D]
     X:     1.1745      Y:    -0.0513      Z:     1.0289     Total:     1.5623

*** Psi4 exiting successfully. Buy a developer a beer!
