                               Psi4 1.4a3.dev225

  ==> Input File <==

--------------------------------------------------------------------------
#psi4
#
memory 32 gb

molecule  {
0 1
  N        2.4472590    -0.3746750    -0.1036760
  N       -2.5383840    -0.2296350    -0.0118050
  C       -0.0033610    -0.3349390    -0.0309630
  C        1.3123424     0.4655070     0.0186304
  C       -1.2744810     0.5123910     0.0365760
  H        0.0049230    -0.9252980    -0.9546620
  H       -0.0068110    -1.0516390     0.8029280
  H        1.2668140     1.1094270     0.9397930
  H        1.2839730     1.1922540    -0.8226020
  H       -1.2814540     1.2287750    -0.7932160
  H       -1.2762360     1.1063260     0.9580520
  H        2.5106150    -0.9701230     0.7213900
  H        3.2948040     0.1914740    -0.1044810
  H       -2.5609240    -0.9005840     0.7556250
  H       -2.5646110    -0.7860270    -0.8658080
units angstrom
no_reorient  #important for SAPT in psi4, default
symmetry c1  #important for SAPT in psi4, default
}

set PROPERTIES_ORIGIN ["COM"]
properties('MP2/aug-cc-pvtz', properties = ['dipole'])
--------------------------------------------------------------------------

    Molecular point group: c1
  Charge       = 0
  Multiplicity = 1
  Basis Set: AUG-CC-PVTZ
    Blend: AUG-CC-PVTZ
  Basis Set: (AUG-CC-PVTZ AUX)
    Blend: AUG-CC-PVTZ-JKFIT

    Orbital Energies [Eh]
    ---------------------

    Doubly Occupied:

       1A    -15.545212     2A    -15.539810     3A    -11.251540
       4A    -11.246363     5A    -11.217017     6A     -1.196013
       7A     -1.173772     8A     -1.009452     9A     -0.870930
      10A     -0.801401    11A     -0.678431    12A     -0.660978
      13A     -0.634797    14A     -0.595531    15A     -0.562542
      16A     -0.542516    17A     -0.521627    18A     -0.481114
      19A     -0.470298    20A     -0.399273    21A     -0.383757

  @DF-RHF Final Energy:  -228.39573473600632

   => Energetics <=

    Nuclear Repulsion Energy =            186.4575424828740324
    One-Electron Energy =                -678.1418080856195729
    Two-Electron Energy =                 263.2885308667392223
    Total Energy =                       -228.3957347360063181
  Basis Set: (AUG-CC-PVTZ AUX)
    Blend: AUG-CC-PVTZ-RI
    Molecular point group: c1

    Geometry (in Angstrom), charge = 0, multiplicity = 1:

       Center              X                  Y                   Z               Mass
    ------------   -----------------  -----------------  -----------------  -----------------
         N            2.449765344095    -0.367243178589    -0.094441066461    14.003074004430
         N           -2.535877655905    -0.222203178589    -0.002570066461    14.003074004430
         C           -0.000854655905    -0.327507178589    -0.021728066461    12.000000000000
         C            1.314848744095     0.472938821411     0.027865333539    12.000000000000
         C           -1.271974655905     0.519822821411     0.045810933539    12.000000000000
         H            0.007429344095    -0.917866178589    -0.945427066461     1.007825032230
         H           -0.004304655905    -1.044207178589     0.812162933539     1.007825032230
         H            1.269320344095     1.116858821411     0.949027933539     1.007825032230
         H            1.286479344095     1.199685821411    -0.813367066461     1.007825032230
         H           -1.278947655905     1.236206821411    -0.783981066461     1.007825032230
         H           -1.273729655905     1.113757821411     0.967286933539     1.007825032230
         H            2.513121344095    -0.962691178589     0.730624933539     1.007825032230
         H            3.297310344095     0.198905821411    -0.095246066461     1.007825032230
         H           -2.558417655905    -0.893152178589     0.764859933539     1.007825032230
         H           -2.562104655905    -0.778595178589    -0.856573066461     1.007825032230

  Basis Set: AUG-CC-PVTZ
    Blend: AUG-CC-PVTZ
  Basis Set: (AUG-CC-PVTZ AUX)
    Blend: AUG-CC-PVTZ-JKFIT
	 Reference Energy          =    -228.3957347360063181 [Eh]
	 Singles Energy            =      -0.0000000000000000 [Eh]
	 Same-Spin Energy          =      -0.2382949823043259 [Eh]
	 Opposite-Spin Energy      =      -0.8328906988561988 [Eh]
	 Correlation Energy        =      -1.0711856811605247 [Eh]
	 Total Energy              =    -229.4669204171668468 [Eh]

	 ================> DF-SCS-MP2 Energies <==================
	-----------------------------------------------------------
	 SCS Same-Spin Scale       =       0.3333333333333333 [-]
	 SCS Opposite-Spin Scale   =       1.2000000000000000 [-]
	 SCS Same-Spin Energy      =      -0.0794316607681086 [Eh]
	 SCS Opposite-Spin Energy  =      -0.9994688386274385 [Eh]
	 SCS Correlation Energy    =      -1.0789004993955471 [Eh]
	 SCS Total Energy          =    -229.4746352354018768 [Eh]
	-----------------------------------------------------------

  Dipole Moment: [D]
     X:     1.3941      Y:    -0.1920      Z:     0.9961     Total:     1.7242

*** Psi4 exiting successfully. Buy a developer a beer!
