                               Psi4 1.3.2 release

  ==> Input File <==

--------------------------------------------------------------------------
#psi4
#
memory 32 gb

molecule  {
0 1
  N        2.4474120    -0.3743850    -0.1038020
  N       -2.5385500    -0.2293020    -0.0118130
  C       -0.0034440    -0.3352880    -0.0308710
  C        1.2139845     0.4108016     0.0194867
  C       -1.2742550     0.5122230     0.0365220
  H        0.0051090    -0.9258550    -0.9544470
  H       -0.0068300    -1.0519040     0.8031080
  H        1.2667210     1.1093200     0.9398110
  H        1.2834760     1.1922470    -0.8225180
  H       -1.2810840     1.2286150    -0.7932870
  H       -1.2759100     1.1062970     0.9579340
  H        2.5106650    -0.9703360     0.7209670
  H        3.2948780     0.1919650    -0.1037960
  H       -2.5611900    -0.9003030     0.7556260
  H       -2.5647950    -0.7858640    -0.8657540
units angstrom
no_reorient  #important for SAPT in psi4, default
symmetry c1  #important for SAPT in psi4, default
}

set PROPERTIES_ORIGIN ["COM"]
properties('MP2/aug-cc-pvtz', properties = ['dipole'])
--------------------------------------------------------------------------

    Molecular point group: c1
  Charge       = 0
  Multiplicity = 1
  Basis Set: AUG-CC-PVTZ
    Blend: AUG-CC-PVTZ
  Basis Set: (AUG-CC-PVTZ AUX)
    Blend: AUG-CC-PVTZ-JKFIT

    Orbital Energies [Eh]
    ---------------------

    Doubly Occupied:

       1A    -15.543845     2A    -15.541616     3A    -11.255972
       4A    -11.249341     5A    -11.215042     6A     -1.187448
       7A     -1.171732     8A     -1.030247     9A     -0.874556
      10A     -0.797833    11A     -0.681024    12A     -0.657862
      13A     -0.630344    14A     -0.600426    15A     -0.562085
      16A     -0.550264    17A     -0.515791    18A     -0.493127
      19A     -0.465420    20A     -0.394779    21A     -0.386098

  @DF-RHF Final Energy:  -228.38603358475689

   => Energetics <=

    Nuclear Repulsion Energy =            187.3173530658436334
    One-Electron Energy =                -679.7970714296493497
    Two-Electron Energy =                 264.0936847790488287
    Total Energy =                       -228.3860335847568876
  Basis Set: (AUG-CC-PVTZ AUX)
    Blend: AUG-CC-PVTZ-RI
    Molecular point group: c1

    Geometry (in Angstrom), charge = 0, multiplicity = 1:

       Center              X                  Y                   Z               Mass
    ------------   -----------------  -----------------  -----------------  -----------------
         N            2.465830118791    -0.358120670624    -0.094695097179    14.003074004430
         N           -2.520131881209    -0.213037670624    -0.002706097179    14.003074004430
         C            0.014974118791    -0.319023670624    -0.021764097179    12.000000000000
         C            1.232402618791     0.427065929376     0.028593602821    12.000000000000
         C           -1.255836881209     0.528487329376     0.045628902821    12.000000000000
         H            0.023527118791    -0.909590670624    -0.945340097179     1.007825032230
         H            0.011588118791    -1.035639670624     0.812214902821     1.007825032230
         H            1.285139118791     1.125584329376     0.948917902821     1.007825032230
         H            1.301894118791     1.208511329376    -0.813411097179     1.007825032230
         H           -1.262665881209     1.244879329376    -0.784180097179     1.007825032230
         H           -1.257491881209     1.122561329376     0.967040902821     1.007825032230
         H            2.529083118791    -0.954071670624     0.730073902821     1.007825032230
         H            3.313296118791     0.208229329376    -0.094689097179     1.007825032230
         H           -2.542771881209    -0.884038670624     0.764732902821     1.007825032230
         H           -2.546376881209    -0.769599670624    -0.856647097179     1.007825032230

  Basis Set: AUG-CC-PVTZ
    Blend: AUG-CC-PVTZ
  Basis Set: (AUG-CC-PVTZ AUX)
    Blend: AUG-CC-PVTZ-JKFIT
	 Reference Energy          =    -228.3860335847568876 [Eh]
	 Singles Energy            =      -0.0000000000000000 [Eh]
	 Same-Spin Energy          =      -0.2390182564025176 [Eh]
	 Opposite-Spin Energy      =      -0.8340300029624647 [Eh]
	 Correlation Energy        =      -1.0730482593649824 [Eh]
	 Total Energy              =    -229.4590818441218687 [Eh]

	 ================> DF-SCS-MP2 Energies <==================
	-----------------------------------------------------------
	 SCS Same-Spin Scale       =       0.3333333333333333 [-]
	 SCS Opposite-Spin Scale   =       1.2000000000000000 [-]
	 SCS Same-Spin Energy      =      -0.0796727521341725 [Eh]
	 SCS Opposite-Spin Energy  =      -1.0008360035549575 [Eh]
	 SCS Correlation Energy    =      -1.0805087556891300 [Eh]
	 SCS Total Energy          =    -229.4665423404460114 [Eh]
	-----------------------------------------------------------

  Dipole Moment: [D]
     X:     1.1758      Y:    -0.1982      Z:     0.9941     Total:     1.5524

*** Psi4 exiting successfully. Buy a developer a beer!
