                               Psi4 1.3.2 release

  ==> Input File <==

--------------------------------------------------------------------------
#psi4
#
memory 32 gb

molecule  {
0 1
  N        2.4474120    -0.3743850    -0.1038020
  N       -2.5385500    -0.2293020    -0.0118130
  C       -0.0034440    -0.3352880    -0.0308710
  C        1.3034527     0.5355417     0.0244630
  C       -1.2742550     0.5122230     0.0365220
  H        0.0051090    -0.9258550    -0.9544470
  H       -0.0068300    -1.0519040     0.8031080
  H        1.2667210     1.1093200     0.9398110
  H        1.2834760     1.1922470    -0.8225180
  H       -1.2810840     1.2286150    -0.7932870
  H       -1.2759100     1.1062970     0.9579340
  H        2.5106650    -0.9703360     0.7209670
  H        3.2948780     0.1919650    -0.1037960
  H       -2.5611900    -0.9003030     0.7556260
  H       -2.5647950    -0.7858640    -0.8657540
units angstrom
no_reorient  #important for SAPT in psi4, default
symmetry c1  #important for SAPT in psi4, default
}

set PROPERTIES_ORIGIN ["COM"]
properties('MP2/aug-cc-pvtz', properties = ['dipole'])
--------------------------------------------------------------------------

    Molecular point group: c1
  Charge       = 0
  Multiplicity = 1
  Basis Set: AUG-CC-PVTZ
    Blend: AUG-CC-PVTZ
  Basis Set: (AUG-CC-PVTZ AUX)
    Blend: AUG-CC-PVTZ-JKFIT

    Orbital Energies [Eh]
    ---------------------

    Doubly Occupied:

       1A    -15.544321     2A    -15.538943     3A    -11.248331
       4A    -11.245215     5A    -11.218098     6A     -1.182718
       7A     -1.170337     8A     -1.006338     9A     -0.873505
      10A     -0.805658    11A     -0.678236    12A     -0.655186
      13A     -0.628803    14A     -0.594587    15A     -0.561943
      16A     -0.531803    17A     -0.528325    18A     -0.480635
      19A     -0.474970    20A     -0.403273    21A     -0.382810

  @DF-RHF Final Energy:  -228.39608727126694

   => Energetics <=

    Nuclear Repulsion Energy =            185.8226694517531712
    One-Electron Energy =                -676.9294427000477299
    Two-Electron Energy =                 262.7106859770275946
    Total Energy =                       -228.3960872712669357
  Basis Set: (AUG-CC-PVTZ AUX)
    Blend: AUG-CC-PVTZ-RI
    Molecular point group: c1

    Geometry (in Angstrom), charge = 0, multiplicity = 1:

       Center              X                  Y                   Z               Mass
    ------------   -----------------  -----------------  -----------------  -----------------
         N            2.451338290225    -0.378325750691    -0.095501145434    14.003074004430
         N           -2.534623709775    -0.233242750691    -0.003512145434    14.003074004430
         C            0.000482290225    -0.339228750691    -0.022570145434    12.000000000000
         C            1.307378990225     0.531600949309     0.032763854566    12.000000000000
         C           -1.270328709775     0.508282249309     0.044822854566    12.000000000000
         H            0.009035290225    -0.929795750691    -0.946146145434     1.007825032230
         H           -0.002903709775    -1.055844750691     0.811408854566     1.007825032230
         H            1.270647290225     1.105379249309     0.948111854566     1.007825032230
         H            1.287402290225     1.188306249309    -0.814217145434     1.007825032230
         H           -1.277157709775     1.224674249309    -0.784986145434     1.007825032230
         H           -1.271983709775     1.102356249309     0.966234854566     1.007825032230
         H            2.514591290225    -0.974276750691     0.729267854566     1.007825032230
         H            3.298804290225     0.188024249309    -0.095495145434     1.007825032230
         H           -2.557263709775    -0.904243750691     0.763926854566     1.007825032230
         H           -2.560868709775    -0.789804750691    -0.857453145434     1.007825032230

  Basis Set: AUG-CC-PVTZ
    Blend: AUG-CC-PVTZ
  Basis Set: (AUG-CC-PVTZ AUX)
    Blend: AUG-CC-PVTZ-JKFIT
	 Reference Energy          =    -228.3960872712669357 [Eh]
	 Singles Energy            =      -0.0000000000000000 [Eh]
	 Same-Spin Energy          =      -0.2379585902580268 [Eh]
	 Opposite-Spin Energy      =      -0.8330212686938957 [Eh]
	 Correlation Energy        =      -1.0709798589519226 [Eh]
	 Total Energy              =    -229.4670671302188509 [Eh]

	 ================> DF-SCS-MP2 Energies <==================
	-----------------------------------------------------------
	 SCS Same-Spin Scale       =       0.3333333333333333 [-]
	 SCS Opposite-Spin Scale   =       1.2000000000000000 [-]
	 SCS Same-Spin Energy      =      -0.0793195300860089 [Eh]
	 SCS Opposite-Spin Energy  =      -0.9996255224326748 [Eh]
	 SCS Correlation Energy    =      -1.0789450525186837 [Eh]
	 SCS Total Energy          =    -229.4750323237856264 [Eh]
	-----------------------------------------------------------

  Dipole Moment: [D]
     X:     1.3287      Y:    -0.0913      Z:     1.0248     Total:     1.6805

*** Psi4 exiting successfully. Buy a developer a beer!
