                               Psi4 1.3.2 release

  ==> Input File <==

--------------------------------------------------------------------------
#psi4
#
memory 32 gb

molecule  {
0 1
  N        2.4474120    -0.3743850    -0.1038020
  N       -2.5385500    -0.2293020    -0.0118130
  C       -0.0034440    -0.3352880    -0.0308710
  C        1.3522787     0.4357543     0.0143192
  C       -1.2742550     0.5122230     0.0365220
  H        0.0051090    -0.9258550    -0.9544470
  H       -0.0068300    -1.0519040     0.8031080
  H        1.2667210     1.1093200     0.9398110
  H        1.2834760     1.1922470    -0.8225180
  H       -1.2810840     1.2286150    -0.7932870
  H       -1.2759100     1.1062970     0.9579340
  H        2.5106650    -0.9703360     0.7209670
  H        3.2948780     0.1919650    -0.1037960
  H       -2.5611900    -0.9003030     0.7556260
  H       -2.5647950    -0.7858640    -0.8657540
units angstrom
no_reorient  #important for SAPT in psi4, default
symmetry c1  #important for SAPT in psi4, default
}

set PROPERTIES_ORIGIN ["COM"]
properties('MP2/aug-cc-pvtz', properties = ['dipole'])
--------------------------------------------------------------------------

    Molecular point group: c1
  Charge       = 0
  Multiplicity = 1
  Basis Set: AUG-CC-PVTZ
    Blend: AUG-CC-PVTZ
  Basis Set: (AUG-CC-PVTZ AUX)
    Blend: AUG-CC-PVTZ-JKFIT

    Orbital Energies [Eh]
    ---------------------

    Doubly Occupied:

       1A    -15.546581     2A    -15.539882     3A    -11.253739
       4A    -11.246311     5A    -11.217040     6A     -1.213104
       7A     -1.174371     8A     -1.005625     9A     -0.868863
      10A     -0.799178    11A     -0.679424    12A     -0.666936
      13A     -0.642588    14A     -0.595457    15A     -0.565174
      16A     -0.545863    17A     -0.521088    18A     -0.477268
      19A     -0.463296    20A     -0.397966    21A     -0.380374

  @DF-RHF Final Energy:  -228.38731671592510

   => Energetics <=

    Nuclear Repulsion Energy =            186.6300537834091813
    One-Electron Energy =                -678.4344881274749923
    Two-Electron Energy =                 263.4171176281407725
    Total Energy =                       -228.3873167159250670
  Basis Set: (AUG-CC-PVTZ AUX)
    Blend: AUG-CC-PVTZ-RI
    Molecular point group: c1

    Geometry (in Angstrom), charge = 0, multiplicity = 1:

       Center              X                  Y                   Z               Mass
    ------------   -----------------  -----------------  -----------------  -----------------
         N            2.443429580521    -0.362162444691    -0.093858078840    14.003074004430
         N           -2.542532419479    -0.217079444691    -0.001869078840    14.003074004430
         C           -0.007426419479    -0.323065444691    -0.020927078840    12.000000000000
         C            1.348296280521     0.447976855309     0.024263121160    12.000000000000
         C           -1.278237419479     0.524445555309     0.046465921160    12.000000000000
         H            0.001126580521    -0.913632444691    -0.944503078840     1.007825032230
         H           -0.010812419479    -1.039681444691     0.813051921160     1.007825032230
         H            1.262738580521     1.121542555309     0.949754921160     1.007825032230
         H            1.279493580521     1.204469555309    -0.812574078840     1.007825032230
         H           -1.285066419479     1.240837555309    -0.783343078840     1.007825032230
         H           -1.279892419479     1.118519555309     0.967877921160     1.007825032230
         H            2.506682580521    -0.958113444691     0.730910921160     1.007825032230
         H            3.290895580521     0.204187555309    -0.093852078840     1.007825032230
         H           -2.565172419479    -0.888080444691     0.765569921160     1.007825032230
         H           -2.568777419479    -0.773641444691    -0.855810078840     1.007825032230

  Basis Set: AUG-CC-PVTZ
    Blend: AUG-CC-PVTZ
  Basis Set: (AUG-CC-PVTZ AUX)
    Blend: AUG-CC-PVTZ-JKFIT
	 Reference Energy          =    -228.3873167159250954 [Eh]
	 Singles Energy            =      -0.0000000000000000 [Eh]
	 Same-Spin Energy          =      -0.2386707875742090 [Eh]
	 Opposite-Spin Energy      =      -0.8331436913268097 [Eh]
	 Correlation Energy        =      -1.0718144789010187 [Eh]
	 Total Energy              =    -229.4591311948261136 [Eh]

	 ================> DF-SCS-MP2 Energies <==================
	-----------------------------------------------------------
	 SCS Same-Spin Scale       =       0.3333333333333333 [-]
	 SCS Opposite-Spin Scale   =       1.2000000000000000 [-]
	 SCS Same-Spin Energy      =      -0.0795569291914030 [Eh]
	 SCS Opposite-Spin Energy  =      -0.9997724295921715 [Eh]
	 SCS Correlation Energy    =      -1.0793293587835744 [Eh]
	 SCS Total Energy          =    -229.4666460747086774 [Eh]
	-----------------------------------------------------------

  Dipole Moment: [D]
     X:     1.5177      Y:    -0.2834      Z:     0.9713     Total:     1.8240

*** Psi4 exiting successfully. Buy a developer a beer!
