                               Psi4 1.4a3.dev225

  ==> Input File <==

--------------------------------------------------------------------------
#psi4
#
memory 32 gb

molecule  {
0 1
  N        2.4472590    -0.3746750    -0.1036760
  N       -2.5383840    -0.2296350    -0.0118050
  C       -0.0033610    -0.3349390    -0.0309630
  C        1.2723060     0.4951460     0.0229450
  C       -1.2744810     0.5123910     0.0365760
  H        0.0049230    -0.9252980    -0.9546620
  H       -0.0068110    -1.0516390     0.8029280
  H        1.2668140     1.1094270     0.9397930
  H        1.2839730     1.1922540    -0.8226020
  H       -1.2814540     1.2287750    -0.7932160
  H       -1.2762360     1.1063260     0.9580520
  H        2.5093721    -0.9584414     0.7052037
  H        3.2948040     0.1914740    -0.1044810
  H       -2.5609240    -0.9005840     0.7556250
  H       -2.5646110    -0.7860270    -0.8658080
units angstrom
no_reorient  #important for SAPT in psi4, default
symmetry c1  #important for SAPT in psi4, default
}

set PROPERTIES_ORIGIN ["COM"]
properties('MP2/aug-cc-pvtz', properties = ['dipole'])
--------------------------------------------------------------------------

    Molecular point group: c1
  Charge       = 0
  Multiplicity = 1
  Basis Set: AUG-CC-PVTZ
    Blend: AUG-CC-PVTZ
  Basis Set: (AUG-CC-PVTZ AUX)
    Blend: AUG-CC-PVTZ-JKFIT

    Orbital Energies [Eh]
    ---------------------

    Doubly Occupied:

       1A    -15.541496     2A    -15.539767     3A    -11.250030
       4A    -11.246459     5A    -11.217187     6A     -1.185468
       7A     -1.171643     8A     -1.013951     9A     -0.873622
      10A     -0.804345    11A     -0.679220    12A     -0.657424
      13A     -0.629325    14A     -0.596606    15A     -0.561833
      16A     -0.536746    17A     -0.522741    18A     -0.488461
      19A     -0.473640    20A     -0.400123    21A     -0.385568

  @DF-RHF Final Energy:  -228.39871326845429

   => Energetics <=

    Nuclear Repulsion Energy =            186.4103661232161073
    One-Electron Energy =                -678.0668488790096262
    Two-Electron Energy =                 263.2577694873392034
    Total Energy =                       -228.3987132684542871
  Basis Set: (AUG-CC-PVTZ AUX)
    Blend: AUG-CC-PVTZ-RI
    Molecular point group: c1

    Geometry (in Angstrom), charge = 0, multiplicity = 1:

       Center              X                  Y                   Z               Mass
    ------------   -----------------  -----------------  -----------------  -----------------
         N            2.456267245124    -0.372202940930    -0.094919740007    14.003074004430
         N           -2.529375754876    -0.227162940930    -0.003048740007    14.003074004430
         C            0.005647245124    -0.332466940930    -0.022206740007    12.000000000000
         C            1.281314245124     0.497618059070     0.031701259993    12.000000000000
         C           -1.265472754876     0.514863059070     0.045332259993    12.000000000000
         H            0.013931245124    -0.922825940930    -0.945905740007     1.007825032230
         H            0.002197245124    -1.049166940930     0.811684259993     1.007825032230
         H            1.275822245124     1.111899059070     0.948549259993     1.007825032230
         H            1.292981245124     1.194726059070    -0.813845740007     1.007825032230
         H           -1.272445754876     1.231247059070    -0.784459740007     1.007825032230
         H           -1.267227754876     1.108798059070     0.966808259993     1.007825032230
         H            2.518380345124    -0.955969340930     0.713959959993     1.007825032230
         H            3.303812245124     0.193946059070    -0.095724740007     1.007825032230
         H           -2.551915754876    -0.898111940930     0.764381259993     1.007825032230
         H           -2.555602754876    -0.783554940930    -0.857051740007     1.007825032230

  Basis Set: AUG-CC-PVTZ
    Blend: AUG-CC-PVTZ
  Basis Set: (AUG-CC-PVTZ AUX)
    Blend: AUG-CC-PVTZ-JKFIT
	 Reference Energy          =    -228.3987132684542871 [Eh]
	 Singles Energy            =      -0.0000000000000000 [Eh]
	 Same-Spin Energy          =      -0.2380229803457085 [Eh]
	 Opposite-Spin Energy      =      -0.8326560294162428 [Eh]
	 Correlation Energy        =      -1.0706790097619514 [Eh]
	 Total Energy              =    -229.4693922782162474 [Eh]

	 ================> DF-SCS-MP2 Energies <==================
	-----------------------------------------------------------
	 SCS Same-Spin Scale       =       0.3333333333333333 [-]
	 SCS Opposite-Spin Scale   =       1.2000000000000000 [-]
	 SCS Same-Spin Energy      =      -0.0793409934485695 [Eh]
	 SCS Opposite-Spin Energy  =      -0.9991872352994914 [Eh]
	 SCS Correlation Energy    =      -1.0785282287480609 [Eh]
	 SCS Total Energy          =    -229.4772414972023569 [Eh]
	-----------------------------------------------------------

  Dipole Moment: [D]
     X:     1.2826      Y:    -0.1139      Z:     1.0145     Total:     1.6393

*** Psi4 exiting successfully. Buy a developer a beer!
