                               Psi4 1.3.2 release

  ==> Input File <==

--------------------------------------------------------------------------
#psi4
#
memory 32 gb

molecule  {
0 1
  N        2.4474120    -0.3743850    -0.1038020
  N       -2.5385500    -0.2293020    -0.0118130
  C       -0.0034440    -0.3352880    -0.0308710
  C        1.2721860     0.4950040     0.0229580
  C       -1.2742550     0.5122230     0.0365220
  H        0.0051090    -0.9258550    -0.9544470
  H       -0.0068300    -1.0519040     0.8031080
  H        1.2667210     1.1093200     0.9398110
  H        1.2834760     1.1922470    -0.8225180
  H       -1.2810840     1.2286150    -0.7932870
  H       -1.2759100     1.1062970     0.9579340
  H        2.5168692    -1.0287906     0.8018655
  H        3.2948780     0.1919650    -0.1037960
  H       -2.5611900    -0.9003030     0.7556260
  H       -2.5647950    -0.7858640    -0.8657540
units angstrom
no_reorient  #important for SAPT in psi4, default
symmetry c1  #important for SAPT in psi4, default
}

set PROPERTIES_ORIGIN ["COM"]
properties('MP2/aug-cc-pvtz', properties = ['dipole'])
--------------------------------------------------------------------------

    Molecular point group: c1
  Charge       = 0
  Multiplicity = 1
  Basis Set: AUG-CC-PVTZ
    Blend: AUG-CC-PVTZ
  Basis Set: (AUG-CC-PVTZ AUX)
    Blend: AUG-CC-PVTZ-JKFIT

    Orbital Energies [Eh]
    ---------------------

    Doubly Occupied:

       1A    -15.554823     2A    -15.539774     3A    -11.250668
       4A    -11.246424     5A    -11.217055     6A     -1.179879
       7A     -1.164569     8A     -1.010604     9A     -0.869991
      10A     -0.802042    11A     -0.677538    12A     -0.646719
      13A     -0.628156    14A     -0.591207    15A     -0.555805
      16A     -0.536910    17A     -0.520818    18A     -0.486824
      19A     -0.473451    20A     -0.398870    21A     -0.385488

  @DF-RHF Final Energy:  -228.38875068778674

   => Energetics <=

    Nuclear Repulsion Energy =            185.8727319418229342
    One-Electron Energy =                -677.0477324463074638
    Two-Electron Energy =                 262.7862498166977616
    Total Energy =                       -228.3887506877867395
  Basis Set: (AUG-CC-PVTZ AUX)
    Blend: AUG-CC-PVTZ-RI
    Molecular point group: c1

    Geometry (in Angstrom), charge = 0, multiplicity = 1:

       Center              X                  Y                   Z               Mass
    ------------   -----------------  -----------------  -----------------  -----------------
         N            2.456318389412    -0.370964357180    -0.096357891723    14.003074004430
         N           -2.529643610588    -0.225881357180    -0.004368891723    14.003074004430
         C            0.005462389412    -0.331867357180    -0.023426891723    12.000000000000
         C            1.281092389412     0.498424642820     0.030402108277    12.000000000000
         C           -1.265348610588     0.515643642820     0.043966108277    12.000000000000
         H            0.014015389412    -0.922434357180    -0.947002891723     1.007825032230
         H            0.002076389412    -1.048483357180     0.810552108277     1.007825032230
         H            1.275627389412     1.112740642820     0.947255108277     1.007825032230
         H            1.292382389412     1.195667642820    -0.815073891723     1.007825032230
         H           -1.272177610588     1.232035642820    -0.785842891723     1.007825032230
         H           -1.267003610588     1.109717642820     0.965378108277     1.007825032230
         H            2.525775589412    -1.025369957180     0.809309608277     1.007825032230
         H            3.303784389412     0.195385642820    -0.096351891723     1.007825032230
         H           -2.552283610588    -0.896882357180     0.763070108277     1.007825032230
         H           -2.555888610588    -0.782443357180    -0.858309891723     1.007825032230

  Basis Set: AUG-CC-PVTZ
    Blend: AUG-CC-PVTZ
  Basis Set: (AUG-CC-PVTZ AUX)
    Blend: AUG-CC-PVTZ-JKFIT
	 Reference Energy          =    -228.3887506877867395 [Eh]
	 Singles Energy            =      -0.0000000000000000 [Eh]
	 Same-Spin Energy          =      -0.2385491363569701 [Eh]
	 Opposite-Spin Energy      =      -0.8347214024305382 [Eh]
	 Correlation Energy        =      -1.0732705387875083 [Eh]
	 Total Energy              =    -229.4620212265742509 [Eh]

	 ================> DF-SCS-MP2 Energies <==================
	-----------------------------------------------------------
	 SCS Same-Spin Scale       =       0.3333333333333333 [-]
	 SCS Opposite-Spin Scale   =       1.2000000000000000 [-]
	 SCS Same-Spin Energy      =      -0.0795163787856567 [Eh]
	 SCS Opposite-Spin Energy  =      -1.0016656829166457 [Eh]
	 SCS Correlation Energy    =      -1.0811820617023025 [Eh]
	 SCS Total Energy          =    -229.4699327494890326 [Eh]
	-----------------------------------------------------------

  Dipole Moment: [D]
     X:     1.2673      Y:    -0.1202      Z:     1.0145     Total:     1.6278

*** Psi4 exiting successfully. Buy a developer a beer!
