                               Psi4 1.3.2 release

  ==> Input File <==

--------------------------------------------------------------------------
#psi4
#
memory 32 gb

molecule  {
0 1
  N        2.4540085    -0.3619698    -0.1252074
  N       -2.5385500    -0.2293020    -0.0118130
  C       -0.0034440    -0.3352880    -0.0308710
  C        1.2721860     0.4950040     0.0229580
  C       -1.2742550     0.5122230     0.0365220
  H        0.0051090    -0.9258550    -0.9544470
  H       -0.0068300    -1.0519040     0.8031080
  H        1.2667210     1.1093200     0.9398110
  H        1.2834760     1.1922470    -0.8225180
  H       -1.2810840     1.2286150    -0.7932870
  H       -1.2759100     1.1062970     0.9579340
  H        2.5106650    -0.9703360     0.7209670
  H        3.2948780     0.1919650    -0.1037960
  H       -2.5611900    -0.9003030     0.7556260
  H       -2.5647950    -0.7858640    -0.8657540
units angstrom
no_reorient  #important for SAPT in psi4, default
symmetry c1  #important for SAPT in psi4, default
}

set PROPERTIES_ORIGIN ["COM"]
properties('MP2/aug-cc-pvtz', properties = ['dipole'])
--------------------------------------------------------------------------

    Molecular point group: c1
  Charge       = 0
  Multiplicity = 1
  Basis Set: AUG-CC-PVTZ
    Blend: AUG-CC-PVTZ
  Basis Set: (AUG-CC-PVTZ AUX)
    Blend: AUG-CC-PVTZ-JKFIT

    Orbital Energies [Eh]
    ---------------------

    Doubly Occupied:

       1A    -15.545736     2A    -15.539988     3A    -11.250119
       4A    -11.246736     5A    -11.217580     6A     -1.183593
       7A     -1.170548     8A     -1.013490     9A     -0.872696
      10A     -0.803505    11A     -0.678584    12A     -0.654508
      13A     -0.630489    14A     -0.593916    15A     -0.559070
      16A     -0.538591    17A     -0.521239    18A     -0.487731
      19A     -0.473485    20A     -0.400980    21A     -0.386456

  @DF-RHF Final Energy:  -228.39718900770711

   => Energetics <=

    Nuclear Repulsion Energy =            186.2270811685200442
    One-Electron Energy =                -677.7104539297216661
    Two-Electron Energy =                 263.0861837534945380
    Total Energy =                       -228.3971890077070839
  Basis Set: (AUG-CC-PVTZ AUX)
    Blend: AUG-CC-PVTZ-RI
    Molecular point group: c1

    Geometry (in Angstrom), charge = 0, multiplicity = 1:

       Center              X                  Y                   Z               Mass
    ------------   -----------------  -----------------  -----------------  -----------------
         N            2.461752451280    -0.361691019417    -0.112616824420    14.003074004430
         N           -2.530806048720    -0.229023219417     0.000777575580    14.003074004430
         C            0.004299951280    -0.335009219417    -0.018280424420    12.000000000000
         C            1.279929951280     0.495282780583     0.035548575580    12.000000000000
         C           -1.266511048720     0.512501780583     0.049112575580    12.000000000000
         H            0.012852951280    -0.925576219417    -0.941856424420     1.007825032230
         H            0.000913951280    -1.051625219417     0.815698575580     1.007825032230
         H            1.274464951280     1.109598780583     0.952401575580     1.007825032230
         H            1.291219951280     1.192525780583    -0.809927424420     1.007825032230
         H           -1.273340048720     1.228893780583    -0.780696424420     1.007825032230
         H           -1.268166048720     1.106575780583     0.970524575580     1.007825032230
         H            2.518408951280    -0.970057219417     0.733557575580     1.007825032230
         H            3.302621951280     0.192243780583    -0.091205424420     1.007825032230
         H           -2.553446048720    -0.900024219417     0.768216575580     1.007825032230
         H           -2.557051048720    -0.785585219417    -0.853163424420     1.007825032230

  Basis Set: AUG-CC-PVTZ
    Blend: AUG-CC-PVTZ
  Basis Set: (AUG-CC-PVTZ AUX)
    Blend: AUG-CC-PVTZ-JKFIT
	 Reference Energy          =    -228.3971890077071123 [Eh]
	 Singles Energy            =      -0.0000000000000000 [Eh]
	 Same-Spin Energy          =      -0.2381915349538741 [Eh]
	 Opposite-Spin Energy      =      -0.8332585174489027 [Eh]
	 Correlation Energy        =      -1.0714500524027768 [Eh]
	 Total Energy              =    -229.4686390601098935 [Eh]

	 ================> DF-SCS-MP2 Energies <==================
	-----------------------------------------------------------
	 SCS Same-Spin Scale       =       0.3333333333333333 [-]
	 SCS Opposite-Spin Scale   =       1.2000000000000000 [-]
	 SCS Same-Spin Energy      =      -0.0793971783179580 [Eh]
	 SCS Opposite-Spin Energy  =      -0.9999102209386832 [Eh]
	 SCS Correlation Energy    =      -1.0793073992566413 [Eh]
	 SCS Total Energy          =    -229.4764964069637472 [Eh]
	-----------------------------------------------------------

  Dipole Moment: [D]
     X:     1.2634      Y:    -0.1255      Z:     1.0477     Total:     1.6461

*** Psi4 exiting successfully. Buy a developer a beer!
