                               Psi4 1.3.2 release

  ==> Input File <==

--------------------------------------------------------------------------
#psi4
#
memory 32 gb

molecule  {
0 1
  N        2.4474120    -0.3743850    -0.1038020
  N       -2.5385500    -0.2293020    -0.0118130
  C       -0.0034440    -0.3352880    -0.0308710
  C        1.2721860     0.4950040     0.0229580
  C       -1.2742550     0.5122230     0.0365220
  H        0.0051090    -0.9258550    -0.9544470
  H       -0.0068300    -1.0519040     0.8031080
  H        1.2667210     1.1093200     0.9398110
  H        1.2834760     1.1922470    -0.8225180
  H       -1.2810840     1.2286150    -0.7932870
  H       -1.2759100     1.1062970     0.9579340
  H        2.4163330    -1.0109336     0.6919633
  H        3.2948780     0.1919650    -0.1037960
  H       -2.5611900    -0.9003030     0.7556260
  H       -2.5647950    -0.7858640    -0.8657540
units angstrom
no_reorient  #important for SAPT in psi4, default
symmetry c1  #important for SAPT in psi4, default
}

set PROPERTIES_ORIGIN ["COM"]
properties('MP2/aug-cc-pvtz', properties = ['dipole'])
--------------------------------------------------------------------------

    Molecular point group: c1
  Charge       = 0
  Multiplicity = 1
  Basis Set: AUG-CC-PVTZ
    Blend: AUG-CC-PVTZ
  Basis Set: (AUG-CC-PVTZ AUX)
    Blend: AUG-CC-PVTZ-JKFIT

    Orbital Energies [Eh]
    ---------------------

    Doubly Occupied:

       1A    -15.543083     2A    -15.540058     3A    -11.249114
       4A    -11.246794     5A    -11.217857     6A     -1.183800
       7A     -1.170524     8A     -1.012669     9A     -0.871435
      10A     -0.804240    11A     -0.680210    12A     -0.662796
      13A     -0.626889    14A     -0.595433    15A     -0.559487
      16A     -0.536814    17A     -0.522751    18A     -0.488507
      19A     -0.474321    20A     -0.397806    21A     -0.384852

  @DF-RHF Final Energy:  -228.39720672688512

   => Energetics <=

    Nuclear Repulsion Energy =            186.4178392367316803
    One-Electron Energy =                -678.0912121471141063
    Two-Electron Energy =                 263.2761661834973097
    Total Energy =                       -228.3972067268851447
  Basis Set: (AUG-CC-PVTZ AUX)
    Blend: AUG-CC-PVTZ-RI
    Molecular point group: c1

    Geometry (in Angstrom), charge = 0, multiplicity = 1:

       Center              X                  Y                   Z               Mass
    ------------   -----------------  -----------------  -----------------  -----------------
         N            2.457686057927    -0.371207279199    -0.094862810562    14.003074004430
         N           -2.528275942073    -0.226124279199    -0.002873810562    14.003074004430
         C            0.006830057927    -0.332110279199    -0.021931810562    12.000000000000
         C            1.282460057927     0.498181720801     0.031897189438    12.000000000000
         C           -1.263980942073     0.515400720801     0.045461189438    12.000000000000
         H            0.015383057927    -0.922677279199    -0.945507810562     1.007825032230
         H            0.003444057927    -1.048726279199     0.812047189438     1.007825032230
         H            1.276995057927     1.112497720801     0.948750189438     1.007825032230
         H            1.293750057927     1.195424720801    -0.813578810562     1.007825032230
         H           -1.270809942073     1.231792720801    -0.784347810562     1.007825032230
         H           -1.265635942073     1.109474720801     0.966873189438     1.007825032230
         H            2.426607057927    -1.007755879199     0.700902489438     1.007825032230
         H            3.305152057927     0.195142720801    -0.094856810562     1.007825032230
         H           -2.550915942073    -0.897125279199     0.764565189438     1.007825032230
         H           -2.554520942073    -0.782686279199    -0.856814810562     1.007825032230

  Basis Set: AUG-CC-PVTZ
    Blend: AUG-CC-PVTZ
  Basis Set: (AUG-CC-PVTZ AUX)
    Blend: AUG-CC-PVTZ-JKFIT
	 Reference Energy          =    -228.3972067268851163 [Eh]
	 Singles Energy            =      -0.0000000000000000 [Eh]
	 Same-Spin Energy          =      -0.2382155579766117 [Eh]
	 Opposite-Spin Energy      =      -0.8330690945468826 [Eh]
	 Correlation Energy        =      -1.0712846525234943 [Eh]
	 Total Energy              =    -229.4684913794086185 [Eh]

	 ================> DF-SCS-MP2 Energies <==================
	-----------------------------------------------------------
	 SCS Same-Spin Scale       =       0.3333333333333333 [-]
	 SCS Opposite-Spin Scale   =       1.2000000000000000 [-]
	 SCS Same-Spin Energy      =      -0.0794051859922039 [Eh]
	 SCS Opposite-Spin Energy  =      -0.9996829134562590 [Eh]
	 SCS Correlation Energy    =      -1.0790880994484628 [Eh]
	 SCS Total Energy          =    -229.4762948263335716 [Eh]
	-----------------------------------------------------------

  Dipole Moment: [D]
     X:     1.2163      Y:    -0.1674      Z:     0.9801     Total:     1.5710

*** Psi4 exiting successfully. Buy a developer a beer!
