                               Psi4 1.3.2 release

  ==> Input File <==

--------------------------------------------------------------------------
#psi4
#
memory 32 gb

molecule  {
0 1
  N        2.3492367    -0.4920798    -0.1137494
  N       -2.5385500    -0.2293020    -0.0118130
  C       -0.0034440    -0.3352880    -0.0308710
  C        1.2721860     0.4950040     0.0229580
  C       -1.2742550     0.5122230     0.0365220
  H        0.0051090    -0.9258550    -0.9544470
  H       -0.0068300    -1.0519040     0.8031080
  H        1.2667210     1.1093200     0.9398110
  H        1.2834760     1.1922470    -0.8225180
  H       -1.2810840     1.2286150    -0.7932870
  H       -1.2759100     1.1062970     0.9579340
  H        2.5106650    -0.9703360     0.7209670
  H        3.2948780     0.1919650    -0.1037960
  H       -2.5611900    -0.9003030     0.7556260
  H       -2.5647950    -0.7858640    -0.8657540
units angstrom
no_reorient  #important for SAPT in psi4, default
symmetry c1  #important for SAPT in psi4, default
}

set PROPERTIES_ORIGIN ["COM"]
properties('MP2/aug-cc-pvtz', properties = ['dipole'])
--------------------------------------------------------------------------

    Molecular point group: c1
  Charge       = 0
  Multiplicity = 1
  Basis Set: AUG-CC-PVTZ
    Blend: AUG-CC-PVTZ
  Basis Set: (AUG-CC-PVTZ AUX)
    Blend: AUG-CC-PVTZ-JKFIT

    Orbital Energies [Eh]
    ---------------------

    Doubly Occupied:

       1A    -15.558884     2A    -15.538272     3A    -11.251872
       4A    -11.244309     5A    -11.214207     6A     -1.184296
       7A     -1.169259     8A     -1.009294     9A     -0.872276
      10A     -0.805133    11A     -0.678050    12A     -0.646854
      13A     -0.618741    14A     -0.595430    15A     -0.565893
      16A     -0.524551    17A     -0.516281    18A     -0.482246
      19A     -0.472359    20A     -0.413600    21A     -0.382665

  @DF-RHF Final Energy:  -228.37457931849670

   => Energetics <=

    Nuclear Repulsion Energy =            186.6880523625284241
    One-Electron Energy =                -678.6363188060669245
    Two-Electron Energy =                 263.5736871250418289
    Total Energy =                       -228.3745793184966715
  Basis Set: (AUG-CC-PVTZ AUX)
    Blend: AUG-CC-PVTZ-RI
    Molecular point group: c1

    Geometry (in Angstrom), charge = 0, multiplicity = 1:

       Center              X                  Y                   Z               Mass
    ------------   -----------------  -----------------  -----------------  -----------------
         N            2.376784109256    -0.467208257652    -0.103324560062    14.003074004430
         N           -2.511002590744    -0.204430457652    -0.001388160062    14.003074004430
         C            0.024103409256    -0.310416457652    -0.020446160062    12.000000000000
         C            1.299733409256     0.519875542348     0.033382839938    12.000000000000
         C           -1.246707590744     0.537094542348     0.046946839938    12.000000000000
         H            0.032656409256    -0.900983457652    -0.944022160062     1.007825032230
         H            0.020717409256    -1.027032457652     0.813532839938     1.007825032230
         H            1.294268409256     1.134191542348     0.950235839938     1.007825032230
         H            1.311023409256     1.217118542348    -0.812093160062     1.007825032230
         H           -1.253536590744     1.253486542348    -0.782862160062     1.007825032230
         H           -1.248362590744     1.131168542348     0.968358839938     1.007825032230
         H            2.538212409256    -0.945464457652     0.731391839938     1.007825032230
         H            3.322425409256     0.216836542348    -0.093371160062     1.007825032230
         H           -2.533642590744    -0.875431457652     0.766050839938     1.007825032230
         H           -2.537247590744    -0.760992457652    -0.855329160062     1.007825032230

  Basis Set: AUG-CC-PVTZ
    Blend: AUG-CC-PVTZ
  Basis Set: (AUG-CC-PVTZ AUX)
    Blend: AUG-CC-PVTZ-JKFIT
	 Reference Energy          =    -228.3745793184966999 [Eh]
	 Singles Energy            =      -0.0000000000000000 [Eh]
	 Same-Spin Energy          =      -0.2390962922211719 [Eh]
	 Opposite-Spin Energy      =      -0.8362604763912358 [Eh]
	 Correlation Energy        =      -1.0753567686124077 [Eh]
	 Total Energy              =    -229.4499360871091085 [Eh]

	 ================> DF-SCS-MP2 Energies <==================
	-----------------------------------------------------------
	 SCS Same-Spin Scale       =       0.3333333333333333 [-]
	 SCS Opposite-Spin Scale   =       1.2000000000000000 [-]
	 SCS Same-Spin Energy      =      -0.0796987640737240 [Eh]
	 SCS Opposite-Spin Energy  =      -1.0035125716694828 [Eh]
	 SCS Correlation Energy    =      -1.0832113357432067 [Eh]
	 SCS Total Energy          =    -229.4577906542399148 [Eh]
	-----------------------------------------------------------

  Dipole Moment: [D]
     X:     1.4005      Y:     0.0504      Z:     1.0780     Total:     1.7681

*** Psi4 exiting successfully. Buy a developer a beer!
