                               Psi4 1.3.2 release

  ==> Input File <==

--------------------------------------------------------------------------
#psi4
#
memory 32 gb

molecule  {
0 1
  N        2.4474120    -0.3743850    -0.1038020
  N       -2.5385500    -0.2293020    -0.0118130
  C       -0.0034440    -0.3352880    -0.0308710
  C        1.2570873     0.4743348     0.0221475
  C       -1.2742550     0.5122230     0.0365220
  H        0.0051090    -0.9258550    -0.9544470
  H       -0.0068300    -1.0519040     0.8031080
  H        1.2667210     1.1093200     0.9398110
  H        1.2834760     1.1922470    -0.8225180
  H       -1.2810840     1.2286150    -0.7932870
  H       -1.2759100     1.1062970     0.9579340
  H        2.5106650    -0.9703360     0.7209670
  H        3.2948780     0.1919650    -0.1037960
  H       -2.5611900    -0.9003030     0.7556260
  H       -2.5647950    -0.7858640    -0.8657540
units angstrom
no_reorient  #important for SAPT in psi4, default
symmetry c1  #important for SAPT in psi4, default
}

set PROPERTIES_ORIGIN ["COM"]
properties('MP2/aug-cc-pvtz', properties = ['dipole'])
--------------------------------------------------------------------------

    Molecular point group: c1
  Charge       = 0
  Multiplicity = 1
  Basis Set: AUG-CC-PVTZ
    Blend: AUG-CC-PVTZ
  Basis Set: (AUG-CC-PVTZ AUX)
    Blend: AUG-CC-PVTZ-JKFIT

    Orbital Energies [Eh]
    ---------------------

    Doubly Occupied:

       1A    -15.543717     2A    -15.540220     3A    -11.251305
       4A    -11.247119     5A    -11.216669     6A     -1.184593
       7A     -1.170864     8A     -1.017182     9A     -0.872929
      10A     -0.802718    11A     -0.679186    12A     -0.655762
      13A     -0.629319    14A     -0.596587    15A     -0.560607
      16A     -0.540067    17A     -0.520017    18A     -0.490722
      19A     -0.472331    20A     -0.398126    21A     -0.386602

  @DF-RHF Final Energy:  -228.39753504370188

   => Energetics <=

    Nuclear Repulsion Energy =            186.5612430806430950
    One-Electron Energy =                -678.3642705811628275
    Two-Electron Energy =                 263.4054924568179104
    Total Energy =                       -228.3975350437018506
  Basis Set: (AUG-CC-PVTZ AUX)
    Blend: AUG-CC-PVTZ-RI
    Molecular point group: c1

    Geometry (in Angstrom), charge = 0, multiplicity = 1:

       Center              X                  Y                   Z               Mass
    ------------   -----------------  -----------------  -----------------  -----------------
         N            2.458848438279    -0.368411614698    -0.095126086709    14.003074004430
         N           -2.527113561721    -0.223328614698    -0.003137086709    14.003074004430
         C            0.007992438279    -0.329314614698    -0.022195086709    12.000000000000
         C            1.268523738279     0.480308185302     0.030823413291    12.000000000000
         C           -1.262818561721     0.518196385302     0.045197913291    12.000000000000
         H            0.016545438279    -0.919881614698    -0.945771086709     1.007825032230
         H            0.004606438279    -1.045930614698     0.811783913291     1.007825032230
         H            1.278157438279     1.115293385302     0.948486913291     1.007825032230
         H            1.294912438279     1.198220385302    -0.813842086709     1.007825032230
         H           -1.269647561721     1.234588385302    -0.784611086709     1.007825032230
         H           -1.264473561721     1.112270385302     0.966609913291     1.007825032230
         H            2.522101438279    -0.964362614698     0.729642913291     1.007825032230
         H            3.306314438279     0.197938385302    -0.095120086709     1.007825032230
         H           -2.549753561721    -0.894329614698     0.764301913291     1.007825032230
         H           -2.553358561721    -0.779890614698    -0.857078086709     1.007825032230

  Basis Set: AUG-CC-PVTZ
    Blend: AUG-CC-PVTZ
  Basis Set: (AUG-CC-PVTZ AUX)
    Blend: AUG-CC-PVTZ-JKFIT
	 Reference Energy          =    -228.3975350437018790 [Eh]
	 Singles Energy            =      -0.0000000000000000 [Eh]
	 Same-Spin Energy          =      -0.2382652588495233 [Eh]
	 Opposite-Spin Energy      =      -0.8330987672434071 [Eh]
	 Correlation Energy        =      -1.0713640260929305 [Eh]
	 Total Energy              =    -229.4688990697948157 [Eh]

	 ================> DF-SCS-MP2 Energies <==================
	-----------------------------------------------------------
	 SCS Same-Spin Scale       =       0.3333333333333333 [-]
	 SCS Opposite-Spin Scale   =       1.2000000000000000 [-]
	 SCS Same-Spin Energy      =      -0.0794217529498411 [Eh]
	 SCS Opposite-Spin Energy  =      -0.9997185206920886 [Eh]
	 SCS Correlation Energy    =      -1.0791402736419298 [Eh]
	 SCS Total Energy          =    -229.4766753173438190 [Eh]
	-----------------------------------------------------------

  Dipole Moment: [D]
     X:     1.2552      Y:    -0.1335      Z:     1.0111     Total:     1.6173

*** Psi4 exiting successfully. Buy a developer a beer!
