                               Psi4 1.3.2 release

  ==> Input File <==

--------------------------------------------------------------------------
#psi4
#
memory 32 gb

molecule  {
0 1
  N        2.4474120    -0.3743850    -0.1038020
  N       -2.5385500    -0.2293020    -0.0118130
  C       -0.0034440    -0.3352880    -0.0308710
  C        1.2721860     0.4950040     0.0229580
  C       -1.2742550     0.5122230     0.0365220
  H        0.0051090    -0.9258550    -0.9544470
  H       -0.0068300    -1.0519040     0.8031080
  H        1.2667210     1.1093200     0.9398110
  H        1.2834760     1.1922470    -0.8225180
  H       -1.2810840     1.2286150    -0.7932870
  H       -1.2759100     1.1062970     0.9579340
  H        2.5420059    -0.9553284     0.7286397
  H        3.2948780     0.1919650    -0.1037960
  H       -2.5611900    -0.9003030     0.7556260
  H       -2.5647950    -0.7858640    -0.8657540
units angstrom
no_reorient  #important for SAPT in psi4, default
symmetry c1  #important for SAPT in psi4, default
}

set PROPERTIES_ORIGIN ["COM"]
properties('MP2/aug-cc-pvtz', properties = ['dipole'])
--------------------------------------------------------------------------

    Molecular point group: c1
  Charge       = 0
  Multiplicity = 1
  Basis Set: AUG-CC-PVTZ
    Blend: AUG-CC-PVTZ
  Basis Set: (AUG-CC-PVTZ AUX)
    Blend: AUG-CC-PVTZ-JKFIT

    Orbital Energies [Eh]
    ---------------------

    Doubly Occupied:

       1A    -15.544062     2A    -15.539704     3A    -11.250460
       4A    -11.246357     5A    -11.216978     6A     -1.183951
       7A     -1.170735     8A     -1.013585     9A     -0.873397
      10A     -0.803840    11A     -0.678443    12A     -0.652834
      13A     -0.630028    14A     -0.595688    15A     -0.561396
      16A     -0.536757    17A     -0.522283    18A     -0.488084
      19A     -0.473374    20A     -0.400625    21A     -0.385765

  @DF-RHF Final Energy:  -228.39826299989835

   => Energetics <=

    Nuclear Repulsion Energy =            186.2812195188630255
    One-Electron Energy =                -677.8222760171112213
    Two-Electron Energy =                 263.1427934983498176
    Total Energy =                       -228.3982629998983498
  Basis Set: (AUG-CC-PVTZ AUX)
    Blend: AUG-CC-PVTZ-RI
    Molecular point group: c1

    Geometry (in Angstrom), charge = 0, multiplicity = 1:

       Center              X                  Y                   Z               Mass
    ------------   -----------------  -----------------  -----------------  -----------------
         N            2.455976436234    -0.371963717987    -0.095361746841    14.003074004430
         N           -2.529985563766    -0.226880717987    -0.003372746841    14.003074004430
         C            0.005120436234    -0.332866717987    -0.022430746841    12.000000000000
         C            1.280750436234     0.497425282013     0.031398253159    12.000000000000
         C           -1.265690563766     0.514644282013     0.044962253159    12.000000000000
         H            0.013673436234    -0.923433717987    -0.946006746841     1.007825032230
         H            0.001734436234    -1.049482717987     0.811548253159     1.007825032230
         H            1.275285436234     1.111741282013     0.948251253159     1.007825032230
         H            1.292040436234     1.194668282013    -0.814077746841     1.007825032230
         H           -1.272519563766     1.231036282013    -0.784846746841     1.007825032230
         H           -1.267345563766     1.108718282013     0.966374253159     1.007825032230
         H            2.550570336234    -0.952907117987     0.737079953159     1.007825032230
         H            3.303442436234     0.194386282013    -0.095355746841     1.007825032230
         H           -2.552625563766    -0.897881717987     0.764066253159     1.007825032230
         H           -2.556230563766    -0.783442717987    -0.857313746841     1.007825032230

  Basis Set: AUG-CC-PVTZ
    Blend: AUG-CC-PVTZ
  Basis Set: (AUG-CC-PVTZ AUX)
    Blend: AUG-CC-PVTZ-JKFIT
	 Reference Energy          =    -228.3982629998983498 [Eh]
	 Singles Energy            =      -0.0000000000000000 [Eh]
	 Same-Spin Energy          =      -0.2381066727755533 [Eh]
	 Opposite-Spin Energy      =      -0.8329881209772310 [Eh]
	 Correlation Energy        =      -1.0710947937527844 [Eh]
	 Total Energy              =    -229.4693577936511417 [Eh]

	 ================> DF-SCS-MP2 Energies <==================
	-----------------------------------------------------------
	 SCS Same-Spin Scale       =       0.3333333333333333 [-]
	 SCS Opposite-Spin Scale   =       1.2000000000000000 [-]
	 SCS Same-Spin Energy      =      -0.0793688909251844 [Eh]
	 SCS Opposite-Spin Energy  =      -0.9995857451726771 [Eh]
	 SCS Correlation Energy    =      -1.0789546360978615 [Eh]
	 SCS Total Energy          =    -229.4772176359961975 [Eh]
	-----------------------------------------------------------

  Dipole Moment: [D]
     X:     1.3010      Y:    -0.0987      Z:     1.0260     Total:     1.6598

*** Psi4 exiting successfully. Buy a developer a beer!
