                               Psi4 1.3.2 release

  ==> Input File <==

--------------------------------------------------------------------------
#psi4
#
memory 32 gb

molecule  {
0 1
  N        2.4474120    -0.3743850    -0.1038020
  N       -2.5385500    -0.2293020    -0.0118130
  C       -0.0034440    -0.3352880    -0.0308710
  C        1.2721860     0.4950040     0.0229580
  C       -1.2742550     0.5122230     0.0365220
  H        0.0051090    -0.9258550    -0.9544470
  H       -0.0068300    -1.0519040     0.8031080
  H        1.2667210     1.1093200     0.9398110
  H        1.2834760     1.1922470    -0.8225180
  H       -1.2810840     1.2286150    -0.7932870
  H       -1.2759100     1.1062970     0.9579340
  H        2.4949632    -0.9775686     0.7167532
  H        3.2948780     0.1919650    -0.1037960
  H       -2.5611900    -0.9003030     0.7556260
  H       -2.5647950    -0.7858640    -0.8657540
units angstrom
no_reorient  #important for SAPT in psi4, default
symmetry c1  #important for SAPT in psi4, default
}

set PROPERTIES_ORIGIN ["COM"]
properties('MP2/aug-cc-pvtz', properties = ['dipole'])
--------------------------------------------------------------------------

    Molecular point group: c1
  Charge       = 0
  Multiplicity = 1
  Basis Set: AUG-CC-PVTZ
    Blend: AUG-CC-PVTZ
  Basis Set: (AUG-CC-PVTZ AUX)
    Blend: AUG-CC-PVTZ-JKFIT

    Orbital Energies [Eh]
    ---------------------

    Doubly Occupied:

       1A    -15.543723     2A    -15.539824     3A    -11.249945
       4A    -11.246502     5A    -11.217280     6A     -1.183833
       7A     -1.170622     8A     -1.013208     9A     -0.872636
      10A     -0.803961    11A     -0.678947    12A     -0.656636
      13A     -0.628738    14A     -0.595712    15A     -0.560749
      16A     -0.536793    17A     -0.522537    18A     -0.488278
      19A     -0.473720    20A     -0.399524    21A     -0.385475

  @DF-RHF Final Energy:  -228.39835099416169

   => Energetics <=

    Nuclear Repulsion Energy =            186.3298168807900197
    One-Electron Energy =                -677.9190502319590905
    Two-Electron Energy =                 263.1908823570073537
    Total Energy =                       -228.3983509941617172
  Basis Set: (AUG-CC-PVTZ AUX)
    Blend: AUG-CC-PVTZ-RI
    Molecular point group: c1

    Geometry (in Angstrom), charge = 0, multiplicity = 1:

       Center              X                  Y                   Z               Mass
    ------------   -----------------  -----------------  -----------------  -----------------
         N            2.456616392982    -0.371661168046    -0.095200045963    14.003074004430
         N           -2.529345607018    -0.226578168046    -0.003211045963    14.003074004430
         C            0.005760392982    -0.332564168046    -0.022269045963    12.000000000000
         C            1.281390392982     0.497727831954     0.031559954037    12.000000000000
         C           -1.265050607018     0.514946831954     0.045123954037    12.000000000000
         H            0.014313392982    -0.923131168046    -0.945845045963     1.007825032230
         H            0.002374392982    -1.049180168046     0.811709954037     1.007825032230
         H            1.275925392982     1.112043831954     0.948412954037     1.007825032230
         H            1.292680392982     1.194970831954    -0.813916045963     1.007825032230
         H           -1.271879607018     1.231338831954    -0.784685045963     1.007825032230
         H           -1.266705607018     1.109020831954     0.966535954037     1.007825032230
         H            2.504167592982    -0.974844768046     0.725355154037     1.007825032230
         H            3.304082392982     0.194688831954    -0.095194045963     1.007825032230
         H           -2.551985607018    -0.897579168046     0.764227954037     1.007825032230
         H           -2.555590607018    -0.783140168046    -0.857152045963     1.007825032230

  Basis Set: AUG-CC-PVTZ
    Blend: AUG-CC-PVTZ
  Basis Set: (AUG-CC-PVTZ AUX)
    Blend: AUG-CC-PVTZ-JKFIT
	 Reference Energy          =    -228.3983509941616887 [Eh]
	 Singles Energy            =      -0.0000000000000000 [Eh]
	 Same-Spin Energy          =      -0.2381231486801582 [Eh]
	 Opposite-Spin Energy      =      -0.8329821813280678 [Eh]
	 Correlation Energy        =      -1.0711053300082258 [Eh]
	 Total Energy              =    -229.4694563241699257 [Eh]

	 ================> DF-SCS-MP2 Energies <==================
	-----------------------------------------------------------
	 SCS Same-Spin Scale       =       0.3333333333333333 [-]
	 SCS Opposite-Spin Scale   =       1.2000000000000000 [-]
	 SCS Same-Spin Energy      =      -0.0793743828933861 [Eh]
	 SCS Opposite-Spin Energy  =      -0.9995786175936813 [Eh]
	 SCS Correlation Energy    =      -1.0789530004870673 [Eh]
	 SCS Total Energy          =    -229.4773039946487643 [Eh]
	-----------------------------------------------------------

  Dipole Moment: [D]
     X:     1.2699      Y:    -0.1260      Z:     1.0106     Total:     1.6278

*** Psi4 exiting successfully. Buy a developer a beer!
