                               Psi4 1.3.2 release

  ==> Input File <==

--------------------------------------------------------------------------
#psi4
#
memory 32 gb

molecule  {
0 1
  N        2.4474120    -0.3743850    -0.1038020
  N       -2.5385500    -0.2293020    -0.0118130
  C       -0.0034440    -0.3352880    -0.0308710
  C        1.1871206     0.3672396     0.0175247
  C       -1.2742550     0.5122230     0.0365220
  H        0.0051090    -0.9258550    -0.9544470
  H       -0.0068300    -1.0519040     0.8031080
  H        1.2667210     1.1093200     0.9398110
  H        1.2834760     1.1922470    -0.8225180
  H       -1.2810840     1.2286150    -0.7932870
  H       -1.2759100     1.1062970     0.9579340
  H        2.5106650    -0.9703360     0.7209670
  H        3.2948780     0.1919650    -0.1037960
  H       -2.5611900    -0.9003030     0.7556260
  H       -2.5647950    -0.7858640    -0.8657540
units angstrom
no_reorient  #important for SAPT in psi4, default
symmetry c1  #important for SAPT in psi4, default
}

set PROPERTIES_ORIGIN ["COM"]
properties('MP2/aug-cc-pvtz', properties = ['dipole'])
--------------------------------------------------------------------------

    Molecular point group: c1
  Charge       = 0
  Multiplicity = 1
  Basis Set: AUG-CC-PVTZ
    Blend: AUG-CC-PVTZ
  Basis Set: (AUG-CC-PVTZ AUX)
    Blend: AUG-CC-PVTZ-JKFIT

    Orbital Energies [Eh]
    ---------------------

    Doubly Occupied:

       1A    -15.544351     2A    -15.542629     3A    -11.259917
       4A    -11.251034     5A    -11.213957     6A     -1.189972
       7A     -1.172537     8A     -1.040216     9A     -0.876817
      10A     -0.793675    11A     -0.682717    12A     -0.659786
      13A     -0.631881    14A     -0.604149    15A     -0.568612
      16A     -0.552577    17A     -0.514728    18A     -0.492586
      19A     -0.458250    20A     -0.395551    21A     -0.381316

  @DF-RHF Final Energy:  -228.37023611195343

   => Energetics <=

    Nuclear Repulsion Energy =            187.8319428045006134
    One-Electron Energy =                -680.7498364209444617
    Two-Electron Energy =                 264.5476575044904166
    Total Energy =                       -228.3702361119534316
  Basis Set: (AUG-CC-PVTZ AUX)
    Blend: AUG-CC-PVTZ-RI
    Molecular point group: c1

    Geometry (in Angstrom), charge = 0, multiplicity = 1:

       Center              X                  Y                   Z               Mass
    ------------   -----------------  -----------------  -----------------  -----------------
         N            2.470181464111    -0.351064610080    -0.094377297473    14.003074004430
         N           -2.515780535889    -0.205981610080    -0.002388297473    14.003074004430
         C            0.019325464111    -0.311967610080    -0.021446297473    12.000000000000
         C            1.209890064111     0.390559989920     0.026949402527    12.000000000000
         C           -1.251485535889     0.535543389920     0.045946702527    12.000000000000
         H            0.027878464111    -0.902534610080    -0.945022297473     1.007825032230
         H            0.015939464111    -1.028583610080     0.812532702527     1.007825032230
         H            1.289490464111     1.132640389920     0.949235702527     1.007825032230
         H            1.306245464111     1.215567389920    -0.813093297473     1.007825032230
         H           -1.258314535889     1.251935389920    -0.783862297473     1.007825032230
         H           -1.253140535889     1.129617389920     0.967358702527     1.007825032230
         H            2.533434464111    -0.947015610080     0.730391702527     1.007825032230
         H            3.317647464111     0.215285389920    -0.094371297473     1.007825032230
         H           -2.538420535889    -0.876982610080     0.765050702527     1.007825032230
         H           -2.542025535889    -0.762543610080    -0.856329297473     1.007825032230

  Basis Set: AUG-CC-PVTZ
    Blend: AUG-CC-PVTZ
  Basis Set: (AUG-CC-PVTZ AUX)
    Blend: AUG-CC-PVTZ-JKFIT
	 Reference Energy          =    -228.3702361119534316 [Eh]
	 Singles Energy            =      -0.0000000000000000 [Eh]
	 Same-Spin Energy          =      -0.2397765305710051 [Eh]
	 Opposite-Spin Energy      =      -0.8351316706125942 [Eh]
	 Correlation Energy        =      -1.0749082011835993 [Eh]
	 Total Energy              =    -229.4451443131370354 [Eh]

	 ================> DF-SCS-MP2 Energies <==================
	-----------------------------------------------------------
	 SCS Same-Spin Scale       =       0.3333333333333333 [-]
	 SCS Opposite-Spin Scale   =       1.2000000000000000 [-]
	 SCS Same-Spin Energy      =      -0.0799255101903350 [Eh]
	 SCS Opposite-Spin Energy  =      -1.0021580047351131 [Eh]
	 SCS Correlation Energy    =      -1.0820835149254482 [Eh]
	 SCS Total Energy          =    -229.4523196268788752 [Eh]
	-----------------------------------------------------------

  Dipole Moment: [D]
     X:     1.1185      Y:    -0.2559      Z:     0.9806     Total:     1.5093

*** Psi4 exiting successfully. Buy a developer a beer!
