                               Psi4 1.3.2 release

  ==> Input File <==

--------------------------------------------------------------------------
#psi4
#
memory 32 gb

molecule  {
0 1
  N        2.4602450    -0.3492935    -0.1465677
  N       -2.5385500    -0.2293020    -0.0118130
  C       -0.0034440    -0.3352880    -0.0308710
  C        1.2721860     0.4950040     0.0229580
  C       -1.2742550     0.5122230     0.0365220
  H        0.0051090    -0.9258550    -0.9544470
  H       -0.0068300    -1.0519040     0.8031080
  H        1.2667210     1.1093200     0.9398110
  H        1.2834760     1.1922470    -0.8225180
  H       -1.2810840     1.2286150    -0.7932870
  H       -1.2759100     1.1062970     0.9579340
  H        2.5106650    -0.9703360     0.7209670
  H        3.2948780     0.1919650    -0.1037960
  H       -2.5611900    -0.9003030     0.7556260
  H       -2.5647950    -0.7858640    -0.8657540
units angstrom
no_reorient  #important for SAPT in psi4, default
symmetry c1  #important for SAPT in psi4, default
}

set PROPERTIES_ORIGIN ["COM"]
properties('MP2/aug-cc-pvtz', properties = ['dipole'])
--------------------------------------------------------------------------

    Molecular point group: c1
  Charge       = 0
  Multiplicity = 1
  Basis Set: AUG-CC-PVTZ
    Blend: AUG-CC-PVTZ
  Basis Set: (AUG-CC-PVTZ AUX)
    Blend: AUG-CC-PVTZ-JKFIT

    Orbital Energies [Eh]
    ---------------------

    Doubly Occupied:

       1A    -15.547698     2A    -15.540202     3A    -11.250217
       4A    -11.247030     5A    -11.218005     6A     -1.183468
       7A     -1.170529     8A     -1.013755     9A     -0.872704
      10A     -0.803206    11A     -0.678463    12A     -0.653811
      13A     -0.631659    14A     -0.592330    15A     -0.557131
      16A     -0.540381    17A     -0.519848    18A     -0.487024
      19A     -0.473267    20A     -0.402188    21A     -0.387300

  @DF-RHF Final Energy:  -228.39468206131960

   => Energetics <=

    Nuclear Repulsion Energy =            186.1446276904598562
    One-Electron Energy =                -677.5381879253085344
    Two-Electron Energy =                 262.9988781735290786
    Total Energy =                       -228.3946820613195996
  Basis Set: (AUG-CC-PVTZ AUX)
    Blend: AUG-CC-PVTZ-RI
    Molecular point group: c1

    Geometry (in Angstrom), charge = 0, multiplicity = 1:

       Center              X                  Y                   Z               Mass
    ------------   -----------------  -----------------  -----------------  -----------------
         N            2.466810158269    -0.351410732222    -0.129939704013    14.003074004430
         N           -2.531984841731    -0.231419232222     0.004814995987    14.003074004430
         C            0.003121158269    -0.337405232222    -0.014243004013    12.000000000000
         C            1.278751158269     0.492886767778     0.039585995987    12.000000000000
         C           -1.267689841731     0.510105767778     0.053149995987    12.000000000000
         H            0.011674158269    -0.927972232222    -0.937819004013     1.007825032230
         H           -0.000264841731    -1.054021232222     0.819735995987     1.007825032230
         H            1.273286158269     1.107202767778     0.956438995987     1.007825032230
         H            1.290041158269     1.190129767778    -0.805890004013     1.007825032230
         H           -1.274518841731     1.226497767778    -0.776659004013     1.007825032230
         H           -1.269344841731     1.104179767778     0.974561995987     1.007825032230
         H            2.517230158269    -0.972453232222     0.737594995987     1.007825032230
         H            3.301443158269     0.189847767778    -0.087168004013     1.007825032230
         H           -2.554624841731    -0.902420232222     0.772253995987     1.007825032230
         H           -2.558229841731    -0.787981232222    -0.849126004013     1.007825032230

  Basis Set: AUG-CC-PVTZ
    Blend: AUG-CC-PVTZ
  Basis Set: (AUG-CC-PVTZ AUX)
    Blend: AUG-CC-PVTZ-JKFIT
	 Reference Energy          =    -228.3946820613195996 [Eh]
	 Singles Energy            =      -0.0000000000000000 [Eh]
	 Same-Spin Energy          =      -0.2382819754815342 [Eh]
	 Opposite-Spin Energy      =      -0.8335982895127305 [Eh]
	 Correlation Energy        =      -1.0718802649942647 [Eh]
	 Total Energy              =    -229.4665623263138627 [Eh]

	 ================> DF-SCS-MP2 Energies <==================
	-----------------------------------------------------------
	 SCS Same-Spin Scale       =       0.3333333333333333 [-]
	 SCS Opposite-Spin Scale   =       1.2000000000000000 [-]
	 SCS Same-Spin Energy      =      -0.0794273251605114 [Eh]
	 SCS Opposite-Spin Energy  =      -1.0003179474152766 [Eh]
	 SCS Correlation Energy    =      -1.0797452725757879 [Eh]
	 SCS Total Energy          =    -229.4744273338953917 [Eh]
	-----------------------------------------------------------

  Dipole Moment: [D]
     X:     1.2455      Y:    -0.1324      Z:     1.0780     Total:     1.6525

*** Psi4 exiting successfully. Buy a developer a beer!
