                               Psi4 1.3.2 release

  ==> Input File <==

--------------------------------------------------------------------------
#psi4
#
memory 32 gb

molecule  {
0 1
  N        2.4474120    -0.3743850    -0.1038020
  N       -2.5385500    -0.2293020    -0.0118130
  C       -0.0034440    -0.3352880    -0.0308710
  C        1.4323715     0.3765047     0.0056804
  C       -1.2742550     0.5122230     0.0365220
  H        0.0051090    -0.9258550    -0.9544470
  H       -0.0068300    -1.0519040     0.8031080
  H        1.2667210     1.1093200     0.9398110
  H        1.2834760     1.1922470    -0.8225180
  H       -1.2810840     1.2286150    -0.7932870
  H       -1.2759100     1.1062970     0.9579340
  H        2.5106650    -0.9703360     0.7209670
  H        3.2948780     0.1919650    -0.1037960
  H       -2.5611900    -0.9003030     0.7556260
  H       -2.5647950    -0.7858640    -0.8657540
units angstrom
no_reorient  #important for SAPT in psi4, default
symmetry c1  #important for SAPT in psi4, default
}

set PROPERTIES_ORIGIN ["COM"]
properties('MP2/aug-cc-pvtz', properties = ['dipole'])
--------------------------------------------------------------------------

    Molecular point group: c1
  Charge       = 0
  Multiplicity = 1
  Basis Set: AUG-CC-PVTZ
    Blend: AUG-CC-PVTZ
  Basis Set: (AUG-CC-PVTZ AUX)
    Blend: AUG-CC-PVTZ-JKFIT

    Orbital Energies [Eh]
    ---------------------

    Doubly Occupied:

       1A    -15.549899     2A    -15.539866     3A    -11.260094
       4A    -11.246096     5A    -11.217235     6A     -1.256923
       7A     -1.174206     8A     -0.997990     9A     -0.864730
      10A     -0.796451    11A     -0.693482    12A     -0.673917
      13A     -0.660146    14A     -0.596861    15A     -0.570127
      16A     -0.549313    17A     -0.521875    18A     -0.475659
      19A     -0.442218    20A     -0.395068    21A     -0.366776

  @DF-RHF Final Energy:  -228.34891210016156

   => Energetics <=

    Nuclear Repulsion Energy =            187.0968986348572400
    One-Electron Energy =                -679.1937570764229122
    Two-Electron Energy =                 263.7479463414041447
    Total Energy =                       -228.3489121001615558
  Basis Set: (AUG-CC-PVTZ AUX)
    Blend: AUG-CC-PVTZ-RI
    Molecular point group: c1

    Geometry (in Angstrom), charge = 0, multiplicity = 1:

       Center              X                  Y                   Z               Mass
    ------------   -----------------  -----------------  -----------------  -----------------
         N            2.430456355096    -0.352565347111    -0.092458788270    14.003074004430
         N           -2.555505644904    -0.207482347111    -0.000469788270    14.003074004430
         C           -0.020399644904    -0.313468347111    -0.019527788270    12.000000000000
         C            1.415415855096     0.398324352889     0.017023611730    12.000000000000
         C           -1.291210644904     0.534042652889     0.047865211730    12.000000000000
         H           -0.011846644904    -0.904035347111    -0.943103788270     1.007825032230
         H           -0.023785644904    -1.030084347111     0.814451211730     1.007825032230
         H            1.249765355096     1.131139652889     0.951154211730     1.007825032230
         H            1.266520355096     1.214066652889    -0.811174788270     1.007825032230
         H           -1.298039644904     1.250434652889    -0.781943788270     1.007825032230
         H           -1.292865644904     1.128116652889     0.969277211730     1.007825032230
         H            2.493709355096    -0.948516347111     0.732310211730     1.007825032230
         H            3.277922355096     0.213784652889    -0.092452788270     1.007825032230
         H           -2.578145644904    -0.878483347111     0.766969211730     1.007825032230
         H           -2.581750644904    -0.764044347111    -0.854410788270     1.007825032230

  Basis Set: AUG-CC-PVTZ
    Blend: AUG-CC-PVTZ
  Basis Set: (AUG-CC-PVTZ AUX)
    Blend: AUG-CC-PVTZ-JKFIT
	 Reference Energy          =    -228.3489121001615558 [Eh]
	 Singles Energy            =      -0.0000000000000000 [Eh]
	 Same-Spin Energy          =      -0.2400217678100440 [Eh]
	 Opposite-Spin Energy      =      -0.8346449132488729 [Eh]
	 Correlation Energy        =      -1.0746666810589169 [Eh]
	 Total Energy              =    -229.4235787812204705 [Eh]

	 ================> DF-SCS-MP2 Energies <==================
	-----------------------------------------------------------
	 SCS Same-Spin Scale       =       0.3333333333333333 [-]
	 SCS Opposite-Spin Scale   =       1.2000000000000000 [-]
	 SCS Same-Spin Energy      =      -0.0800072559366813 [Eh]
	 SCS Opposite-Spin Energy  =      -1.0015738958986475 [Eh]
	 SCS Correlation Energy    =      -1.0815811518353289 [Eh]
	 SCS Total Energy          =    -229.4304932519968929 [Eh]
	-----------------------------------------------------------

  Dipole Moment: [D]
     X:     1.8121      Y:    -0.5185      Z:     0.8944     Total:     2.0863

*** Psi4 exiting successfully. Buy a developer a beer!
