                               Psi4 1.4a3.dev225

  ==> Input File <==

--------------------------------------------------------------------------
#psi4
#
memory 32 gb

molecule  {
0 1
  N        2.4472590    -0.3746750    -0.1036760
  N       -2.5383840    -0.2296350    -0.0118050
  C       -0.0033610    -0.3349390    -0.0309630
  C        1.2723060     0.4951460     0.0229450
  C       -1.2744810     0.5123910     0.0365760
  H        0.0049230    -0.9252980    -0.9546620
  H       -0.0068110    -1.0516390     0.8029280
  H        1.2668140     1.1094270     0.9397930
  H        1.2839730     1.1922540    -0.8226020
  H       -1.2814540     1.2287750    -0.7932160
  H       -1.2762360     1.1063260     0.9580520
  H        2.5118579    -0.9818046     0.7375763
  H        3.2948040     0.1914740    -0.1044810
  H       -2.5609240    -0.9005840     0.7556250
  H       -2.5646110    -0.7860270    -0.8658080
units angstrom
no_reorient  #important for SAPT in psi4, default
symmetry c1  #important for SAPT in psi4, default
}

set PROPERTIES_ORIGIN ["COM"]
properties('MP2/aug-cc-pvtz', properties = ['dipole'])
--------------------------------------------------------------------------

    Molecular point group: c1
  Charge       = 0
  Multiplicity = 1
  Basis Set: AUG-CC-PVTZ
    Blend: AUG-CC-PVTZ
  Basis Set: (AUG-CC-PVTZ AUX)
    Blend: AUG-CC-PVTZ-JKFIT

    Orbital Energies [Eh]
    ---------------------

    Doubly Occupied:

       1A    -15.546108     2A    -15.539753     3A    -11.250189
       4A    -11.246433     5A    -11.217123     6A     -1.182607
       7A     -1.169557     8A     -1.012680     9A     -0.872230
      10A     -0.803478    11A     -0.678444    12A     -0.653451
      13A     -0.628966    14A     -0.594798    15A     -0.560120
      16A     -0.536749    17A     -0.522170    18A     -0.487996
      19A     -0.473572    20A     -0.399662    21A     -0.385504

  @DF-RHF Final Energy:  -228.39744794186643

   => Energetics <=

    Nuclear Repulsion Energy =            186.2209507213501922
    One-Electron Energy =                -677.7136150062891602
    Two-Electron Energy =                 263.0952163430725932
    Total Energy =                       -228.3974479418664032
  Basis Set: (AUG-CC-PVTZ AUX)
    Blend: AUG-CC-PVTZ-RI
    Molecular point group: c1

    Geometry (in Angstrom), charge = 0, multiplicity = 1:

       Center              X                  Y                   Z               Mass
    ------------   -----------------  -----------------  -----------------  -----------------
         N            2.456233428942    -0.371885113988    -0.095360128501    14.003074004430
         N           -2.529409571058    -0.226845113988    -0.003489128501    14.003074004430
         C            0.005613428942    -0.332149113988    -0.022647128501    12.000000000000
         C            1.281280428942     0.497935886012     0.031260871499    12.000000000000
         C           -1.265506571058     0.515180886012     0.044891871499    12.000000000000
         H            0.013897428942    -0.922508113988    -0.946346128501     1.007825032230
         H            0.002163428942    -1.048849113988     0.811243871499     1.007825032230
         H            1.275788428942     1.112216886012     0.948108871499     1.007825032230
         H            1.292947428942     1.195043886012    -0.814286128501     1.007825032230
         H           -1.272479571058     1.231564886012    -0.784900128501     1.007825032230
         H           -1.267261571058     1.109115886012     0.966367871499     1.007825032230
         H            2.520832328942    -0.979014713988     0.745892171499     1.007825032230
         H            3.303778428942     0.194263886012    -0.096165128501     1.007825032230
         H           -2.551949571058    -0.897794113988     0.763940871499     1.007825032230
         H           -2.555636571058    -0.783237113988    -0.857492128501     1.007825032230

  Basis Set: AUG-CC-PVTZ
    Blend: AUG-CC-PVTZ
  Basis Set: (AUG-CC-PVTZ AUX)
    Blend: AUG-CC-PVTZ-JKFIT
	 Reference Energy          =    -228.3974479418664316 [Eh]
	 Singles Energy            =      -0.0000000000000000 [Eh]
	 Same-Spin Energy          =      -0.2382027593793810 [Eh]
	 Opposite-Spin Energy      =      -0.8333034645399443 [Eh]
	 Correlation Energy        =      -1.0715062239193254 [Eh]
	 Total Energy              =    -229.4689541657857603 [Eh]

	 ================> DF-SCS-MP2 Energies <==================
	-----------------------------------------------------------
	 SCS Same-Spin Scale       =       0.3333333333333333 [-]
	 SCS Opposite-Spin Scale   =       1.2000000000000000 [-]
	 SCS Same-Spin Energy      =      -0.0794009197931270 [Eh]
	 SCS Opposite-Spin Energy  =      -0.9999641574479331 [Eh]
	 SCS Correlation Energy    =      -1.0793650772410601 [Eh]
	 SCS Total Energy          =    -229.4768130191074818 [Eh]
	-----------------------------------------------------------

  Dipole Moment: [D]
     X:     1.2785      Y:    -0.1175      Z:     1.0156     Total:     1.6370

*** Psi4 exiting successfully. Buy a developer a beer!
