                               Psi4 1.4a3.dev225

  ==> Input File <==

--------------------------------------------------------------------------
#psi4
#
memory 32 gb

molecule  {
0 1
  N        2.4472590    -0.3746750    -0.1036760
  N       -2.5383840    -0.2296350    -0.0118050
  C       -0.0033610    -0.3349390    -0.0309630
  C        1.2562914     0.5070016     0.0246708
  C       -1.2744810     0.5123910     0.0365760
  H        0.0049230    -0.9252980    -0.9546620
  H       -0.0068110    -1.0516390     0.8029280
  H        1.2668140     1.1094270     0.9397930
  H        1.2839730     1.1922540    -0.8226020
  H       -1.2814540     1.2287750    -0.7932160
  H       -1.2762360     1.1063260     0.9580520
  H        2.5106150    -0.9701230     0.7213900
  H        3.2948040     0.1914740    -0.1044810
  H       -2.5609240    -0.9005840     0.7556250
  H       -2.5646110    -0.7860270    -0.8658080
units angstrom
no_reorient  #important for SAPT in psi4, default
symmetry c1  #important for SAPT in psi4, default
}

set PROPERTIES_ORIGIN ["COM"]
properties('MP2/aug-cc-pvtz', properties = ['dipole'])
--------------------------------------------------------------------------

    Molecular point group: c1
  Charge       = 0
  Multiplicity = 1
  Basis Set: AUG-CC-PVTZ
    Blend: AUG-CC-PVTZ
  Basis Set: (AUG-CC-PVTZ AUX)
    Blend: AUG-CC-PVTZ-JKFIT

    Orbital Energies [Eh]
    ---------------------

    Doubly Occupied:

       1A    -15.543229     2A    -15.539744     3A    -11.249752
       4A    -11.246494     5A    -11.217256     6A     -1.181343
       7A     -1.167727     8A     -1.014825     9A     -0.873664
      10A     -0.804940    11A     -0.679131    12A     -0.653458
      13A     -0.627519    14A     -0.595799    15A     -0.560801
      16A     -0.533998    17A     -0.522535    18A     -0.491403
      19A     -0.474466    20A     -0.399821    21A     -0.385930

  @DF-RHF Final Energy:  -228.39805661814540

   => Energetics <=

    Nuclear Repulsion Energy =            186.2639776395611761
    One-Electron Energy =                -677.7963941126804457
    Two-Electron Energy =                 263.1343598549738658
    Total Energy =                       -228.3980566181454037
  Basis Set: (AUG-CC-PVTZ AUX)
    Blend: AUG-CC-PVTZ-RI
    Molecular point group: c1

    Geometry (in Angstrom), charge = 0, multiplicity = 1:

       Center              X                  Y                   Z               Mass
    ------------   -----------------  -----------------  -----------------  -----------------
         N            2.458844340688    -0.373964367007    -0.095419474892    14.003074004430
         N           -2.526798659312    -0.228924367007    -0.003548474892    14.003074004430
         C            0.008224340688    -0.334228367007    -0.022706474892    12.000000000000
         C            1.267876740688     0.507712232993     0.032927325108    12.000000000000
         C           -1.262895659312     0.513101632993     0.044832525108    12.000000000000
         H            0.016508340688    -0.924587367007    -0.946405474892     1.007825032230
         H            0.004774340688    -1.050928367007     0.811184525108     1.007825032230
         H            1.278399340688     1.110137632993     0.948049525108     1.007825032230
         H            1.295558340688     1.192964632993    -0.814345474892     1.007825032230
         H           -1.269868659312     1.229485632993    -0.784959474892     1.007825032230
         H           -1.264650659312     1.107036632993     0.966308525108     1.007825032230
         H            2.522200340688    -0.969412367007     0.729646525108     1.007825032230
         H            3.306389340688     0.192184632993    -0.096224474892     1.007825032230
         H           -2.549338659312    -0.899873367007     0.763881525108     1.007825032230
         H           -2.553025659312    -0.785316367007    -0.857551474892     1.007825032230

  Basis Set: AUG-CC-PVTZ
    Blend: AUG-CC-PVTZ
  Basis Set: (AUG-CC-PVTZ AUX)
    Blend: AUG-CC-PVTZ-JKFIT
	 Reference Energy          =    -228.3980566181454037 [Eh]
	 Singles Energy            =      -0.0000000000000000 [Eh]
	 Same-Spin Energy          =      -0.2380921030005655 [Eh]
	 Opposite-Spin Energy      =      -0.8330987845484201 [Eh]
	 Correlation Energy        =      -1.0711908875489855 [Eh]
	 Total Energy              =    -229.4692475056943977 [Eh]

	 ================> DF-SCS-MP2 Energies <==================
	-----------------------------------------------------------
	 SCS Same-Spin Scale       =       0.3333333333333333 [-]
	 SCS Opposite-Spin Scale   =       1.2000000000000000 [-]
	 SCS Same-Spin Energy      =      -0.0793640343335218 [Eh]
	 SCS Opposite-Spin Energy  =      -0.9997185414581041 [Eh]
	 SCS Correlation Energy    =      -1.0790825757916260 [Eh]
	 SCS Total Energy          =    -229.4771391939370346 [Eh]
	-----------------------------------------------------------

  Dipole Moment: [D]
     X:     1.2375      Y:    -0.0888      Z:     1.0212     Total:     1.6069

*** Psi4 exiting successfully. Buy a developer a beer!
