                               Psi4 1.3.2 release

  ==> Input File <==

--------------------------------------------------------------------------
#psi4
#
memory 32 gb

molecule  {
0 1
  N        2.4474120    -0.3743850    -0.1038020
  N       -2.5385500    -0.2293020    -0.0118130
  C       -0.0034440    -0.3352880    -0.0308710
  C        1.2423512     0.4534071     0.0212986
  C       -1.2742550     0.5122230     0.0365220
  H        0.0051090    -0.9258550    -0.9544470
  H       -0.0068300    -1.0519040     0.8031080
  H        1.2667210     1.1093200     0.9398110
  H        1.2834760     1.1922470    -0.8225180
  H       -1.2810840     1.2286150    -0.7932870
  H       -1.2759100     1.1062970     0.9579340
  H        2.5106650    -0.9703360     0.7209670
  H        3.2948780     0.1919650    -0.1037960
  H       -2.5611900    -0.9003030     0.7556260
  H       -2.5647950    -0.7858640    -0.8657540
units angstrom
no_reorient  #important for SAPT in psi4, default
symmetry c1  #important for SAPT in psi4, default
}

set PROPERTIES_ORIGIN ["COM"]
properties('MP2/aug-cc-pvtz', properties = ['dipole'])
--------------------------------------------------------------------------

    Molecular point group: c1
  Charge       = 0
  Multiplicity = 1
  Basis Set: AUG-CC-PVTZ
    Blend: AUG-CC-PVTZ
  Basis Set: (AUG-CC-PVTZ AUX)
    Blend: AUG-CC-PVTZ-JKFIT

    Orbital Energies [Eh]
    ---------------------

    Doubly Occupied:

       1A    -15.543677     2A    -15.540671     3A    -11.252683
       4A    -11.247821     5A    -11.216140     6A     -1.185431
       7A     -1.171111     8A     -1.021283     9A     -0.873222
      10A     -0.801297    11A     -0.679706    12A     -0.656327
      13A     -0.629542    14A     -0.597653    15A     -0.560455
      16A     -0.543700    17A     -0.518095    18A     -0.492269
      19A     -0.470576    20A     -0.396487    21A     -0.387233

  @DF-RHF Final Energy:  -228.39524091688747

   => Energetics <=

    Nuclear Repulsion Energy =            186.8111948025196511
    One-Electron Energy =                -678.8421166236267936
    Two-Electron Energy =                 263.6356809042196687
    Total Energy =                       -228.3952409168874738
  Basis Set: (AUG-CC-PVTZ AUX)
    Blend: AUG-CC-PVTZ-RI
    Molecular point group: c1

    Geometry (in Angstrom), charge = 0, multiplicity = 1:

       Center              X                  Y                   Z               Mass
    ------------   -----------------  -----------------  -----------------  -----------------
         N            2.461235353797    -0.365021799762    -0.094988584073    14.003074004430
         N           -2.524726646203    -0.219938799762    -0.002999584073    14.003074004430
         C            0.010379353797    -0.325924799762    -0.022057584073    12.000000000000
         C            1.256174553797     0.462770300238     0.030112015927    12.000000000000
         C           -1.260431646203     0.521586200238     0.045335415927    12.000000000000
         H            0.018932353797    -0.916491799762    -0.945633584073     1.007825032230
         H            0.006993353797    -1.042540799762     0.811921415927     1.007825032230
         H            1.280544353797     1.118683200238     0.948624415927     1.007825032230
         H            1.297299353797     1.201610200238    -0.813704584073     1.007825032230
         H           -1.267260646203     1.237978200238    -0.784473584073     1.007825032230
         H           -1.262086646203     1.115660200238     0.966747415927     1.007825032230
         H            2.524488353797    -0.960972799762     0.729780415927     1.007825032230
         H            3.308701353797     0.201328200238    -0.094982584073     1.007825032230
         H           -2.547366646203    -0.890939799762     0.764439415927     1.007825032230
         H           -2.550971646203    -0.776500799762    -0.856940584073     1.007825032230

  Basis Set: AUG-CC-PVTZ
    Blend: AUG-CC-PVTZ
  Basis Set: (AUG-CC-PVTZ AUX)
    Blend: AUG-CC-PVTZ-JKFIT
	 Reference Energy          =    -228.3952409168874738 [Eh]
	 Singles Energy            =      -0.0000000000000000 [Eh]
	 Same-Spin Energy          =      -0.2384657380375794 [Eh]
	 Opposite-Spin Energy      =      -0.8333133212096751 [Eh]
	 Correlation Energy        =      -1.0717790592472545 [Eh]
	 Total Energy              =    -229.4670199761347362 [Eh]

	 ================> DF-SCS-MP2 Energies <==================
	-----------------------------------------------------------
	 SCS Same-Spin Scale       =       0.3333333333333333 [-]
	 SCS Opposite-Spin Scale   =       1.2000000000000000 [-]
	 SCS Same-Spin Energy      =      -0.0794885793458598 [Eh]
	 SCS Opposite-Spin Energy  =      -0.9999759854516100 [Eh]
	 SCS Correlation Energy    =      -1.0794645647974699 [Eh]
	 SCS Total Energy          =    -229.4747054816849356 [Eh]
	-----------------------------------------------------------

  Dipole Moment: [D]
     X:     1.2295      Y:    -0.1524      Z:     1.0058     Total:     1.5958

*** Psi4 exiting successfully. Buy a developer a beer!
