                               Psi4 1.3.2 release

  ==> Input File <==

--------------------------------------------------------------------------
#psi4
#
memory 32 gb

molecule  {
0 1
  N        2.5327113    -0.2471650    -0.0924658
  N       -2.5385500    -0.2293020    -0.0118130
  C       -0.0034440    -0.3352880    -0.0308710
  C        1.2721860     0.4950040     0.0229580
  C       -1.2742550     0.5122230     0.0365220
  H        0.0051090    -0.9258550    -0.9544470
  H       -0.0068300    -1.0519040     0.8031080
  H        1.2667210     1.1093200     0.9398110
  H        1.2834760     1.1922470    -0.8225180
  H       -1.2810840     1.2286150    -0.7932870
  H       -1.2759100     1.1062970     0.9579340
  H        2.5106650    -0.9703360     0.7209670
  H        3.2948780     0.1919650    -0.1037960
  H       -2.5611900    -0.9003030     0.7556260
  H       -2.5647950    -0.7858640    -0.8657540
units angstrom
no_reorient  #important for SAPT in psi4, default
symmetry c1  #important for SAPT in psi4, default
}

set PROPERTIES_ORIGIN ["COM"]
properties('MP2/aug-cc-pvtz', properties = ['dipole'])
--------------------------------------------------------------------------

    Molecular point group: c1
  Charge       = 0
  Multiplicity = 1
  Basis Set: AUG-CC-PVTZ
    Blend: AUG-CC-PVTZ
  Basis Set: (AUG-CC-PVTZ AUX)
    Blend: AUG-CC-PVTZ-JKFIT

    Orbital Energies [Eh]
    ---------------------

    Doubly Occupied:

       1A    -15.541928     2A    -15.531402     3A    -11.251253
       4A    -11.249239     5A    -11.221670     6A     -1.188518
       7A     -1.174952     8A     -1.020676     9A     -0.879766
      10A     -0.805176    11A     -0.686392    12A     -0.675270
      13A     -0.628296    14A     -0.593932    15A     -0.555852
      16A     -0.551941    17A     -0.521590    18A     -0.486601
      19A     -0.474214    20A     -0.395593    21A     -0.381918

  @DF-RHF Final Energy:  -228.37242196910304

   => Energetics <=

    Nuclear Repulsion Energy =            186.1004569836077280
    One-Electron Energy =                -677.3134026001199572
    Two-Electron Energy =                 262.8405236474091566
    Total Energy =                       -228.3724219691030726
  Basis Set: (AUG-CC-PVTZ AUX)
    Blend: AUG-CC-PVTZ-RI
    Molecular point group: c1

    Geometry (in Angstrom), charge = 0, multiplicity = 1:

       Center              X                  Y                   Z               Mass
    ------------   -----------------  -----------------  -----------------  -----------------
         N            2.525579229371    -0.268586066439    -0.086063883006    14.003074004430
         N           -2.545682070629    -0.250723066439    -0.005411083006    14.003074004430
         C           -0.010576070629    -0.356709066439    -0.024469083006    12.000000000000
         C            1.265053929371     0.473582933561     0.029359916994    12.000000000000
         C           -1.281387070629     0.490801933561     0.042923916994    12.000000000000
         H           -0.002023070629    -0.947276066439    -0.948045083006     1.007825032230
         H           -0.013962070629    -1.073325066439     0.809509916994     1.007825032230
         H            1.259588929371     1.087898933561     0.946212916994     1.007825032230
         H            1.276343929371     1.170825933561    -0.816116083006     1.007825032230
         H           -1.288216070629     1.207193933561    -0.786885083006     1.007825032230
         H           -1.283042070629     1.084875933561     0.964335916994     1.007825032230
         H            2.503532929371    -0.991757066439     0.727368916994     1.007825032230
         H            3.287745929371     0.170543933561    -0.097394083006     1.007825032230
         H           -2.568322070629    -0.921724066439     0.762027916994     1.007825032230
         H           -2.571927070629    -0.807285066439    -0.859352083006     1.007825032230

  Basis Set: AUG-CC-PVTZ
    Blend: AUG-CC-PVTZ
  Basis Set: (AUG-CC-PVTZ AUX)
    Blend: AUG-CC-PVTZ-JKFIT
	 Reference Energy          =    -228.3724219691030441 [Eh]
	 Singles Energy            =      -0.0000000000000000 [Eh]
	 Same-Spin Energy          =      -0.2378169835776932 [Eh]
	 Opposite-Spin Energy      =      -0.8321572318539802 [Eh]
	 Correlation Energy        =      -1.0699742154316734 [Eh]
	 Total Energy              =    -229.4423961845347151 [Eh]

	 ================> DF-SCS-MP2 Energies <==================
	-----------------------------------------------------------
	 SCS Same-Spin Scale       =       0.3333333333333333 [-]
	 SCS Opposite-Spin Scale   =       1.2000000000000000 [-]
	 SCS Same-Spin Energy      =      -0.0792723278592311 [Eh]
	 SCS Opposite-Spin Energy  =      -0.9985886782247761 [Eh]
	 SCS Correlation Energy    =      -1.0778610060840073 [Eh]
	 SCS Total Energy          =    -229.4502829751870649 [Eh]
	-----------------------------------------------------------

  Dipole Moment: [D]
     X:     1.0586      Y:    -0.3216      Z:     0.9367     Total:     1.4497

*** Psi4 exiting successfully. Buy a developer a beer!
