                               Psi4 1.4a3.dev225

  ==> Input File <==

--------------------------------------------------------------------------
#psi4
#
memory 32 gb

molecule  {
0 1
  N        2.4472590    -0.3746750    -0.1036760
  N       -2.5383840    -0.2296350    -0.0118050
  C       -0.0033610    -0.3349390    -0.0309630
  C        1.2723060     0.4951460     0.0229450
  C       -1.2744810     0.5123910     0.0365760
  H        0.0049230    -0.9252980    -0.9546620
  H       -0.0068110    -1.0516390     0.8029280
  H        1.2668140     1.1094270     0.9397930
  H        1.2839730     1.1922540    -0.8226020
  H       -1.2814540     1.2287750    -0.7932160
  H       -1.2762360     1.1063260     0.9580520
  H        2.5137223    -0.9993270     0.7618557
  H        3.2948040     0.1914740    -0.1044810
  H       -2.5609240    -0.9005840     0.7556250
  H       -2.5646110    -0.7860270    -0.8658080
units angstrom
no_reorient  #important for SAPT in psi4, default
symmetry c1  #important for SAPT in psi4, default
}

set PROPERTIES_ORIGIN ["COM"]
properties('MP2/aug-cc-pvtz', properties = ['dipole'])
--------------------------------------------------------------------------

    Molecular point group: c1
  Charge       = 0
  Multiplicity = 1
  Basis Set: AUG-CC-PVTZ
    Blend: AUG-CC-PVTZ
  Basis Set: (AUG-CC-PVTZ AUX)
    Blend: AUG-CC-PVTZ-JKFIT

    Orbital Energies [Eh]
    ---------------------

    Doubly Occupied:

       1A    -15.549452     2A    -15.539748     3A    -11.250340
       4A    -11.246422     5A    -11.217083     6A     -1.181235
       7A     -1.167722     8A     -1.011822     9A     -0.871311
      10A     -0.802889    11A     -0.678035    12A     -0.650699
      13A     -0.628682    14A     -0.593425    15A     -0.558647
      16A     -0.536776    17A     -0.521700    18A     -0.487604
      19A     -0.473525    20A     -0.399347    21A     -0.385471

  @DF-RHF Final Energy:  -228.39501006656604

   => Energetics <=

    Nuclear Repulsion Energy =            186.0860929582499068
    One-Electron Energy =                -677.4583374460333971
    Two-Electron Energy =                 262.9772344212174744
    Total Energy =                       -228.3950100665660443
  Basis Set: (AUG-CC-PVTZ AUX)
    Blend: AUG-CC-PVTZ-RI
    Molecular point group: c1

    Geometry (in Angstrom), charge = 0, multiplicity = 1:

       Center              X                  Y                   Z               Mass
    ------------   -----------------  -----------------  -----------------  -----------------
         N            2.456208066126    -0.371646743781    -0.095690419192    14.003074004430
         N           -2.529434933874    -0.226606743781    -0.003819419192    14.003074004430
         C            0.005588066126    -0.331910743781    -0.022977419192    12.000000000000
         C            1.281255066126     0.498174256219     0.030930580808    12.000000000000
         C           -1.265531933874     0.515419256219     0.044561580808    12.000000000000
         H            0.013872066126    -0.922269743781    -0.946676419192     1.007825032230
         H            0.002138066126    -1.048610743781     0.810913580808     1.007825032230
         H            1.275763066126     1.112455256219     0.947778580808     1.007825032230
         H            1.292922066126     1.195282256219    -0.814616419192     1.007825032230
         H           -1.272504933874     1.231803256219    -0.785230419192     1.007825032230
         H           -1.267286933874     1.109354256219     0.966037580808     1.007825032230
         H            2.522671366126    -0.996298743781     0.769841280808     1.007825032230
         H            3.303753066126     0.194502256219    -0.096495419192     1.007825032230
         H           -2.551974933874    -0.897555743781     0.763610580808     1.007825032230
         H           -2.555661933874    -0.782998743781    -0.857822419192     1.007825032230

  Basis Set: AUG-CC-PVTZ
    Blend: AUG-CC-PVTZ
  Basis Set: (AUG-CC-PVTZ AUX)
    Blend: AUG-CC-PVTZ-JKFIT
	 Reference Energy          =    -228.3950100665660443 [Eh]
	 Singles Energy            =      -0.0000000000000000 [Eh]
	 Same-Spin Energy          =      -0.2383353759504477 [Eh]
	 Opposite-Spin Energy      =      -0.8338161907097766 [Eh]
	 Correlation Energy        =      -1.0721515666602244 [Eh]
	 Total Energy              =    -229.4671616332262829 [Eh]

	 ================> DF-SCS-MP2 Energies <==================
	-----------------------------------------------------------
	 SCS Same-Spin Scale       =       0.3333333333333333 [-]
	 SCS Opposite-Spin Scale   =       1.2000000000000000 [-]
	 SCS Same-Spin Energy      =      -0.0794451253168159 [Eh]
	 SCS Opposite-Spin Energy  =      -1.0005794288517320 [Eh]
	 SCS Correlation Energy    =      -1.0800245541685478 [Eh]
	 SCS Total Energy          =    -229.4750346207345899 [Eh]
	-----------------------------------------------------------

  Dipole Moment: [D]
     X:     1.2749      Y:    -0.1189      Z:     1.0156     Total:     1.6343

*** Psi4 exiting successfully. Buy a developer a beer!
