                               Psi4 1.4a3.dev225

  ==> Input File <==

--------------------------------------------------------------------------
#psi4
#
memory 32 gb

molecule  {
0 1
  N        2.4472590    -0.3746750    -0.1036760
  N       -2.5383840    -0.2296350    -0.0118050
  C       -0.0033610    -0.3349390    -0.0309630
  C        1.2883206     0.4832904     0.0212192
  C       -1.2744810     0.5123910     0.0365760
  H        0.0049230    -0.9252980    -0.9546620
  H       -0.0068110    -1.0516390     0.8029280
  H        1.2668140     1.1094270     0.9397930
  H        1.2839730     1.1922540    -0.8226020
  H       -1.2814540     1.2287750    -0.7932160
  H       -1.2762360     1.1063260     0.9580520
  H        2.5106150    -0.9701230     0.7213900
  H        3.2948040     0.1914740    -0.1044810
  H       -2.5609240    -0.9005840     0.7556250
  H       -2.5646110    -0.7860270    -0.8658080
units angstrom
no_reorient  #important for SAPT in psi4, default
symmetry c1  #important for SAPT in psi4, default
}

set PROPERTIES_ORIGIN ["COM"]
properties('MP2/aug-cc-pvtz', properties = ['dipole'])
--------------------------------------------------------------------------

    Molecular point group: c1
  Charge       = 0
  Multiplicity = 1
  Basis Set: AUG-CC-PVTZ
    Blend: AUG-CC-PVTZ
  Basis Set: (AUG-CC-PVTZ AUX)
    Blend: AUG-CC-PVTZ-JKFIT

    Orbital Energies [Eh]
    ---------------------

    Doubly Occupied:

       1A    -15.544392     2A    -15.539778     3A    -11.250584
       4A    -11.246407     5A    -11.217079     6A     -1.187863
       7A     -1.172494     8A     -1.011763     9A     -0.872124
      10A     -0.802880    11A     -0.678550    12A     -0.657527
      13A     -0.631129    14A     -0.595632    15A     -0.561448
      16A     -0.539333    17A     -0.522155    18A     -0.485157
      19A     -0.472567    20A     -0.399762    21A     -0.384976

  @DF-RHF Final Energy:  -228.39796006227363

   => Energetics <=

    Nuclear Repulsion Energy =            186.3683141665466110
    One-Electron Energy =                -677.9853489444673187
    Two-Electron Energy =                 263.2190747156470820
    Total Energy =                       -228.3979600622736257
  Basis Set: (AUG-CC-PVTZ AUX)
    Blend: AUG-CC-PVTZ-RI
    Molecular point group: c1

    Geometry (in Angstrom), charge = 0, multiplicity = 1:

       Center              X                  Y                   Z               Mass
    ------------   -----------------  -----------------  -----------------  -----------------
         N            2.453656333379    -0.370123687911    -0.094860393616    14.003074004430
         N           -2.531986666621    -0.225083687911    -0.002989393616    14.003074004430
         C            0.003036333379    -0.330387687911    -0.022147393616    12.000000000000
         C            1.294717933379     0.487841712089     0.030034806384    12.000000000000
         C           -1.268083666621     0.516942312089     0.045391606384    12.000000000000
         H            0.011320333379    -0.920746687911    -0.945846393616     1.007825032230
         H           -0.000413666621    -1.047087687911     0.811743606384     1.007825032230
         H            1.273211333379     1.113978312089     0.948608606384     1.007825032230
         H            1.290370333379     1.196805312089    -0.813786393616     1.007825032230
         H           -1.275056666621     1.233326312089    -0.784400393616     1.007825032230
         H           -1.269838666621     1.110877312089     0.966867606384     1.007825032230
         H            2.517012333379    -0.965571687911     0.730205606384     1.007825032230
         H            3.301201333379     0.196025312089    -0.095665393616     1.007825032230
         H           -2.554526666621    -0.896032687911     0.764440606384     1.007825032230
         H           -2.558213666621    -0.781475687911    -0.856992393616     1.007825032230

  Basis Set: AUG-CC-PVTZ
    Blend: AUG-CC-PVTZ
  Basis Set: (AUG-CC-PVTZ AUX)
    Blend: AUG-CC-PVTZ-JKFIT
	 Reference Energy          =    -228.3979600622736257 [Eh]
	 Singles Energy            =      -0.0000000000000000 [Eh]
	 Same-Spin Energy          =      -0.2381633224956446 [Eh]
	 Opposite-Spin Energy      =      -0.8329015256069486 [Eh]
	 Correlation Energy        =      -1.0710648481025933 [Eh]
	 Total Energy              =    -229.4690249103762199 [Eh]

	 ================> DF-SCS-MP2 Energies <==================
	-----------------------------------------------------------
	 SCS Same-Spin Scale       =       0.3333333333333333 [-]
	 SCS Opposite-Spin Scale   =       1.2000000000000000 [-]
	 SCS Same-Spin Energy      =      -0.0793877741652149 [Eh]
	 SCS Opposite-Spin Energy  =      -0.9994818307283383 [Eh]
	 SCS Correlation Energy    =      -1.0788696048935531 [Eh]
	 SCS Total Energy          =    -229.4768296671671806 [Eh]
	-----------------------------------------------------------

  Dipole Moment: [D]
     X:     1.3250      Y:    -0.1448      Z:     1.0083     Total:     1.6713

*** Psi4 exiting successfully. Buy a developer a beer!
