                               Psi4 1.3.2 release

  ==> Input File <==

--------------------------------------------------------------------------
#psi4
#
memory 32 gb

molecule  {
0 1
  N        2.4474120    -0.3743850    -0.1038020
  N       -2.5385500    -0.2293020    -0.0118130
  C       -0.0034440    -0.3352880    -0.0308710
  C        1.2721860     0.4950040     0.0229580
  C       -1.2742550     0.5122230     0.0365220
  H        0.0051090    -0.9258550    -0.9544470
  H       -0.0068300    -1.0519040     0.8031080
  H        1.2667210     1.1093200     0.9398110
  H        1.2834760     1.1922470    -0.8225180
  H       -1.2810840     1.2286150    -0.7932870
  H       -1.2759100     1.1062970     0.9579340
  H        2.5106650    -0.9703360     0.7209670
  H        3.2948780     0.1919650    -0.1037960
  H       -2.5611900    -0.9003030     0.7556260
  H       -2.5647950    -0.7858640    -0.8657540
units angstrom
no_reorient  #important for SAPT in psi4, default
symmetry c1  #important for SAPT in psi4, default
}

set PROPERTIES_ORIGIN ["COM"]
properties('MP2/aug-cc-pvtz', properties = ['dipole'])
--------------------------------------------------------------------------

    Molecular point group: c1
  Charge       = 0
  Multiplicity = 1
  Basis Set: AUG-CC-PVTZ
    Blend: AUG-CC-PVTZ
  Basis Set: (AUG-CC-PVTZ AUX)
    Blend: AUG-CC-PVTZ-JKFIT

    Orbital Energies [Eh]
    ---------------------

    Doubly Occupied:

       1A    -15.543839     2A    -15.539782     3A    -11.250115
       4A    -11.246451     5A    -11.217175     6A     -1.183863
       7A     -1.170655     8A     -1.013329     9A     -0.872886
      10A     -0.803917    11A     -0.678763    12A     -0.655368
      13A     -0.629154    14A     -0.595723    15A     -0.560975
      16A     -0.536783    17A     -0.522463    18A     -0.488219
      19A     -0.473604    20A     -0.399886    21A     -0.385577

  @DF-RHF Final Energy:  -228.39838686388399

   => Energetics <=

    Nuclear Repulsion Energy =            186.3132652314521067
    One-Electron Energy =                -677.8862460692417926
    Two-Electron Energy =                 263.1745939739057576
    Total Energy =                       -228.3983868638839567
  Basis Set: (AUG-CC-PVTZ AUX)
    Blend: AUG-CC-PVTZ-RI
    Molecular point group: c1

    Geometry (in Angstrom), charge = 0, multiplicity = 1:

       Center              X                  Y                   Z               Mass
    ------------   -----------------  -----------------  -----------------  -----------------
         N            2.456402789748    -0.371759558470    -0.095257369411    14.003074004430
         N           -2.529559210252    -0.226676558470    -0.003268369411    14.003074004430
         C            0.005546789748    -0.332662558470    -0.022326369411    12.000000000000
         C            1.281176789748     0.497629441530     0.031502630589    12.000000000000
         C           -1.265264210252     0.514848441530     0.045066630589    12.000000000000
         H            0.014099789748    -0.923229558470    -0.945902369411     1.007825032230
         H            0.002160789748    -1.049278558470     0.811652630589     1.007825032230
         H            1.275711789748     1.111945441530     0.948355630589     1.007825032230
         H            1.292466789748     1.194872441530    -0.813973369411     1.007825032230
         H           -1.272093210252     1.231240441530    -0.784742369411     1.007825032230
         H           -1.266919210252     1.108922441530     0.966478630589     1.007825032230
         H            2.519655789748    -0.967710558470     0.729511630589     1.007825032230
         H            3.303868789748     0.194590441530    -0.095251369411     1.007825032230
         H           -2.552199210252    -0.897677558470     0.764170630589     1.007825032230
         H           -2.555804210252    -0.783238558470    -0.857209369411     1.007825032230

  Basis Set: AUG-CC-PVTZ
    Blend: AUG-CC-PVTZ
  Basis Set: (AUG-CC-PVTZ AUX)
    Blend: AUG-CC-PVTZ-JKFIT
	 Reference Energy          =    -228.3983868638839851 [Eh]
	 Singles Energy            =      -0.0000000000000000 [Eh]
	 Same-Spin Energy          =      -0.2381144051227842 [Eh]
	 Opposite-Spin Energy      =      -0.8329792050340048 [Eh]
	 Correlation Energy        =      -1.0710936101567889 [Eh]
	 Total Energy              =    -229.4694804740407790 [Eh]

	 ================> DF-SCS-MP2 Energies <==================
	-----------------------------------------------------------
	 SCS Same-Spin Scale       =       0.3333333333333333 [-]
	 SCS Opposite-Spin Scale   =       1.2000000000000000 [-]
	 SCS Same-Spin Energy      =      -0.0793714683742614 [Eh]
	 SCS Opposite-Spin Energy  =      -0.9995750460408057 [Eh]
	 SCS Correlation Energy    =      -1.0789465144150672 [Eh]
	 SCS Total Energy          =    -229.4773333782990505 [Eh]
	-----------------------------------------------------------

  Dipole Moment: [D]
     X:     1.2803      Y:    -0.1171      Z:     1.0160     Total:     1.6387

*** Psi4 exiting successfully. Buy a developer a beer!
