                               Psi4 1.3.2 release

  ==> Input File <==

--------------------------------------------------------------------------
#psi4
#
memory 32 gb

molecule  {
0 1
  N        2.4474120    -0.3743850    -0.1038020
  N       -2.5385500    -0.2293020    -0.0118130
  C       -0.0034440    -0.3352880    -0.0308710
  C        1.3361131     0.5749708     0.0258117
  C       -1.2742550     0.5122230     0.0365220
  H        0.0051090    -0.9258550    -0.9544470
  H       -0.0068300    -1.0519040     0.8031080
  H        1.2667210     1.1093200     0.9398110
  H        1.2834760     1.1922470    -0.8225180
  H       -1.2810840     1.2286150    -0.7932870
  H       -1.2759100     1.1062970     0.9579340
  H        2.5106650    -0.9703360     0.7209670
  H        3.2948780     0.1919650    -0.1037960
  H       -2.5611900    -0.9003030     0.7556260
  H       -2.5647950    -0.7858640    -0.8657540
units angstrom
no_reorient  #important for SAPT in psi4, default
symmetry c1  #important for SAPT in psi4, default
}

set PROPERTIES_ORIGIN ["COM"]
properties('MP2/aug-cc-pvtz', properties = ['dipole'])
--------------------------------------------------------------------------

    Molecular point group: c1
  Charge       = 0
  Multiplicity = 1
  Basis Set: AUG-CC-PVTZ
    Blend: AUG-CC-PVTZ
  Basis Set: (AUG-CC-PVTZ AUX)
    Blend: AUG-CC-PVTZ-JKFIT

    Orbital Energies [Eh]
    ---------------------

    Doubly Occupied:

       1A    -15.545106     2A    -15.538154     3A    -11.247375
       4A    -11.244101     5A    -11.218890     6A     -1.181995
       7A     -1.170114     8A     -1.000232     9A     -0.874916
      10A     -0.806603    11A     -0.678210    12A     -0.655849
      13A     -0.628184    14A     -0.594244    15A     -0.562975
      16A     -0.534756    17A     -0.528341    18A     -0.475952
      19A     -0.470243    20A     -0.406188    21A     -0.379233

  @DF-RHF Final Energy:  -228.38903897692134

   => Energetics <=

    Nuclear Repulsion Energy =            185.3379735990907591
    One-Electron Energy =                -675.9707070304460785
    Two-Electron Energy =                 262.2436944544339781
    Total Energy =                       -228.3890389769213130
  Basis Set: (AUG-CC-PVTZ AUX)
    Blend: AUG-CC-PVTZ-RI
    Molecular point group: c1

    Geometry (in Angstrom), charge = 0, multiplicity = 1:

       Center              X                  Y                   Z               Mass
    ------------   -----------------  -----------------  -----------------  -----------------
         N            2.446048042766    -0.384712374739    -0.095719604386    14.003074004430
         N           -2.539913957234    -0.239629374739    -0.003730604386    14.003074004430
         C           -0.004807957234    -0.345615374739    -0.022788604386    12.000000000000
         C            1.334749142766     0.564643425261     0.033894095614    12.000000000000
         C           -1.275618957234     0.501895625261     0.044604395614    12.000000000000
         H            0.003745042766    -0.936182374739    -0.946364604386     1.007825032230
         H           -0.008193957234    -1.062231374739     0.811190395614     1.007825032230
         H            1.265357042766     1.098992625261     0.947893395614     1.007825032230
         H            1.282112042766     1.181919625261    -0.814435604386     1.007825032230
         H           -1.282447957234     1.218287625261    -0.785204604386     1.007825032230
         H           -1.277273957234     1.095969625261     0.966016395614     1.007825032230
         H            2.509301042766    -0.980663374739     0.729049395614     1.007825032230
         H            3.293514042766     0.181637625261    -0.095713604386     1.007825032230
         H           -2.562553957234    -0.910630374739     0.763708395614     1.007825032230
         H           -2.566158957234    -0.796191374739    -0.857671604386     1.007825032230

  Basis Set: AUG-CC-PVTZ
    Blend: AUG-CC-PVTZ
  Basis Set: (AUG-CC-PVTZ AUX)
    Blend: AUG-CC-PVTZ-JKFIT
	 Reference Energy          =    -228.3890389769213414 [Eh]
	 Singles Energy            =      -0.0000000000000000 [Eh]
	 Same-Spin Energy          =      -0.2379919368703171 [Eh]
	 Opposite-Spin Energy      =      -0.8334310804507628 [Eh]
	 Correlation Energy        =      -1.0714230173210799 [Eh]
	 Total Energy              =    -229.4604619942424222 [Eh]

	 ================> DF-SCS-MP2 Energies <==================
	-----------------------------------------------------------
	 SCS Same-Spin Scale       =       0.3333333333333333 [-]
	 SCS Opposite-Spin Scale   =       1.2000000000000000 [-]
	 SCS Same-Spin Energy      =      -0.0793306456234390 [Eh]
	 SCS Opposite-Spin Energy  =      -1.0001172965409153 [Eh]
	 SCS Correlation Energy    =      -1.0794479421643544 [Eh]
	 SCS Total Energy          =    -229.4684869190857057 [Eh]
	-----------------------------------------------------------

  Dipole Moment: [D]
     X:     1.3740      Y:    -0.0747      Z:     1.0323     Total:     1.7202

*** Psi4 exiting successfully. Buy a developer a beer!
