                               Psi4 1.3.2 release

  ==> Input File <==

--------------------------------------------------------------------------
#psi4
#
memory 32 gb

molecule  {
0 1
  N        2.4160673    -0.4147409    -0.1072778
  N       -2.5385500    -0.2293020    -0.0118130
  C       -0.0034440    -0.3352880    -0.0308710
  C        1.2721860     0.4950040     0.0229580
  C       -1.2742550     0.5122230     0.0365220
  H        0.0051090    -0.9258550    -0.9544470
  H       -0.0068300    -1.0519040     0.8031080
  H        1.2667210     1.1093200     0.9398110
  H        1.2834760     1.1922470    -0.8225180
  H       -1.2810840     1.2286150    -0.7932870
  H       -1.2759100     1.1062970     0.9579340
  H        2.5106650    -0.9703360     0.7209670
  H        3.2948780     0.1919650    -0.1037960
  H       -2.5611900    -0.9003030     0.7556260
  H       -2.5647950    -0.7858640    -0.8657540
units angstrom
no_reorient  #important for SAPT in psi4, default
symmetry c1  #important for SAPT in psi4, default
}

set PROPERTIES_ORIGIN ["COM"]
properties('MP2/aug-cc-pvtz', properties = ['dipole'])
--------------------------------------------------------------------------

    Molecular point group: c1
  Charge       = 0
  Multiplicity = 1
  Basis Set: AUG-CC-PVTZ
    Blend: AUG-CC-PVTZ
  Basis Set: (AUG-CC-PVTZ AUX)
    Blend: AUG-CC-PVTZ-JKFIT

    Orbital Energies [Eh]
    ---------------------

    Doubly Occupied:

       1A    -15.548551     2A    -15.539206     3A    -11.250432
       4A    -11.245664     5A    -11.216004     6A     -1.183573
       7A     -1.169901     8A     -1.011678     9A     -0.872194
      10A     -0.804239    11A     -0.678229    12A     -0.649236
      13A     -0.627477    14A     -0.596154    15A     -0.563043
      16A     -0.530505    17A     -0.522434    18A     -0.487366
      19A     -0.473216    20A     -0.403812    21A     -0.384999

  @DF-RHF Final Energy:  -228.39447618127065

   => Energetics <=

    Nuclear Repulsion Energy =            186.4226925286339167
    One-Electron Energy =                -678.1185104484510475
    Two-Electron Energy =                 263.3013417385465118
    Total Energy =                       -228.3944761812706474
  Basis Set: (AUG-CC-PVTZ AUX)
    Blend: AUG-CC-PVTZ-RI
    Molecular point group: c1

    Geometry (in Angstrom), charge = 0, multiplicity = 1:

       Center              X                  Y                   Z               Mass
    ------------   -----------------  -----------------  -----------------  -----------------
         N            2.430982713064    -0.404487581792    -0.098076190536    14.003074004430
         N           -2.523634586936    -0.219048681792    -0.002611390536    14.003074004430
         C            0.011471413064    -0.325034681792    -0.021669390536    12.000000000000
         C            1.287101413064     0.505257318208     0.032159609464    12.000000000000
         C           -1.259339586936     0.522476318208     0.045723609464    12.000000000000
         H            0.020024413064    -0.915601681792    -0.945245390536     1.007825032230
         H            0.008085413064    -1.041650681792     0.812309609464     1.007825032230
         H            1.281636413064     1.119573318208     0.949012609464     1.007825032230
         H            1.298391413064     1.202500318208    -0.813316390536     1.007825032230
         H           -1.266168586936     1.238868318208    -0.784085390536     1.007825032230
         H           -1.260994586936     1.116550318208     0.967135609464     1.007825032230
         H            2.525580413064    -0.960082681792     0.730168609464     1.007825032230
         H            3.309793413064     0.202218318208    -0.094594390536     1.007825032230
         H           -2.546274586936    -0.890049681792     0.764827609464     1.007825032230
         H           -2.549879586936    -0.775610681792    -0.856552390536     1.007825032230

  Basis Set: AUG-CC-PVTZ
    Blend: AUG-CC-PVTZ
  Basis Set: (AUG-CC-PVTZ AUX)
    Blend: AUG-CC-PVTZ-JKFIT
	 Reference Energy          =    -228.3944761812706474 [Eh]
	 Singles Energy            =      -0.0000000000000000 [Eh]
	 Same-Spin Energy          =      -0.2383710769167091 [Eh]
	 Opposite-Spin Energy      =      -0.8338162365845728 [Eh]
	 Correlation Energy        =      -1.0721873135012818 [Eh]
	 Total Energy              =    -229.4666634947719217 [Eh]

	 ================> DF-SCS-MP2 Energies <==================
	-----------------------------------------------------------
	 SCS Same-Spin Scale       =       0.3333333333333333 [-]
	 SCS Opposite-Spin Scale   =       1.2000000000000000 [-]
	 SCS Same-Spin Energy      =      -0.0794570256389030 [Eh]
	 SCS Opposite-Spin Energy  =      -1.0005794839014874 [Eh]
	 SCS Correlation Energy    =      -1.0800365095403905 [Eh]
	 SCS Total Energy          =    -229.4745126908110251 [Eh]
	-----------------------------------------------------------

  Dipole Moment: [D]
     X:     1.3313      Y:    -0.0563      Z:     1.0380     Total:     1.6891

*** Psi4 exiting successfully. Buy a developer a beer!
