                               Psi4 1.3.2 release

  ==> Input File <==

--------------------------------------------------------------------------
#psi4
#
memory 32 gb

molecule  {
0 1
  N        2.4474120    -0.3743850    -0.1038020
  N       -2.5385500    -0.2293020    -0.0118130
  C       -0.0034440    -0.3352880    -0.0308710
  C        1.2721860     0.4950040     0.0229580
  C       -1.2742550     0.5122230     0.0365220
  H        0.0051090    -0.9258550    -0.9544470
  H       -0.0068300    -1.0519040     0.8031080
  H        1.2667210     1.1093200     0.9398110
  H        1.2834760     1.1922470    -0.8225180
  H       -1.2810840     1.2286150    -0.7932870
  H       -1.2759100     1.1062970     0.9579340
  H        2.5230735    -1.0872452     0.8827640
  H        3.2948780     0.1919650    -0.1037960
  H       -2.5611900    -0.9003030     0.7556260
  H       -2.5647950    -0.7858640    -0.8657540
units angstrom
no_reorient  #important for SAPT in psi4, default
symmetry c1  #important for SAPT in psi4, default
}

set PROPERTIES_ORIGIN ["COM"]
properties('MP2/aug-cc-pvtz', properties = ['dipole'])
--------------------------------------------------------------------------

    Molecular point group: c1
  Charge       = 0
  Multiplicity = 1
  Basis Set: AUG-CC-PVTZ
    Blend: AUG-CC-PVTZ
  Basis Set: (AUG-CC-PVTZ AUX)
    Blend: AUG-CC-PVTZ-JKFIT

    Orbital Energies [Eh]
    ---------------------

    Doubly Occupied:

       1A    -15.564776     2A    -15.539827     3A    -11.251549
       4A    -11.246484     5A    -11.217029     6A     -1.178798
       7A     -1.159369     8A     -1.008751     9A     -0.868154
      10A     -0.800763    11A     -0.677050    12A     -0.641599
      13A     -0.626862    14A     -0.587429    15A     -0.549330
      16A     -0.537266    17A     -0.518538    18A     -0.484722
      19A     -0.473301    20A     -0.398021    21A     -0.385538

  @DF-RHF Final Energy:  -228.37078260255390

   => Energetics <=

    Nuclear Repulsion Energy =            185.4875770387471903
    One-Electron Energy =                -676.2864058488999035
    Two-Electron Energy =                 262.4280462075988112
    Total Energy =                       -228.3707826025539021
  Basis Set: (AUG-CC-PVTZ AUX)
    Blend: AUG-CC-PVTZ-RI
    Molecular point group: c1

    Geometry (in Angstrom), charge = 0, multiplicity = 1:

       Center              X                  Y                   Z               Mass
    ------------   -----------------  -----------------  -----------------  -----------------
         N            2.456233987717    -0.370169155890    -0.097458414036    14.003074004430
         N           -2.529728012283    -0.225086155890    -0.005469414036    14.003074004430
         C            0.005377987717    -0.331072155890    -0.024527414036    12.000000000000
         C            1.281007987717     0.499219844110     0.029301585964    12.000000000000
         C           -1.265433012283     0.516438844110     0.042865585964    12.000000000000
         H            0.013930987717    -0.921639155890    -0.948103414036     1.007825032230
         H            0.001991987717    -1.047688155890     0.809451585964     1.007825032230
         H            1.275542987717     1.113535844110     0.946154585964     1.007825032230
         H            1.292297987717     1.196462844110    -0.816174414036     1.007825032230
         H           -1.272262012283     1.232830844110    -0.786943414036     1.007825032230
         H           -1.267088012283     1.110512844110     0.964277585964     1.007825032230
         H            2.531895487717    -1.083029355890     0.889107585964     1.007825032230
         H            3.303699987717     0.196180844110    -0.097452414036     1.007825032230
         H           -2.552368012283    -0.896087155890     0.761969585964     1.007825032230
         H           -2.555973012283    -0.781648155890    -0.859410414036     1.007825032230

  Basis Set: AUG-CC-PVTZ
    Blend: AUG-CC-PVTZ
  Basis Set: (AUG-CC-PVTZ AUX)
    Blend: AUG-CC-PVTZ-JKFIT
	 Reference Energy          =    -228.3707826025539021 [Eh]
	 Singles Energy            =      -0.0000000000000000 [Eh]
	 Same-Spin Energy          =      -0.2389286040001046 [Eh]
	 Opposite-Spin Energy      =      -0.8366717689687340 [Eh]
	 Correlation Energy        =      -1.0756003729688386 [Eh]
	 Total Energy              =    -229.4463829755227380 [Eh]

	 ================> DF-SCS-MP2 Energies <==================
	-----------------------------------------------------------
	 SCS Same-Spin Scale       =       0.3333333333333333 [-]
	 SCS Opposite-Spin Scale   =       1.2000000000000000 [-]
	 SCS Same-Spin Energy      =      -0.0796428680000349 [Eh]
	 SCS Opposite-Spin Energy  =      -1.0040061227624808 [Eh]
	 SCS Correlation Energy    =      -1.0836489907625158 [Eh]
	 SCS Total Energy          =    -229.4544315933164285 [Eh]
	-----------------------------------------------------------

  Dipole Moment: [D]
     X:     1.2486      Y:    -0.1113      Z:     1.0040     Total:     1.6060

*** Psi4 exiting successfully. Buy a developer a beer!
