                               Psi4 1.3.2 release

  ==> Input File <==

--------------------------------------------------------------------------
#psi4
#
memory 32 gb

molecule  {
0 1
  N        2.4474120    -0.3743850    -0.1038020
  N       -2.5385500    -0.2293020    -0.0118130
  C       -0.0034440    -0.3352880    -0.0308710
  C        1.2876427     0.5154084     0.0237299
  C       -1.2742550     0.5122230     0.0365220
  H        0.0051090    -0.9258550    -0.9544470
  H       -0.0068300    -1.0519040     0.8031080
  H        1.2667210     1.1093200     0.9398110
  H        1.2834760     1.1922470    -0.8225180
  H       -1.2810840     1.2286150    -0.7932870
  H       -1.2759100     1.1062970     0.9579340
  H        2.5106650    -0.9703360     0.7209670
  H        3.2948780     0.1919650    -0.1037960
  H       -2.5611900    -0.9003030     0.7556260
  H       -2.5647950    -0.7858640    -0.8657540
units angstrom
no_reorient  #important for SAPT in psi4, default
symmetry c1  #important for SAPT in psi4, default
}

set PROPERTIES_ORIGIN ["COM"]
properties('MP2/aug-cc-pvtz', properties = ['dipole'])
--------------------------------------------------------------------------

    Molecular point group: c1
  Charge       = 0
  Multiplicity = 1
  Basis Set: AUG-CC-PVTZ
    Blend: AUG-CC-PVTZ
  Basis Set: (AUG-CC-PVTZ AUX)
    Blend: AUG-CC-PVTZ-JKFIT

    Orbital Energies [Eh]
    ---------------------

    Doubly Occupied:

       1A    -15.544041     2A    -15.539357     3A    -11.249122
       4A    -11.245818     5A    -11.217653     6A     -1.183239
       7A     -1.170481     8A     -1.009718     9A     -0.873084
      10A     -0.804895    11A     -0.678443    12A     -0.655170
      13A     -0.628997    14A     -0.595056    15A     -0.561439
      16A     -0.534008    17A     -0.525304    18A     -0.484791
      19A     -0.474470    20A     -0.401623    21A     -0.384297

  @DF-RHF Final Energy:  -228.39787602172748

   => Energetics <=

    Nuclear Repulsion Energy =            186.0671291261975568
    One-Electron Energy =                -677.4080035387711405
    Two-Electron Energy =                 262.9429983908461281
    Total Energy =                       -228.3978760217274839
  Basis Set: (AUG-CC-PVTZ AUX)
    Blend: AUG-CC-PVTZ-RI
    Molecular point group: c1

    Geometry (in Angstrom), charge = 0, multiplicity = 1:

       Center              X                  Y                   Z               Mass
    ------------   -----------------  -----------------  -----------------  -----------------
         N            2.453899153298    -0.375064610620    -0.095382399784    14.003074004430
         N           -2.532062846702    -0.229981610620    -0.003393399784    14.003074004430
         C            0.003043153298    -0.335967610620    -0.022451399784    12.000000000000
         C            1.294129853298     0.514728789380     0.032149500216    12.000000000000
         C           -1.267767846702     0.511543389380     0.044941600216    12.000000000000
         H            0.011596153298    -0.926534610620    -0.946027399784     1.007825032230
         H           -0.000342846702    -1.052583610620     0.811527600216     1.007825032230
         H            1.273208153298     1.108640389380     0.948230600216     1.007825032230
         H            1.289963153298     1.191567389380    -0.814098399784     1.007825032230
         H           -1.274596846702     1.227935389380    -0.784867399784     1.007825032230
         H           -1.269422846702     1.105617389380     0.966353600216     1.007825032230
         H            2.517152153298    -0.971015610620     0.729386600216     1.007825032230
         H            3.301365153298     0.191285389380    -0.095376399784     1.007825032230
         H           -2.554702846702    -0.900982610620     0.764045600216     1.007825032230
         H           -2.558307846702    -0.786543610620    -0.857334399784     1.007825032230

  Basis Set: AUG-CC-PVTZ
    Blend: AUG-CC-PVTZ
  Basis Set: (AUG-CC-PVTZ AUX)
    Blend: AUG-CC-PVTZ-JKFIT
	 Reference Energy          =    -228.3978760217274839 [Eh]
	 Singles Energy            =      -0.0000000000000000 [Eh]
	 Same-Spin Energy          =      -0.2380124410457506 [Eh]
	 Opposite-Spin Energy      =      -0.8329537213163332 [Eh]
	 Correlation Energy        =      -1.0709661623620836 [Eh]
	 Total Energy              =    -229.4688421840895671 [Eh]

	 ================> DF-SCS-MP2 Energies <==================
	-----------------------------------------------------------
	 SCS Same-Spin Scale       =       0.3333333333333333 [-]
	 SCS Opposite-Spin Scale   =       1.2000000000000000 [-]
	 SCS Same-Spin Energy      =      -0.0793374803485835 [Eh]
	 SCS Opposite-Spin Energy  =      -0.9995444655795998 [Eh]
	 SCS Correlation Energy    =      -1.0788819459281833 [Eh]
	 SCS Total Energy          =    -229.4767579676556579 [Eh]
	-----------------------------------------------------------

  Dipole Moment: [D]
     X:     1.3048      Y:    -0.1031      Z:     1.0206     Total:     1.6598

*** Psi4 exiting successfully. Buy a developer a beer!
