                               Psi4 1.3.2 release

  ==> Input File <==

--------------------------------------------------------------------------
#psi4
#
memory 32 gb

molecule  {
0 1
  N        2.4474120    -0.3743850    -0.1038020
  N       -2.5385500    -0.2293020    -0.0118130
  C       -0.0034440    -0.3352880    -0.0308710
  C        1.2721860     0.4950040     0.0229580
  C       -1.2742550     0.5122230     0.0365220
  H        0.0051090    -0.9258550    -0.9544470
  H       -0.0068300    -1.0519040     0.8031080
  H        1.2667210     1.1093200     0.9398110
  H        1.2834760     1.1922470    -0.8225180
  H       -1.2810840     1.2286150    -0.7932870
  H       -1.2759100     1.1062970     0.9579340
  H        2.4477902    -0.9981556     0.7026176
  H        3.2948780     0.1919650    -0.1037960
  H       -2.5611900    -0.9003030     0.7556260
  H       -2.5647950    -0.7858640    -0.8657540
units angstrom
no_reorient  #important for SAPT in psi4, default
symmetry c1  #important for SAPT in psi4, default
}

set PROPERTIES_ORIGIN ["COM"]
properties('MP2/aug-cc-pvtz', properties = ['dipole'])
--------------------------------------------------------------------------

    Molecular point group: c1
  Charge       = 0
  Multiplicity = 1
  Basis Set: AUG-CC-PVTZ
    Blend: AUG-CC-PVTZ
  Basis Set: (AUG-CC-PVTZ AUX)
    Blend: AUG-CC-PVTZ-JKFIT

    Orbital Energies [Eh]
    ---------------------

    Doubly Occupied:

       1A    -15.543351     2A    -15.539959     3A    -11.249442
       4A    -11.246670     5A    -11.217614     6A     -1.183790
       7A     -1.170549     8A     -1.012871     9A     -0.871905
      10A     -0.804116    11A     -0.679624    12A     -0.660388
      13A     -0.627582    14A     -0.595586    15A     -0.560017
      16A     -0.536812    17A     -0.522696    18A     -0.488428
      19A     -0.474075    20A     -0.398472    21A     -0.385126

  @DF-RHF Final Energy:  -228.39785603653363

   => Energetics <=

    Nuclear Repulsion Energy =            186.3815794443792697
    One-Electron Energy =                -678.0207235221063229
    Two-Electron Energy =                 263.2412880411933997
    Total Energy =                       -228.3978560365336534
  Basis Set: (AUG-CC-PVTZ AUX)
    Blend: AUG-CC-PVTZ-RI
    Molecular point group: c1

    Geometry (in Angstrom), charge = 0, multiplicity = 1:

       Center              X                  Y                   Z               Mass
    ------------   -----------------  -----------------  -----------------  -----------------
         N            2.457258122298    -0.371381107812    -0.095007748909    14.003074004430
         N           -2.528703877702    -0.226298107812    -0.003018748909    14.003074004430
         C            0.006402122298    -0.332284107812    -0.022076748909    12.000000000000
         C            1.282032122298     0.498007892188     0.031752251091    12.000000000000
         C           -1.264408877702     0.515226892188     0.045316251091    12.000000000000
         H            0.014955122298    -0.922851107812    -0.945652748909     1.007825032230
         H            0.003016122298    -1.048900107812     0.811902251091     1.007825032230
         H            1.276567122298     1.112323892188     0.948605251091     1.007825032230
         H            1.293322122298     1.195250892188    -0.813723748909     1.007825032230
         H           -1.271237877702     1.231618892188    -0.784492748909     1.007825032230
         H           -1.266063877702     1.109300892188     0.966728251091     1.007825032230
         H            2.457636322298    -0.995151707812     0.711411851091     1.007825032230
         H            3.304724122298     0.194968892188    -0.095001748909     1.007825032230
         H           -2.551343877702    -0.897299107812     0.764420251091     1.007825032230
         H           -2.554948877702    -0.782860107812    -0.856959748909     1.007825032230

  Basis Set: AUG-CC-PVTZ
    Blend: AUG-CC-PVTZ
  Basis Set: (AUG-CC-PVTZ AUX)
    Blend: AUG-CC-PVTZ-JKFIT
	 Reference Energy          =    -228.3978560365336250 [Eh]
	 Singles Energy            =      -0.0000000000000000 [Eh]
	 Same-Spin Energy          =      -0.2381688617194229 [Eh]
	 Opposite-Spin Energy      =      -0.8330201586953514 [Eh]
	 Correlation Energy        =      -1.0711890204147743 [Eh]
	 Total Energy              =    -229.4690450569484028 [Eh]

	 ================> DF-SCS-MP2 Energies <==================
	-----------------------------------------------------------
	 SCS Same-Spin Scale       =       0.3333333333333333 [-]
	 SCS Opposite-Spin Scale   =       1.2000000000000000 [-]
	 SCS Same-Spin Energy      =      -0.0793896205731410 [Eh]
	 SCS Opposite-Spin Energy  =      -0.9996241904344216 [Eh]
	 SCS Correlation Energy    =      -1.0790138110075627 [Eh]
	 SCS Total Energy          =    -229.4768698475411952 [Eh]
	-----------------------------------------------------------

  Dipole Moment: [D]
     X:     1.2380      Y:    -0.1515      Z:     0.9931     Total:     1.5943

*** Psi4 exiting successfully. Buy a developer a beer!
