                               Psi4 1.3.2 release

  ==> Input File <==

--------------------------------------------------------------------------
#psi4
#
memory 32 gb

molecule  {
0 1
  N        2.5057696    -0.2905460    -0.0963915
  N       -2.5385500    -0.2293020    -0.0118130
  C       -0.0034440    -0.3352880    -0.0308710
  C        1.2721860     0.4950040     0.0229580
  C       -1.2742550     0.5122230     0.0365220
  H        0.0051090    -0.9258550    -0.9544470
  H       -0.0068300    -1.0519040     0.8031080
  H        1.2667210     1.1093200     0.9398110
  H        1.2834760     1.1922470    -0.8225180
  H       -1.2810840     1.2286150    -0.7932870
  H       -1.2759100     1.1062970     0.9579340
  H        2.5106650    -0.9703360     0.7209670
  H        3.2948780     0.1919650    -0.1037960
  H       -2.5611900    -0.9003030     0.7556260
  H       -2.5647950    -0.7858640    -0.8657540
units angstrom
no_reorient  #important for SAPT in psi4, default
symmetry c1  #important for SAPT in psi4, default
}

set PROPERTIES_ORIGIN ["COM"]
properties('MP2/aug-cc-pvtz', properties = ['dipole'])
--------------------------------------------------------------------------

    Molecular point group: c1
  Charge       = 0
  Multiplicity = 1
  Basis Set: AUG-CC-PVTZ
    Blend: AUG-CC-PVTZ
  Basis Set: (AUG-CC-PVTZ AUX)
    Blend: AUG-CC-PVTZ-JKFIT

    Orbital Energies [Eh]
    ---------------------

    Doubly Occupied:

       1A    -15.541146     2A    -15.535256     3A    -11.250487
       4A    -11.248242     5A    -11.220020     6A     -1.186162
       7A     -1.173256     8A     -1.017806     9A     -0.876551
      10A     -0.804194    11A     -0.682038    12A     -0.670717
      13A     -0.628789    14A     -0.594526    15A     -0.556353
      16A     -0.548525    17A     -0.521949    18A     -0.487694
      19A     -0.474234    20A     -0.395698    21A     -0.384092

  @DF-RHF Final Energy:  -228.38859137516178

   => Energetics <=

    Nuclear Repulsion Energy =            186.1504983985001900
    One-Electron Energy =                -677.4827056016197275
    Two-Electron Energy =                 262.9436158279577285
    Total Energy =                       -228.3885913751618091
  Basis Set: (AUG-CC-PVTZ AUX)
    Blend: AUG-CC-PVTZ-RI
    Molecular point group: c1

    Geometry (in Angstrom), charge = 0, multiplicity = 1:

       Center              X                  Y                   Z               Mass
    ------------   -----------------  -----------------  -----------------  -----------------
         N            2.503729918961    -0.303767400017    -0.089247566214    14.003074004430
         N           -2.540589681039    -0.242523400017    -0.004669066214    14.003074004430
         C           -0.005483681039    -0.348509400017    -0.023727066214    12.000000000000
         C            1.270146318961     0.481782599983     0.030101933786    12.000000000000
         C           -1.276294681039     0.499001599983     0.043665933786    12.000000000000
         H            0.003069318961    -0.939076400017    -0.947303066214     1.007825032230
         H           -0.008869681039    -1.065125400017     0.810251933786     1.007825032230
         H            1.264681318961     1.096098599983     0.946954933786     1.007825032230
         H            1.281436318961     1.179025599983    -0.815374066214     1.007825032230
         H           -1.283123681039     1.215393599983    -0.786143066214     1.007825032230
         H           -1.277949681039     1.093075599983     0.965077933786     1.007825032230
         H            2.508625318961    -0.983557400017     0.728110933786     1.007825032230
         H            3.292838318961     0.178743599983    -0.096652066214     1.007825032230
         H           -2.563229681039    -0.913524400017     0.762769933786     1.007825032230
         H           -2.566834681039    -0.799085400017    -0.858610066214     1.007825032230

  Basis Set: AUG-CC-PVTZ
    Blend: AUG-CC-PVTZ
  Basis Set: (AUG-CC-PVTZ AUX)
    Blend: AUG-CC-PVTZ-JKFIT
	 Reference Energy          =    -228.3885913751617807 [Eh]
	 Singles Energy            =      -0.0000000000000000 [Eh]
	 Same-Spin Energy          =      -0.2378328380540673 [Eh]
	 Opposite-Spin Energy      =      -0.8321368964039673 [Eh]
	 Correlation Energy        =      -1.0699697344580346 [Eh]
	 Total Energy              =    -229.4585611096198079 [Eh]

	 ================> DF-SCS-MP2 Energies <==================
	-----------------------------------------------------------
	 SCS Same-Spin Scale       =       0.3333333333333333 [-]
	 SCS Opposite-Spin Scale   =       1.2000000000000000 [-]
	 SCS Same-Spin Energy      =      -0.0792776126846891 [Eh]
	 SCS Opposite-Spin Energy  =      -0.9985642756847607 [Eh]
	 SCS Correlation Energy    =      -1.0778418883694498 [Eh]
	 SCS Total Energy          =    -229.4664332635312292 [Eh]
	-----------------------------------------------------------

  Dipole Moment: [D]
     X:     1.1437      Y:    -0.2505      Z:     0.9660     Total:     1.5179

*** Psi4 exiting successfully. Buy a developer a beer!
