                               Psi4 1.3.2 release

  ==> Input File <==

--------------------------------------------------------------------------
#psi4
#
memory 32 gb

molecule  {
0 1
  N        2.4331471    -0.3984173    -0.0608819
  N       -2.5385500    -0.2293020    -0.0118130
  C       -0.0034440    -0.3352880    -0.0308710
  C        1.2721860     0.4950040     0.0229580
  C       -1.2742550     0.5122230     0.0365220
  H        0.0051090    -0.9258550    -0.9544470
  H       -0.0068300    -1.0519040     0.8031080
  H        1.2667210     1.1093200     0.9398110
  H        1.2834760     1.1922470    -0.8225180
  H       -1.2810840     1.2286150    -0.7932870
  H       -1.2759100     1.1062970     0.9579340
  H        2.5106650    -0.9703360     0.7209670
  H        3.2948780     0.1919650    -0.1037960
  H       -2.5611900    -0.9003030     0.7556260
  H       -2.5647950    -0.7858640    -0.8657540
units angstrom
no_reorient  #important for SAPT in psi4, default
symmetry c1  #important for SAPT in psi4, default
}

set PROPERTIES_ORIGIN ["COM"]
properties('MP2/aug-cc-pvtz', properties = ['dipole'])
--------------------------------------------------------------------------

    Molecular point group: c1
  Charge       = 0
  Multiplicity = 1
  Basis Set: AUG-CC-PVTZ
    Blend: AUG-CC-PVTZ
  Basis Set: (AUG-CC-PVTZ AUX)
    Blend: AUG-CC-PVTZ-JKFIT

    Orbital Energies [Eh]
    ---------------------

    Doubly Occupied:

       1A    -15.540225     2A    -15.539401     3A    -11.250406
       4A    -11.245912     5A    -11.216436     6A     -1.184958
       7A     -1.171086     8A     -1.013371     9A     -0.873963
      10A     -0.805051    11A     -0.679258    12A     -0.657465
      13A     -0.626200    14A     -0.599862    15A     -0.564421
      16A     -0.533434    17A     -0.524056    18A     -0.488607
      19A     -0.473688    20A     -0.398011    21A     -0.383753

  @DF-RHF Final Energy:  -228.39628792336902

   => Energetics <=

    Nuclear Repulsion Energy =            186.4981417204783725
    One-Electron Energy =                -678.2497294522911488
    Two-Electron Energy =                 263.3552998084437604
    Total Energy =                       -228.3962879233690160
  Basis Set: (AUG-CC-PVTZ AUX)
    Blend: AUG-CC-PVTZ-RI
    Molecular point group: c1

    Geometry (in Angstrom), charge = 0, multiplicity = 1:

       Center              X                  Y                   Z               Mass
    ------------   -----------------  -----------------  -----------------  -----------------
         N            2.444834172027    -0.391249389570    -0.060449818748    14.003074004430
         N           -2.526862927973    -0.222134089570    -0.011380918748    14.003074004430
         C            0.008243072027    -0.328120089570    -0.030438918748    12.000000000000
         C            1.283873072027     0.502171910430     0.023390081252    12.000000000000
         C           -1.262567927973     0.519390910430     0.036954081252    12.000000000000
         H            0.016796072027    -0.918687089570    -0.954014918748     1.007825032230
         H            0.004857072027    -1.044736089570     0.803540081252     1.007825032230
         H            1.278408072027     1.116487910430     0.940243081252     1.007825032230
         H            1.295163072027     1.199414910430    -0.822085918748     1.007825032230
         H           -1.269396927973     1.235782910430    -0.792854918748     1.007825032230
         H           -1.264222927973     1.113464910430     0.958366081252     1.007825032230
         H            2.522352072027    -0.963168089570     0.721399081252     1.007825032230
         H            3.306565072027     0.199132910430    -0.103363918748     1.007825032230
         H           -2.549502927973    -0.893135089570     0.756058081252     1.007825032230
         H           -2.553107927973    -0.778696089570    -0.865321918748     1.007825032230

  Basis Set: AUG-CC-PVTZ
    Blend: AUG-CC-PVTZ
  Basis Set: (AUG-CC-PVTZ AUX)
    Blend: AUG-CC-PVTZ-JKFIT
	 Reference Energy          =    -228.3962879233690160 [Eh]
	 Singles Energy            =      -0.0000000000000000 [Eh]
	 Same-Spin Energy          =      -0.2380036347247152 [Eh]
	 Opposite-Spin Energy      =      -0.8326094935851578 [Eh]
	 Correlation Energy        =      -1.0706131283098730 [Eh]
	 Total Energy              =    -229.4669010516788887 [Eh]

	 ================> DF-SCS-MP2 Energies <==================
	-----------------------------------------------------------
	 SCS Same-Spin Scale       =       0.3333333333333333 [-]
	 SCS Opposite-Spin Scale   =       1.2000000000000000 [-]
	 SCS Same-Spin Energy      =      -0.0793345449082384 [Eh]
	 SCS Opposite-Spin Energy  =      -0.9991313923021893 [Eh]
	 SCS Correlation Energy    =      -1.0784659372104277 [Eh]
	 SCS Total Energy          =    -229.4747538605794546 [Eh]
	-----------------------------------------------------------

  Dipole Moment: [D]
     X:     1.3107      Y:    -0.0961      Z:     0.9484     Total:     1.6207

*** Psi4 exiting successfully. Buy a developer a beer!
