                               Psi4 1.3.2 release

  ==> Input File <==

--------------------------------------------------------------------------
#psi4
#
memory 32 gb

molecule  {
-1 1
  S       -1.5500650    -0.0000770     0.0055040
  O       -1.8677260    -0.0040310     1.4568130
  O       -1.9173420     1.2548610    -0.7013450
  O       -1.9179590    -1.2504550    -0.7090990
  C        0.2577020     0.0000600    -0.0380210
  C        0.9598570    -1.2082450    -0.0264560
  C        0.9600990     1.2082480    -0.0266860
  C        2.3556760    -1.2079150     0.0024970
  C        2.3559460     1.2077510     0.0021770
  C        3.0593930    -0.0001220     0.0217850
  H        0.3953308    -2.1347402    -0.1129333
  H        0.3942590     2.1354370    -0.0632640
  H        2.8982100    -2.1524450     0.0063830
  H        2.8986710     2.1521870     0.0058350
  H        4.1480910    -0.0001990     0.0432140
units angstrom
no_reorient  #important for SAPT in psi4, default
symmetry c1  #important for SAPT in psi4, default
}

set PROPERTIES_ORIGIN ["COM"]
properties('MP2/aug-cc-pvtz', properties = ['dipole'])
--------------------------------------------------------------------------

    Molecular point group: c1
  Charge       = -1
  Multiplicity = 1
  Basis Set: AUG-CC-PVTZ
    Blend: AUG-CC-PVTZ
  Basis Set: (AUG-CC-PVTZ AUX)
    Blend: AUG-CC-PVTZ-JKFIT

    Orbital Energies [Eh]
    ---------------------

    Doubly Occupied:

       1A    -92.015460     2A    -20.352461     3A    -20.352305
       4A    -20.351289     5A    -11.132934     6A    -11.129133
       7A    -11.128932     8A    -11.125020     9A    -11.121585
      10A    -11.121367    11A     -8.976178    12A     -6.661906
      13A     -6.661110    14A     -6.661017    15A     -1.271465
      16A     -1.128132    17A     -1.126050    18A     -1.037526
      19A     -0.906592    20A     -0.901594    21A     -0.732980
      22A     -0.712890    23A     -0.642122    24A     -0.582659
      25A     -0.523330    26A     -0.513766    27A     -0.495951
      28A     -0.474278    29A     -0.465167    30A     -0.459315
      31A     -0.410344    32A     -0.391836    33A     -0.379679
      34A     -0.332948    35A     -0.332541    36A     -0.300094
      37A     -0.292339    38A     -0.271439    39A     -0.250259
      40A     -0.224935    41A     -0.215154

  @DF-RHF Final Energy:  -852.43758581278348

   => Energetics <=

    Nuclear Repulsion Energy =            619.1056216685414029
    One-Electron Energy =               -2414.7542544421135062
    Two-Electron Energy =                 943.2110469607885079
    Total Energy =                       -852.4375858127834817
  Basis Set: (AUG-CC-PVTZ AUX)
    Blend: AUG-CC-PVTZ-RI
    Molecular point group: c1

    Geometry (in Angstrom), charge = -1, multiplicity = 1:

       Center              X                  Y                   Z               Mass
    ------------   -----------------  -----------------  -----------------  -----------------
         S           -1.482702860967    -0.000084018780     0.005379893712    31.972071174400
         O           -1.800363860967    -0.004038018780     1.456688893712    15.994914619570
         O           -1.849979860967     1.254853981220    -0.701469106288    15.994914619570
         O           -1.850596860967    -1.250462018780    -0.709223106288    15.994914619570
         C            0.325064139033     0.000052981220    -0.038145106288    12.000000000000
         C            1.027219139033    -1.208252018780    -0.026580106288    12.000000000000
         C            1.027461139033     1.208240981220    -0.026810106288    12.000000000000
         C            2.423038139033    -1.207922018780     0.002372893712    12.000000000000
         C            2.423308139033     1.207743981220     0.002052893712    12.000000000000
         C            3.126755139033    -0.000129018780     0.021660893712    12.000000000000
         H            0.462692939033    -2.134747218780    -0.113057406288     1.007825032230
         H            0.461621139033     2.135429981220    -0.063388106288     1.007825032230
         H            2.965572139033    -2.152452018780     0.006258893712     1.007825032230
         H            2.966033139033     2.152179981220     0.005710893712     1.007825032230
         H            4.215453139033    -0.000206018780     0.043089893712     1.007825032230

  Basis Set: AUG-CC-PVTZ
    Blend: AUG-CC-PVTZ
  Basis Set: (AUG-CC-PVTZ AUX)
    Blend: AUG-CC-PVTZ-JKFIT
	 Reference Energy          =    -852.4375858127834817 [Eh]
	 Singles Energy            =      -0.0000000000000000 [Eh]
	 Same-Spin Energy          =      -0.5389979793570925 [Eh]
	 Opposite-Spin Energy      =      -1.5551838940722811 [Eh]
	 Correlation Energy        =      -2.0941818734293736 [Eh]
	 Total Energy              =    -854.5317676862129019 [Eh]

	 ================> DF-SCS-MP2 Energies <==================
	-----------------------------------------------------------
	 SCS Same-Spin Scale       =       0.3333333333333333 [-]
	 SCS Opposite-Spin Scale   =       1.2000000000000000 [-]
	 SCS Same-Spin Energy      =      -0.1796659931190308 [Eh]
	 SCS Opposite-Spin Energy  =      -1.8662206728867372 [Eh]
	 SCS Correlation Energy    =      -2.0458866660057682 [Eh]
	 SCS Total Energy          =    -854.4834724787892810 [Eh]
	-----------------------------------------------------------

  Dipole Moment: [D]
     X:     7.9521      Y:     0.0016      Z:    -0.1395     Total:     7.9533

*** Psi4 exiting successfully. Buy a developer a beer!
