                               Psi4 1.3.2 release

  ==> Input File <==

--------------------------------------------------------------------------
#psi4
#
memory 32 gb

molecule  {
-1 1
  S       -1.5500650    -0.0000770     0.0055040
  O       -1.8677260    -0.0040310     1.4568130
  O       -1.9173420     1.2548610    -0.7013450
  O       -1.9179590    -1.2504550    -0.7090990
  C        0.2577020     0.0000600    -0.0380210
  C        0.9598570    -1.2082450    -0.0264560
  C        0.9607379     1.2082527     0.0233099
  C        2.3556760    -1.2079150     0.0024970
  C        2.3559460     1.2077510     0.0021770
  C        3.0593930    -0.0001220     0.0217850
  H        0.3939800    -2.1354100    -0.0629560
  H        0.3942590     2.1354370    -0.0632640
  H        2.8982100    -2.1524450     0.0063830
  H        2.8986710     2.1521870     0.0058350
  H        4.1480910    -0.0001990     0.0432140
units angstrom
no_reorient  #important for SAPT in psi4, default
symmetry c1  #important for SAPT in psi4, default
}

set PROPERTIES_ORIGIN ["COM"]
properties('MP2/aug-cc-pvtz', properties = ['dipole'])
--------------------------------------------------------------------------

    Molecular point group: c1
  Charge       = -1
  Multiplicity = 1
  Basis Set: AUG-CC-PVTZ
    Blend: AUG-CC-PVTZ
  Basis Set: (AUG-CC-PVTZ AUX)
    Blend: AUG-CC-PVTZ-JKFIT

    Orbital Energies [Eh]
    ---------------------

    Doubly Occupied:

       1A    -92.015454     2A    -20.352437     3A    -20.352346
       4A    -20.351252     5A    -11.132927     6A    -11.129236
       7A    -11.129004     8A    -11.125235     9A    -11.121709
      10A    -11.121403    11A     -8.976176    12A     -6.661903
      13A     -6.661106    14A     -6.661016    15A     -1.271450
      16A     -1.128103    17A     -1.126034    18A     -1.037553
      19A     -0.906474    20A     -0.901711    21A     -0.733031
      22A     -0.712742    23A     -0.642069    24A     -0.582508
      25A     -0.523293    26A     -0.513702    27A     -0.495715
      28A     -0.474224    29A     -0.465133    30A     -0.459220
      31A     -0.410442    32A     -0.391781    33A     -0.379268
      34A     -0.332926    35A     -0.332539    36A     -0.300087
      37A     -0.292346    38A     -0.271474    39A     -0.250245
      40A     -0.225179    41A     -0.214977

  @DF-RHF Final Energy:  -852.43688638786512

   => Energetics <=

    Nuclear Repulsion Energy =            619.0885302838047437
    One-Electron Energy =               -2414.7199733100396770
    Two-Electron Energy =                 943.1945566383699315
    Total Energy =                       -852.4368863878651155
  Basis Set: (AUG-CC-PVTZ AUX)
    Blend: AUG-CC-PVTZ-RI
    Molecular point group: c1

    Geometry (in Angstrom), charge = -1, multiplicity = 1:

       Center              X                  Y                   Z               Mass
    ------------   -----------------  -----------------  -----------------  -----------------
         S           -1.482743023980    -0.000080078288     0.001237626255    31.972071174400
         O           -1.800404023980    -0.004034078288     1.452546626255    15.994914619570
         O           -1.850020023980     1.254857921712    -0.705611373745    15.994914619570
         O           -1.850637023980    -1.250458078288    -0.713365373745    15.994914619570
         C            0.325023976020     0.000056921712    -0.042287373745    12.000000000000
         C            1.027178976020    -1.208248078288    -0.030722373745    12.000000000000
         C            1.028059876020     1.208249621712     0.019043526255    12.000000000000
         C            2.422997976020    -1.207918078288    -0.001769373745    12.000000000000
         C            2.423267976020     1.207747921712    -0.002089373745    12.000000000000
         C            3.126714976020    -0.000125078288     0.017518626255    12.000000000000
         H            0.461301976020    -2.135413078288    -0.067222373745     1.007825032230
         H            0.461580976020     2.135433921712    -0.067530373745     1.007825032230
         H            2.965531976020    -2.152448078288     0.002116626255     1.007825032230
         H            2.965992976020     2.152183921712     0.001568626255     1.007825032230
         H            4.215412976020    -0.000202078288     0.038947626255     1.007825032230

  Basis Set: AUG-CC-PVTZ
    Blend: AUG-CC-PVTZ
  Basis Set: (AUG-CC-PVTZ AUX)
    Blend: AUG-CC-PVTZ-JKFIT
	 Reference Energy          =    -852.4368863878651155 [Eh]
	 Singles Energy            =      -0.0000000000000000 [Eh]
	 Same-Spin Energy          =      -0.5390366524625667 [Eh]
	 Opposite-Spin Energy      =      -1.5553190853296766 [Eh]
	 Correlation Energy        =      -2.0943557377922435 [Eh]
	 Total Energy              =    -854.5312421256573998 [Eh]

	 ================> DF-SCS-MP2 Energies <==================
	-----------------------------------------------------------
	 SCS Same-Spin Scale       =       0.3333333333333333 [-]
	 SCS Opposite-Spin Scale   =       1.2000000000000000 [-]
	 SCS Same-Spin Energy      =      -0.1796788841541889 [Eh]
	 SCS Opposite-Spin Energy  =      -1.8663829023956118 [Eh]
	 SCS Correlation Energy    =      -2.0460617865498008 [Eh]
	 SCS Total Energy          =    -854.4829481744149007 [Eh]
	-----------------------------------------------------------

  Dipole Moment: [D]
     X:     7.9564      Y:    -0.0089      Z:    -0.1137     Total:     7.9572

*** Psi4 exiting successfully. Buy a developer a beer!
