                               Psi4 1.3.2 release

  ==> Input File <==

--------------------------------------------------------------------------
#psi4
#
memory 32 gb

molecule  {
-1 1
  S       -1.5500650    -0.0000770     0.0055040
  O       -1.8677260    -0.0040310     1.4568130
  O       -1.9173420     1.2548610    -0.7013450
  O       -1.9179590    -1.2504550    -0.7090990
  C        0.2577020     0.0000600    -0.0380210
  C        0.9598570    -1.2082450    -0.0264560
  C        0.9600990     1.2082480    -0.0266860
  C        2.3556760    -1.2079150     0.0024970
  C        2.3559460     1.2077510     0.0021770
  C        3.0593930    -0.0001220     0.0217850
  H        0.3966817    -2.1340705    -0.1629105
  H        0.3942590     2.1354370    -0.0632640
  H        2.8982100    -2.1524450     0.0063830
  H        2.8986710     2.1521870     0.0058350
  H        4.1480910    -0.0001990     0.0432140
units angstrom
no_reorient  #important for SAPT in psi4, default
symmetry c1  #important for SAPT in psi4, default
}

set PROPERTIES_ORIGIN ["COM"]
properties('MP2/aug-cc-pvtz', properties = ['dipole'])
--------------------------------------------------------------------------

    Molecular point group: c1
  Charge       = -1
  Multiplicity = 1
  Basis Set: AUG-CC-PVTZ
    Blend: AUG-CC-PVTZ
  Basis Set: (AUG-CC-PVTZ AUX)
    Blend: AUG-CC-PVTZ-JKFIT

    Orbital Energies [Eh]
    ---------------------

    Doubly Occupied:

       1A    -92.015485     2A    -20.352501     3A    -20.352289
       4A    -20.351330     5A    -11.132936     6A    -11.129182
       7A    -11.128971     8A    -11.125096     9A    -11.121731
      10A    -11.121435    11A     -8.976202    12A     -6.661931
      13A     -6.661134    14A     -6.661039    15A     -1.271482
      16A     -1.128161    17A     -1.126064    18A     -1.037526
      19A     -0.906579    20A     -0.901510    21A     -0.732960
      22A     -0.712688    23A     -0.642081    24A     -0.582436
      25A     -0.523108    26A     -0.513769    27A     -0.495853
      28A     -0.474023    29A     -0.465200    30A     -0.459365
      31A     -0.410500    32A     -0.391815    33A     -0.378990
      34A     -0.332993    35A     -0.332558    36A     -0.300102
      37A     -0.292337    38A     -0.271477    39A     -0.250282
      40A     -0.224861    41A     -0.215168

  @DF-RHF Final Energy:  -852.43701383377550

   => Energetics <=

    Nuclear Repulsion Energy =            619.0895983762771948
    One-Electron Energy =               -2414.7229273692123570
    Two-Electron Energy =                 943.1963151591597807
    Total Energy =                       -852.4370138337754952
  Basis Set: (AUG-CC-PVTZ AUX)
    Blend: AUG-CC-PVTZ-RI
    Molecular point group: c1

    Geometry (in Angstrom), charge = -1, multiplicity = 1:

       Center              X                  Y                   Z               Mass
    ------------   -----------------  -----------------  -----------------  -----------------
         S           -1.482711532980    -0.000088317875     0.005700719035    31.972071174400
         O           -1.800372532980    -0.004042317875     1.457009719035    15.994914619570
         O           -1.849988532980     1.254849682125    -0.701148280965    15.994914619570
         O           -1.850605532980    -1.250466317875    -0.708902280965    15.994914619570
         C            0.325055467020     0.000048682125    -0.037824280965    12.000000000000
         C            1.027210467020    -1.208256317875    -0.026259280965    12.000000000000
         C            1.027452467020     1.208236682125    -0.026489280965    12.000000000000
         C            2.423029467020    -1.207926317875     0.002693719035    12.000000000000
         C            2.423299467020     1.207739682125     0.002373719035    12.000000000000
         C            3.126746467020    -0.000133317875     0.021981719035    12.000000000000
         H            0.464035167020    -2.134081817875    -0.162713780965     1.007825032230
         H            0.461612467020     2.135425682125    -0.063067280965     1.007825032230
         H            2.965563467020    -2.152456317875     0.006579719035     1.007825032230
         H            2.966024467020     2.152175682125     0.006031719035     1.007825032230
         H            4.215444467020    -0.000210317875     0.043410719035     1.007825032230

  Basis Set: AUG-CC-PVTZ
    Blend: AUG-CC-PVTZ
  Basis Set: (AUG-CC-PVTZ AUX)
    Blend: AUG-CC-PVTZ-JKFIT
	 Reference Energy          =    -852.4370138337754952 [Eh]
	 Singles Energy            =      -0.0000000000000000 [Eh]
	 Same-Spin Energy          =      -0.5390449999777140 [Eh]
	 Opposite-Spin Energy      =      -1.5552631430001185 [Eh]
	 Correlation Energy        =      -2.0943081429778325 [Eh]
	 Total Energy              =    -854.5313219767533610 [Eh]

	 ================> DF-SCS-MP2 Energies <==================
	-----------------------------------------------------------
	 SCS Same-Spin Scale       =       0.3333333333333333 [-]
	 SCS Opposite-Spin Scale   =       1.2000000000000000 [-]
	 SCS Same-Spin Energy      =      -0.1796816666592380 [Eh]
	 SCS Opposite-Spin Energy  =      -1.8663157716001422 [Eh]
	 SCS Correlation Energy    =      -2.0459974382593802 [Eh]
	 SCS Total Energy          =    -854.4830112720349007 [Eh]
	-----------------------------------------------------------

  Dipole Moment: [D]
     X:     7.9532      Y:     0.0074      Z:    -0.1679     Total:     7.9550

*** Psi4 exiting successfully. Buy a developer a beer!
