                               Psi4 1.3.2 release

  ==> Input File <==

--------------------------------------------------------------------------
#psi4
#
memory 32 gb

molecule  {
-1 1
  S       -1.5500650    -0.0000770     0.0055040
  O       -1.8677260    -0.0040310     1.4568130
  O       -1.9173420     1.2548610    -0.7013450
  O       -1.9179590    -1.2504550    -0.7090990
  C        0.2577020     0.0000600    -0.0380210
  C        0.9598570    -1.2082450    -0.0264560
  C        0.9600990     1.2082480    -0.0266860
  C        2.3556760    -1.2079150     0.0024970
  C        2.3559460     1.2077510     0.0021770
  C        3.0593930    -0.0001220     0.0217850
  H        0.4020851    -2.1313914    -0.3628196
  H        0.3942590     2.1354370    -0.0632640
  H        2.8982100    -2.1524450     0.0063830
  H        2.8986710     2.1521870     0.0058350
  H        4.1480910    -0.0001990     0.0432140
units angstrom
no_reorient  #important for SAPT in psi4, default
symmetry c1  #important for SAPT in psi4, default
}

set PROPERTIES_ORIGIN ["COM"]
properties('MP2/aug-cc-pvtz', properties = ['dipole'])
--------------------------------------------------------------------------

    Molecular point group: c1
  Charge       = -1
  Multiplicity = 1
  Basis Set: AUG-CC-PVTZ
    Blend: AUG-CC-PVTZ
  Basis Set: (AUG-CC-PVTZ AUX)
    Blend: AUG-CC-PVTZ-JKFIT

    Orbital Energies [Eh]
    ---------------------

    Doubly Occupied:

       1A    -92.015572     2A    -20.352520     3A    -20.352250
       4A    -20.351542     5A    -11.133064     6A    -11.129756
       7A    -11.129418     8A    -11.125875     9A    -11.124184
      10A    -11.121695    11A     -8.976286    12A     -6.662026
      13A     -6.661216    14A     -6.661118    15A     -1.271525
      16A     -1.128200    17A     -1.126127    18A     -1.037633
      19A     -0.906601    20A     -0.900837    21A     -0.732824
      22A     -0.711035    23A     -0.641825    24A     -0.580424
      25A     -0.521414    26A     -0.513917    27A     -0.494959
      28A     -0.471629    29A     -0.465233    30A     -0.459469
      31A     -0.411038    32A     -0.392875    33A     -0.372954
      34A     -0.333123    35A     -0.332553    36A     -0.300129
      37A     -0.292191    38A     -0.271721    39A     -0.250347
      40A     -0.224248    41A     -0.215202

  @DF-RHF Final Energy:  -852.43075457814280

   => Energetics <=

    Nuclear Repulsion Energy =            618.9311471522119064
    One-Electron Energy =               -2414.4106940836977628
    Two-Electron Energy =                 943.0487923533430603
    Total Energy =                       -852.4307545781427962
  Basis Set: (AUG-CC-PVTZ AUX)
    Blend: AUG-CC-PVTZ-RI
    Molecular point group: c1

    Geometry (in Angstrom), charge = -1, multiplicity = 1:

       Center              X                  Y                   Z               Mass
    ------------   -----------------  -----------------  -----------------  -----------------
         S           -1.482746219748    -0.000105516180     0.006984022252    31.972071174400
         O           -1.800407219748    -0.004059516180     1.458293022252    15.994914619570
         O           -1.850023219748     1.254832483820    -0.699864977748    15.994914619570
         O           -1.850640219748    -1.250483516180    -0.707618977748    15.994914619570
         C            0.325020780252     0.000031483820    -0.036540977748    12.000000000000
         C            1.027175780252    -1.208273516180    -0.024975977748    12.000000000000
         C            1.027417780252     1.208219483820    -0.025205977748    12.000000000000
         C            2.422994780252    -1.207943516180     0.003977022252    12.000000000000
         C            2.423264780252     1.207722483820     0.003657022252    12.000000000000
         C            3.126711780252    -0.000150516180     0.023265022252    12.000000000000
         H            0.469403880252    -2.131419916180    -0.361339577748     1.007825032230
         H            0.461577780252     2.135408483820    -0.061783977748     1.007825032230
         H            2.965528780252    -2.152473516180     0.007863022252     1.007825032230
         H            2.965989780252     2.152158483820     0.007315022252     1.007825032230
         H            4.215409780252    -0.000227516180     0.044694022252     1.007825032230

  Basis Set: AUG-CC-PVTZ
    Blend: AUG-CC-PVTZ
  Basis Set: (AUG-CC-PVTZ AUX)
    Blend: AUG-CC-PVTZ-JKFIT
	 Reference Energy          =    -852.4307545781427962 [Eh]
	 Singles Energy            =      -0.0000000000000000 [Eh]
	 Same-Spin Energy          =      -0.5394456817895470 [Eh]
	 Opposite-Spin Energy      =      -1.5560980321092506 [Eh]
	 Correlation Energy        =      -2.0955437138987976 [Eh]
	 Total Energy              =    -854.5262982920415880 [Eh]

	 ================> DF-SCS-MP2 Energies <==================
	-----------------------------------------------------------
	 SCS Same-Spin Scale       =       0.3333333333333333 [-]
	 SCS Opposite-Spin Scale   =       1.2000000000000000 [-]
	 SCS Same-Spin Energy      =      -0.1798152272631823 [Eh]
	 SCS Opposite-Spin Energy  =      -1.8673176385311006 [Eh]
	 SCS Correlation Energy    =      -2.0471328657942829 [Eh]
	 SCS Total Energy          =    -854.4778874439371066 [Eh]
	-----------------------------------------------------------

  Dipole Moment: [D]
     X:     7.9684      Y:     0.0577      Z:    -0.2787     Total:     7.9735

*** Psi4 exiting successfully. Buy a developer a beer!
