                               Psi4 1.3.2 release

  ==> Input File <==

--------------------------------------------------------------------------
#psi4
#
memory 32 gb

molecule  {
-1 1
  S       -1.5500650    -0.0000770     0.0055040
  O       -1.8677260    -0.0040310     1.4568130
  O       -1.9173420     1.2548610    -0.7013450
  O       -1.9179590    -1.2504550    -0.7090990
  C        0.2577020     0.0000600    -0.0380210
  C        0.9598570    -1.2082450    -0.0264560
  C        0.9600990     1.2082480    -0.0266860
  C        2.3556760    -1.2079150     0.0024970
  C        2.3559460     1.2077510     0.0021770
  C        3.0593930    -0.0001220     0.0217850
  H        0.3939800    -2.1354100    -0.0629560
  H        0.3942590     2.1354370    -0.0632640
  H        2.8982100    -2.1524450     0.0063830
  H        2.8986710     2.1521870     0.0058350
  H        4.1549314    -0.0002395    -0.2567080
units angstrom
no_reorient  #important for SAPT in psi4, default
symmetry c1  #important for SAPT in psi4, default
}

set PROPERTIES_ORIGIN ["COM"]
properties('MP2/aug-cc-pvtz', properties = ['dipole'])
--------------------------------------------------------------------------

    Molecular point group: c1
  Charge       = -1
  Multiplicity = 1
  Basis Set: AUG-CC-PVTZ
    Blend: AUG-CC-PVTZ
  Basis Set: (AUG-CC-PVTZ AUX)
    Blend: AUG-CC-PVTZ-JKFIT

    Orbital Energies [Eh]
    ---------------------

    Doubly Occupied:

       1A    -92.016016     2A    -20.352896     3A    -20.352812
       4A    -20.351878     5A    -11.136597     6A    -11.130011
       7A    -11.129889     8A    -11.126033     9A    -11.121976
      10A    -11.121790    11A     -8.976725    12A     -6.662455
      13A     -6.661655    14A     -6.661562    15A     -1.271967
      16A     -1.128576    17A     -1.126570    18A     -1.037905
      19A     -0.905833    20A     -0.902212    21A     -0.731073
      22A     -0.713478    23A     -0.642508    24A     -0.578422
      25A     -0.521625    26A     -0.514284    27A     -0.494925
      28A     -0.474940    29A     -0.465699    30A     -0.459739
      31A     -0.409509    32A     -0.388724    33A     -0.380514
      34A     -0.333398    35A     -0.332656    36A     -0.300132
      37A     -0.292787    38A     -0.271974    39A     -0.250741
      40A     -0.225460    41A     -0.215167

  @DF-RHF Final Energy:  -852.43170172664520

   => Energetics <=

    Nuclear Repulsion Energy =            618.9561065667346611
    One-Electron Energy =               -2414.4293954593449598
    Two-Electron Energy =                 943.0415871659650975
    Total Energy =                       -852.4317017266452012
  Basis Set: (AUG-CC-PVTZ AUX)
    Blend: AUG-CC-PVTZ-RI
    Molecular point group: c1

    Geometry (in Angstrom), charge = -1, multiplicity = 1:

       Center              X                  Y                   Z               Mass
    ------------   -----------------  -----------------  -----------------  -----------------
         S           -1.482738101090    -0.000079459056     0.006984397147    31.972071174400
         O           -1.800399101090    -0.004033459056     1.458293397147    15.994914619570
         O           -1.850015101090     1.254858540944    -0.699864602853    15.994914619570
         O           -1.850632101090    -1.250457459056    -0.707618602853    15.994914619570
         C            0.325028898910     0.000057540944    -0.036540602853    12.000000000000
         C            1.027183898910    -1.208247459056    -0.024975602853    12.000000000000
         C            1.027425898910     1.208245540944    -0.025205602853    12.000000000000
         C            2.423002898910    -1.207917459056     0.003977397147    12.000000000000
         C            2.423272898910     1.207748540944     0.003657397147    12.000000000000
         C            3.126719898910    -0.000124459056     0.023265397147    12.000000000000
         H            0.461306898910    -2.135412459056    -0.061475602853     1.007825032230
         H            0.461585898910     2.135434540944    -0.061783602853     1.007825032230
         H            2.965536898910    -2.152447459056     0.007863397147     1.007825032230
         H            2.965997898910     2.152184540944     0.007315397147     1.007825032230
         H            4.222258298910    -0.000241959056    -0.255227602853     1.007825032230

  Basis Set: AUG-CC-PVTZ
    Blend: AUG-CC-PVTZ
  Basis Set: (AUG-CC-PVTZ AUX)
    Blend: AUG-CC-PVTZ-JKFIT
	 Reference Energy          =    -852.4317017266452012 [Eh]
	 Singles Energy            =      -0.0000000000000000 [Eh]
	 Same-Spin Energy          =      -0.5392837347462260 [Eh]
	 Opposite-Spin Energy      =      -1.5560126555054532 [Eh]
	 Correlation Energy        =      -2.0952963902516792 [Eh]
	 Total Energy              =    -854.5269981168968343 [Eh]

	 ================> DF-SCS-MP2 Energies <==================
	-----------------------------------------------------------
	 SCS Same-Spin Scale       =       0.3333333333333333 [-]
	 SCS Opposite-Spin Scale   =       1.2000000000000000 [-]
	 SCS Same-Spin Energy      =      -0.1797612449154087 [Eh]
	 SCS Opposite-Spin Energy  =      -1.8672151866065438 [Eh]
	 SCS Correlation Energy    =      -2.0469764315219523 [Eh]
	 SCS Total Energy          =    -854.4786781581670994 [Eh]
	-----------------------------------------------------------

  Dipole Moment: [D]
     X:     7.8434      Y:    -0.0014      Z:    -0.3047     Total:     7.8493

*** Psi4 exiting successfully. Buy a developer a beer!
