                               Psi4 1.3.2 release

  ==> Input File <==

--------------------------------------------------------------------------
#psi4
#
memory 32 gb

molecule  {
-1 1
  S       -1.5500650    -0.0000770     0.0055040
  O       -1.8677260    -0.0040310     1.4568130
  O       -1.9173420     1.2548610    -0.7013450
  O       -1.9179590    -1.2504550    -0.7090990
  C        0.2577020     0.0000600    -0.0380210
  C        0.9598570    -1.2082450    -0.0264560
  C        0.9632934     1.2082715     0.2232936
  C        2.3556760    -1.2079150     0.0024970
  C        2.3559460     1.2077510     0.0021770
  C        3.0593930    -0.0001220     0.0217850
  H        0.3939800    -2.1354100    -0.0629560
  H        0.3942590     2.1354370    -0.0632640
  H        2.8982100    -2.1524450     0.0063830
  H        2.8986710     2.1521870     0.0058350
  H        4.1480910    -0.0001990     0.0432140
units angstrom
no_reorient  #important for SAPT in psi4, default
symmetry c1  #important for SAPT in psi4, default
}

set PROPERTIES_ORIGIN ["COM"]
properties('MP2/aug-cc-pvtz', properties = ['dipole'])
--------------------------------------------------------------------------

    Molecular point group: c1
  Charge       = -1
  Multiplicity = 1
  Basis Set: AUG-CC-PVTZ
    Blend: AUG-CC-PVTZ
  Basis Set: (AUG-CC-PVTZ AUX)
    Blend: AUG-CC-PVTZ-JKFIT

    Orbital Energies [Eh]
    ---------------------

    Doubly Occupied:

       1A    -92.015764     2A    -20.352824     3A    -20.352550
       4A    -20.351583     5A    -11.133633     6A    -11.132559
       7A    -11.131433     8A    -11.130443     9A    -11.126686
      10A    -11.120943    11A     -8.976508    12A     -6.662246
      13A     -6.661423    14A     -6.661342    15A     -1.271692
      16A     -1.128294    17A     -1.126260    18A     -1.036077
      19A     -0.905555    20A     -0.899574    21A     -0.732033
      22A     -0.710556    23A     -0.640697    24A     -0.579601
      25A     -0.522248    26A     -0.510136    27A     -0.493656
      28A     -0.470628    29A     -0.465090    30A     -0.458775
      31A     -0.409951    32A     -0.389919    33A     -0.370621
      34A     -0.333294    35A     -0.332523    36A     -0.300225
      37A     -0.292380    38A     -0.272213    39A     -0.250480
      40A     -0.225505    41A     -0.213051

  @DF-RHF Final Energy:  -852.41685551697401

   => Energetics <=

    Nuclear Repulsion Energy =            618.4015305752908489
    One-Electron Energy =               -2413.3348319324018121
    Two-Electron Energy =                 942.5164458401368393
    Total Energy =                       -852.4168555169740102
  Basis Set: (AUG-CC-PVTZ AUX)
    Blend: AUG-CC-PVTZ-RI
    Molecular point group: c1

    Geometry (in Angstrom), charge = -1, multiplicity = 1:

       Center              X                  Y                   Z               Mass
    ------------   -----------------  -----------------  -----------------  -----------------
         S           -1.482938353871    -0.000081515268    -0.014048147358    31.972071174400
         O           -1.800599353871    -0.004035515268     1.437260852642    15.994914619570
         O           -1.850215353871     1.254856484732    -0.720897147358    15.994914619570
         O           -1.850832353871    -1.250459515268    -0.728651147358    15.994914619570
         C            0.324828646129     0.000055484732    -0.057573147358    12.000000000000
         C            1.026983646129    -1.208249515268    -0.046008147358    12.000000000000
         C            1.030420046129     1.208266984732     0.203741452642    12.000000000000
         C            2.422802646129    -1.207919515268    -0.017055147358    12.000000000000
         C            2.423072646129     1.207746484732    -0.017375147358    12.000000000000
         C            3.126519646129    -0.000126515268     0.002232852642    12.000000000000
         H            0.461106646129    -2.135414515268    -0.082508147358     1.007825032230
         H            0.461385646129     2.135432484732    -0.082816147358     1.007825032230
         H            2.965336646129    -2.152449515268    -0.013169147358     1.007825032230
         H            2.965797646129     2.152182484732    -0.013717147358     1.007825032230
         H            4.215217646129    -0.000203515268     0.023661852642     1.007825032230

  Basis Set: AUG-CC-PVTZ
    Blend: AUG-CC-PVTZ
  Basis Set: (AUG-CC-PVTZ AUX)
    Blend: AUG-CC-PVTZ-JKFIT
	 Reference Energy          =    -852.4168555169740102 [Eh]
	 Singles Energy            =      -0.0000000000000000 [Eh]
	 Same-Spin Energy          =      -0.5401342863349905 [Eh]
	 Opposite-Spin Energy      =      -1.5584701619747243 [Eh]
	 Correlation Energy        =      -2.0986044483097146 [Eh]
	 Total Energy              =    -854.5154599652837533 [Eh]

	 ================> DF-SCS-MP2 Energies <==================
	-----------------------------------------------------------
	 SCS Same-Spin Scale       =       0.3333333333333333 [-]
	 SCS Opposite-Spin Scale   =       1.2000000000000000 [-]
	 SCS Same-Spin Energy      =      -0.1800447621116635 [Eh]
	 SCS Opposite-Spin Energy  =      -1.8701641943696692 [Eh]
	 SCS Correlation Energy    =      -2.0502089564813328 [Eh]
	 SCS Total Energy          =    -854.4670644734553662 [Eh]
	-----------------------------------------------------------

  Dipole Moment: [D]
     X:     7.9965      Y:    -0.1230      Z:    -0.1306     Total:     7.9985

*** Psi4 exiting successfully. Buy a developer a beer!
