                               Psi4 1.3.2 release

  ==> Input File <==

--------------------------------------------------------------------------
#psi4
#
memory 32 gb

molecule  {
-1 1
  S       -1.5500650    -0.0000770     0.0055040
  O       -1.8677260    -0.0040310     1.4568130
  O       -1.9173420     1.2548610    -0.7013450
  O       -1.9179590    -1.2504550    -0.7090990
  C        0.2577020     0.0000600    -0.0380210
  C        0.9598570    -1.2082450    -0.0264560
  C        0.9600990     1.2082480    -0.0266860
  C        2.3556760    -1.2079150     0.0024970
  C        2.3559460     1.2077510     0.0021770
  C        3.0593930    -0.0001220     0.0217850
  H        0.3939800    -2.1354100    -0.0629560
  H        0.3942590     2.1354370    -0.0632640
  H        2.8982100    -2.1524450     0.0063830
  H        2.8986710     2.1521870     0.0058350
  H        4.1492311    -0.0002057    -0.0067730
units angstrom
no_reorient  #important for SAPT in psi4, default
symmetry c1  #important for SAPT in psi4, default
}

set PROPERTIES_ORIGIN ["COM"]
properties('MP2/aug-cc-pvtz', properties = ['dipole'])
--------------------------------------------------------------------------

    Molecular point group: c1
  Charge       = -1
  Multiplicity = 1
  Basis Set: AUG-CC-PVTZ
    Blend: AUG-CC-PVTZ
  Basis Set: (AUG-CC-PVTZ AUX)
    Blend: AUG-CC-PVTZ-JKFIT

    Orbital Energies [Eh]
    ---------------------

    Doubly Occupied:

       1A    -92.015454     2A    -20.352422     3A    -20.352337
       4A    -20.351285     5A    -11.133059     6A    -11.129150
       7A    -11.128955     8A    -11.125016     9A    -11.121593
      10A    -11.121374    11A     -8.976173    12A     -6.661900
      13A     -6.661105    14A     -6.661013    15A     -1.271462
      16A     -1.128110    17A     -1.126056    18A     -1.037547
      19A     -0.906581    20A     -0.901657    21A     -0.732923
      22A     -0.713004    23A     -0.642159    24A     -0.582596
      25A     -0.523389    26A     -0.513793    27A     -0.495966
      28A     -0.474420    29A     -0.465155    30A     -0.459272
      31A     -0.409805    32A     -0.392320    33A     -0.379988
      34A     -0.332918    35A     -0.332487    36A     -0.300072
      37A     -0.292340    38A     -0.271428    39A     -0.250252
      40A     -0.224987    41A     -0.215153

  @DF-RHF Final Energy:  -852.43766888457947

   => Energetics <=

    Nuclear Repulsion Energy =            619.1063517076524931
    One-Electron Energy =               -2414.7546895144455448
    Two-Electron Energy =                 943.2106689222135856
    Total Energy =                       -852.4376688845794661
  Basis Set: (AUG-CC-PVTZ AUX)
    Blend: AUG-CC-PVTZ-RI
    Molecular point group: c1

    Geometry (in Angstrom), charge = -1, multiplicity = 1:

       Center              X                  Y                   Z               Mass
    ------------   -----------------  -----------------  -----------------  -----------------
         S           -1.482701508392    -0.000079676033     0.005379955980    31.972071174400
         O           -1.800362508392    -0.004033676033     1.456688955980    15.994914619570
         O           -1.849978508392     1.254858323967    -0.701469044020    15.994914619570
         O           -1.850595508392    -1.250457676033    -0.709223044020    15.994914619570
         C            0.325065491608     0.000057323967    -0.038145044020    12.000000000000
         C            1.027220491608    -1.208247676033    -0.026580044020    12.000000000000
         C            1.027462491608     1.208245323967    -0.026810044020    12.000000000000
         C            2.423039491608    -1.207917676033     0.002372955980    12.000000000000
         C            2.423309491608     1.207748323967     0.002052955980    12.000000000000
         C            3.126756491608    -0.000124676033     0.021660955980    12.000000000000
         H            0.461343491608    -2.135412676033    -0.063080044020     1.007825032230
         H            0.461622491608     2.135434323967    -0.063388044020     1.007825032230
         H            2.965573491608    -2.152447676033     0.006258955980     1.007825032230
         H            2.966034491608     2.152184323967     0.005710955980     1.007825032230
         H            4.216594591608    -0.000208376033    -0.006897044020     1.007825032230

  Basis Set: AUG-CC-PVTZ
    Blend: AUG-CC-PVTZ
  Basis Set: (AUG-CC-PVTZ AUX)
    Blend: AUG-CC-PVTZ-JKFIT
	 Reference Energy          =    -852.4376688845794661 [Eh]
	 Singles Energy            =      -0.0000000000000000 [Eh]
	 Same-Spin Energy          =      -0.5389826913475304 [Eh]
	 Opposite-Spin Energy      =      -1.5551749129304717 [Eh]
	 Correlation Energy        =      -2.0941576042780019 [Eh]
	 Total Energy              =    -854.5318264888575186 [Eh]

	 ================> DF-SCS-MP2 Energies <==================
	-----------------------------------------------------------
	 SCS Same-Spin Scale       =       0.3333333333333333 [-]
	 SCS Opposite-Spin Scale   =       1.2000000000000000 [-]
	 SCS Same-Spin Energy      =      -0.1796608971158435 [Eh]
	 SCS Opposite-Spin Energy  =      -1.8662098955165660 [Eh]
	 SCS Correlation Energy    =      -2.0458707926324093 [Eh]
	 SCS Total Energy          =    -854.4835396772118656 [Eh]
	-----------------------------------------------------------

  Dipole Moment: [D]
     X:     7.9491      Y:    -0.0014      Z:    -0.1444     Total:     7.9504

*** Psi4 exiting successfully. Buy a developer a beer!
