                               Psi4 1.3.2 release

  ==> Input File <==

--------------------------------------------------------------------------
#psi4
#
memory 32 gb

molecule  {
-1 1
  S       -1.5500650    -0.0000770     0.0055040
  O       -1.8677260    -0.0040310     1.4568130
  O       -1.9173420     1.2548610    -0.7013450
  O       -1.9179590    -1.2504550    -0.7090990
  C        0.2577020     0.0000600    -0.0380210
  C        0.9598570    -1.2082450    -0.0264560
  C        0.9600990     1.2082480    -0.0266860
  C        2.3556760    -1.2079150     0.0024970
  C        2.3559460     1.2077510     0.0021770
  C        3.0593930    -0.0001220     0.0217850
  H        0.3939800    -2.1354100    -0.0629560
  H        0.3942590     2.1354370    -0.0632640
  H        2.9041213    -2.1507413    -0.2935539
  H        2.8986710     2.1521870     0.0058350
  H        4.1480910    -0.0001990     0.0432140
units angstrom
no_reorient  #important for SAPT in psi4, default
symmetry c1  #important for SAPT in psi4, default
}

set PROPERTIES_ORIGIN ["COM"]
properties('MP2/aug-cc-pvtz', properties = ['dipole'])
--------------------------------------------------------------------------

    Molecular point group: c1
  Charge       = -1
  Multiplicity = 1
  Basis Set: AUG-CC-PVTZ
    Blend: AUG-CC-PVTZ
  Basis Set: (AUG-CC-PVTZ AUX)
    Blend: AUG-CC-PVTZ-JKFIT

    Orbital Energies [Eh]
    ---------------------

    Doubly Occupied:

       1A    -92.015717     2A    -20.352664     3A    -20.352636
       4A    -20.351495     5A    -11.134099     6A    -11.132548
       7A    -11.129533     8A    -11.125414     9A    -11.122590
      10A    -11.122254    11A     -8.976431    12A     -6.662158
      13A     -6.661362    14A     -6.661271    15A     -1.271714
      16A     -1.128382    17A     -1.126278    18A     -1.037956
      19A     -0.906939    20A     -0.901080    21A     -0.733231
      22A     -0.711529    23A     -0.640303    24A     -0.582422
      25A     -0.522067    26A     -0.514284    27A     -0.494523
      28A     -0.471578    29A     -0.465041    30A     -0.459532
      31A     -0.411594    32A     -0.393757    33A     -0.375344
      34A     -0.333148    35A     -0.332647    36A     -0.300139
      37A     -0.292596    38A     -0.271697    39A     -0.250501
      40A     -0.224866    41A     -0.215552

  @DF-RHF Final Energy:  -852.43165874734188

   => Energetics <=

    Nuclear Repulsion Energy =            618.9560104736036692
    One-Electron Energy =               -2414.4375912672135200
    Two-Electron Energy =                 943.0499220462678522
    Total Energy =                       -852.4316587473418849
  Basis Set: (AUG-CC-PVTZ AUX)
    Blend: AUG-CC-PVTZ-RI
    Molecular point group: c1

    Geometry (in Angstrom), charge = -1, multiplicity = 1:

       Center              X                  Y                   Z               Mass
    ------------   -----------------  -----------------  -----------------  -----------------
         S           -1.482732136794    -0.000090655832     0.006984492797    31.972071174400
         O           -1.800393136794    -0.004044655832     1.458293492797    15.994914619570
         O           -1.850009136794     1.254847344168    -0.699864507203    15.994914619570
         O           -1.850626136794    -1.250468655832    -0.707618507203    15.994914619570
         C            0.325034863206     0.000046344168    -0.036540507203    12.000000000000
         C            1.027189863206    -1.208258655832    -0.024975507203    12.000000000000
         C            1.027431863206     1.208234344168    -0.025205507203    12.000000000000
         C            2.423008863206    -1.207928655832     0.003977492797    12.000000000000
         C            2.423278863206     1.207737344168     0.003657492797    12.000000000000
         C            3.126725863206    -0.000135655832     0.023265492797    12.000000000000
         H            0.461312863206    -2.135423655832    -0.061475507203     1.007825032230
         H            0.461591863206     2.135423344168    -0.061783507203     1.007825032230
         H            2.971454163206    -2.150754955832    -0.292073407203     1.007825032230
         H            2.966003863206     2.152173344168     0.007315492797     1.007825032230
         H            4.215423863206    -0.000212655832     0.044694492797     1.007825032230

  Basis Set: AUG-CC-PVTZ
    Blend: AUG-CC-PVTZ
  Basis Set: (AUG-CC-PVTZ AUX)
    Blend: AUG-CC-PVTZ-JKFIT
	 Reference Energy          =    -852.4316587473418849 [Eh]
	 Singles Energy            =      -0.0000000000000000 [Eh]
	 Same-Spin Energy          =      -0.5392694802699800 [Eh]
	 Opposite-Spin Energy      =      -1.5559654025308309 [Eh]
	 Correlation Energy        =      -2.0952348828008107 [Eh]
	 Total Energy              =    -854.5268936301426947 [Eh]

	 ================> DF-SCS-MP2 Energies <==================
	-----------------------------------------------------------
	 SCS Same-Spin Scale       =       0.3333333333333333 [-]
	 SCS Opposite-Spin Scale   =       1.2000000000000000 [-]
	 SCS Same-Spin Energy      =      -0.1797564934233267 [Eh]
	 SCS Opposite-Spin Energy  =      -1.8671584830369969 [Eh]
	 SCS Correlation Energy    =      -2.0469149764603234 [Eh]
	 SCS Total Energy          =    -854.4785737238022421 [Eh]
	-----------------------------------------------------------

  Dipole Moment: [D]
     X:     7.9026      Y:     0.0824      Z:    -0.2965     Total:     7.9086

*** Psi4 exiting successfully. Buy a developer a beer!
