                               Psi4 1.3.2 release

  ==> Input File <==

--------------------------------------------------------------------------
#psi4
#
memory 32 gb

molecule  {
-1 1
  S       -1.5500650    -0.0000770     0.0055040
  O       -1.8677260    -0.0040310     1.4568130
  O       -1.9173420     1.2548610    -0.7013450
  O       -1.9179590    -1.2504550    -0.7090990
  C        0.2577020     0.0000600    -0.0380210
  C        0.9598570    -1.2082450    -0.0264560
  C        0.9620156     1.2082621     0.1233018
  C        2.3556760    -1.2079150     0.0024970
  C        2.3559460     1.2077510     0.0021770
  C        3.0593930    -0.0001220     0.0217850
  H        0.3939800    -2.1354100    -0.0629560
  H        0.3942590     2.1354370    -0.0632640
  H        2.8982100    -2.1524450     0.0063830
  H        2.8986710     2.1521870     0.0058350
  H        4.1480910    -0.0001990     0.0432140
units angstrom
no_reorient  #important for SAPT in psi4, default
symmetry c1  #important for SAPT in psi4, default
}

set PROPERTIES_ORIGIN ["COM"]
properties('MP2/aug-cc-pvtz', properties = ['dipole'])
--------------------------------------------------------------------------

    Molecular point group: c1
  Charge       = -1
  Multiplicity = 1
  Basis Set: AUG-CC-PVTZ
    Blend: AUG-CC-PVTZ
  Basis Set: (AUG-CC-PVTZ AUX)
    Blend: AUG-CC-PVTZ-JKFIT

    Orbital Energies [Eh]
    ---------------------

    Doubly Occupied:

       1A    -92.015562     2A    -20.352576     3A    -20.352423
       4A    -20.351354     5A    -11.132804     6A    -11.130402
       7A    -11.130030     8A    -11.127020     9A    -11.123387
      10A    -11.121251    11A     -8.976293    12A     -6.662025
      13A     -6.661217    14A     -6.661131    15A     -1.271527
      16A     -1.128163    17A     -1.126104    18A     -1.037105
      19A     -0.906030    20A     -0.901178    21A     -0.732746
      22A     -0.711868    23A     -0.641556    24A     -0.581353
      25A     -0.522809    26A     -0.512512    27A     -0.494844
      28A     -0.472986    29A     -0.465133    30A     -0.459072
      31A     -0.410531    32A     -0.391038    33A     -0.376113
      34A     -0.333063    35A     -0.332555    36A     -0.300129
      37A     -0.292367    38A     -0.271757    39A     -0.250326
      40A     -0.225417    41A     -0.214246

  @DF-RHF Final Energy:  -852.43018169109621

   => Energetics <=

    Nuclear Repulsion Energy =            618.8614545326834104
    One-Electron Energy =               -2414.2632681626873818
    Two-Electron Energy =                 942.9716319389077626
    Total Energy =                       -852.4301816910962089
  Basis Set: (AUG-CC-PVTZ AUX)
    Blend: AUG-CC-PVTZ-RI
    Molecular point group: c1

    Geometry (in Angstrom), charge = -1, multiplicity = 1:

       Center              X                  Y                   Z               Mass
    ------------   -----------------  -----------------  -----------------  -----------------
         S           -1.482840685104    -0.000080796778    -0.006405264374    31.972071174400
         O           -1.800501685104    -0.004034796778     1.444903735626    15.994914619570
         O           -1.850117685104     1.254857203222    -0.713254264374    15.994914619570
         O           -1.850734685104    -1.250458796778    -0.721008264374    15.994914619570
         C            0.324926314896     0.000056203222    -0.049930264374    12.000000000000
         C            1.027081314896    -1.208248796778    -0.038365264374    12.000000000000
         C            1.029239914896     1.208258303222     0.111392535626    12.000000000000
         C            2.422900314896    -1.207918796778    -0.009412264374    12.000000000000
         C            2.423170314896     1.207747203222    -0.009732264374    12.000000000000
         C            3.126617314896    -0.000125796778     0.009875735626    12.000000000000
         H            0.461204314896    -2.135413796778    -0.074865264374     1.007825032230
         H            0.461483314896     2.135433203222    -0.075173264374     1.007825032230
         H            2.965434314896    -2.152448796778    -0.005526264374     1.007825032230
         H            2.965895314896     2.152183203222    -0.006074264374     1.007825032230
         H            4.215315314896    -0.000202796778     0.031304735626     1.007825032230

  Basis Set: AUG-CC-PVTZ
    Blend: AUG-CC-PVTZ
  Basis Set: (AUG-CC-PVTZ AUX)
    Blend: AUG-CC-PVTZ-JKFIT
	 Reference Energy          =    -852.4301816910962089 [Eh]
	 Singles Energy            =      -0.0000000000000000 [Eh]
	 Same-Spin Energy          =      -0.5394226349460661 [Eh]
	 Opposite-Spin Energy      =      -1.5564133555458251 [Eh]
	 Correlation Energy        =      -2.0958359904918913 [Eh]
	 Total Energy              =    -854.5260176815880868 [Eh]

	 ================> DF-SCS-MP2 Energies <==================
	-----------------------------------------------------------
	 SCS Same-Spin Scale       =       0.3333333333333333 [-]
	 SCS Opposite-Spin Scale   =       1.2000000000000000 [-]
	 SCS Same-Spin Energy      =      -0.1798075449820220 [Eh]
	 SCS Opposite-Spin Energy  =      -1.8676960266549900 [Eh]
	 SCS Correlation Energy    =      -2.0475035716370122 [Eh]
	 SCS Total Energy          =    -854.4776852627331891 [Eh]
	-----------------------------------------------------------

  Dipole Moment: [D]
     X:     7.9717      Y:    -0.0496      Z:    -0.1202     Total:     7.9727

*** Psi4 exiting successfully. Buy a developer a beer!
