                               Psi4 1.3.2 release

  ==> Input File <==

--------------------------------------------------------------------------
#psi4
#
memory 32 gb

molecule  {
-1 1
  S       -1.5500650    -0.0000770     0.0055040
  O       -1.8677260    -0.0040310     1.4568130
  O       -1.9173420     1.2548610    -0.7013450
  O       -1.9179590    -1.2504550    -0.7090990
  C        0.2577020     0.0000600    -0.0380210
  C        0.9598570    -1.2082450    -0.0264560
  C        0.9600990     1.2082480    -0.0266860
  C        2.3556760    -1.2079150     0.0024970
  C        2.3559460     1.2077510     0.0021770
  C        3.0593930    -0.0001220     0.0217850
  H        0.3939800    -2.1354100    -0.0629560
  H        0.3942590     2.1354370    -0.0632640
  H        2.8991952    -2.1521611    -0.0436065
  H        2.8986710     2.1521870     0.0058350
  H        4.1480910    -0.0001990     0.0432140
units angstrom
no_reorient  #important for SAPT in psi4, default
symmetry c1  #important for SAPT in psi4, default
}

set PROPERTIES_ORIGIN ["COM"]
properties('MP2/aug-cc-pvtz', properties = ['dipole'])
--------------------------------------------------------------------------

    Molecular point group: c1
  Charge       = -1
  Multiplicity = 1
  Basis Set: AUG-CC-PVTZ
    Blend: AUG-CC-PVTZ
  Basis Set: (AUG-CC-PVTZ AUX)
    Blend: AUG-CC-PVTZ-JKFIT

    Orbital Energies [Eh]
    ---------------------

    Doubly Occupied:

       1A    -92.015437     2A    -20.352408     3A    -20.352333
       4A    -20.351255     5A    -11.132991     6A    -11.129193
       7A    -11.128976     8A    -11.124995     9A    -11.121606
      10A    -11.121387    11A     -8.976157    12A     -6.661882
      13A     -6.661088    14A     -6.660997    15A     -1.271448
      16A     -1.128102    17A     -1.126036    18A     -1.037549
      19A     -0.906616    20A     -0.901623    21A     -0.732995
      22A     -0.712939    23A     -0.642084    24A     -0.582733
      25A     -0.523396    26A     -0.513790    27A     -0.495942
      28A     -0.474336    29A     -0.465101    30A     -0.459261
      31A     -0.410343    32A     -0.392014    33A     -0.379814
      34A     -0.332898    35A     -0.332509    36A     -0.300071
      37A     -0.292331    38A     -0.271412    39A     -0.250237
      40A     -0.224986    41A     -0.215161

  @DF-RHF Final Energy:  -852.43766501287325

   => Energetics <=

    Nuclear Repulsion Energy =            619.1066652718935757
    One-Electron Energy =               -2414.7557955092829616
    Two-Electron Energy =                 943.2114652245160187
    Total Energy =                       -852.4376650128732535
  Basis Set: (AUG-CC-PVTZ AUX)
    Blend: AUG-CC-PVTZ-RI
    Molecular point group: c1

    Geometry (in Angstrom), charge = -1, multiplicity = 1:

       Center              X                  Y                   Z               Mass
    ------------   -----------------  -----------------  -----------------  -----------------
         S           -1.482700514022    -0.000081541520     0.005379972029    31.972071174400
         O           -1.800361514022    -0.004035541520     1.456688972029    15.994914619570
         O           -1.849977514022     1.254856458480    -0.701469027971    15.994914619570
         O           -1.850594514022    -1.250459541520    -0.709223027971    15.994914619570
         C            0.325066485978     0.000055458480    -0.038145027971    12.000000000000
         C            1.027221485978    -1.208249541520    -0.026580027971    12.000000000000
         C            1.027463485978     1.208243458480    -0.026810027971    12.000000000000
         C            2.423040485978    -1.207919541520     0.002372972029    12.000000000000
         C            2.423310485978     1.207746458480     0.002052972029    12.000000000000
         C            3.126757485978    -0.000126541520     0.021660972029    12.000000000000
         H            0.461344485978    -2.135414541520    -0.063080027971     1.007825032230
         H            0.461623485978     2.135432458480    -0.063388027971     1.007825032230
         H            2.966559685978    -2.152165641520    -0.043730527971     1.007825032230
         H            2.966035485978     2.152182458480     0.005710972029     1.007825032230
         H            4.215455485978    -0.000203541520     0.043089972029     1.007825032230

  Basis Set: AUG-CC-PVTZ
    Blend: AUG-CC-PVTZ
  Basis Set: (AUG-CC-PVTZ AUX)
    Blend: AUG-CC-PVTZ-JKFIT
	 Reference Energy          =    -852.4376650128732535 [Eh]
	 Singles Energy            =      -0.0000000000000000 [Eh]
	 Same-Spin Energy          =      -0.5389831175979585 [Eh]
	 Opposite-Spin Energy      =      -1.5551797162487284 [Eh]
	 Correlation Energy        =      -2.0941628338466867 [Eh]
	 Total Energy              =    -854.5318278467199207 [Eh]

	 ================> DF-SCS-MP2 Energies <==================
	-----------------------------------------------------------
	 SCS Same-Spin Scale       =       0.3333333333333333 [-]
	 SCS Opposite-Spin Scale   =       1.2000000000000000 [-]
	 SCS Same-Spin Energy      =      -0.1796610391993195 [Eh]
	 SCS Opposite-Spin Energy  =      -1.8662156594984740 [Eh]
	 SCS Correlation Energy    =      -2.0458766986977936 [Eh]
	 SCS Total Energy          =    -854.4835417115710925 [Eh]
	-----------------------------------------------------------

  Dipole Moment: [D]
     X:     7.9517      Y:     0.0018      Z:    -0.1431     Total:     7.9530

*** Psi4 exiting successfully. Buy a developer a beer!
