                               Psi4 1.3.2 release

  ==> Input File <==

--------------------------------------------------------------------------
#psi4
#
memory 32 gb

molecule  {
-1 1
  S       -1.5500650    -0.0000770     0.0055040
  O       -1.8677260    -0.0040310     1.4568130
  O       -1.9173420     1.2548610    -0.7013450
  O       -1.9179590    -1.2504550    -0.7090990
  C        0.2577020     0.0000600    -0.0380210
  C        0.9598570    -1.2082450    -0.0264560
  C        0.9600990     1.2082480    -0.0266860
  C        2.3556760    -1.2079150     0.0024970
  C        2.3559460     1.2077510     0.0021770
  C        3.0593930    -0.0001220     0.0217850
  H        0.3939800    -2.1354100    -0.0629560
  H        0.3942590     2.1354370    -0.0632640
  H        2.8982100    -2.1524450     0.0063830
  H        2.8986710     2.1521870     0.0058350
  H        4.1480910    -0.0001990     0.0432140
units angstrom
no_reorient  #important for SAPT in psi4, default
symmetry c1  #important for SAPT in psi4, default
}

set PROPERTIES_ORIGIN ["COM"]
properties('MP2/aug-cc-pvtz', properties = ['dipole'])
--------------------------------------------------------------------------

    Molecular point group: c1
  Charge       = -1
  Multiplicity = 1
  Basis Set: AUG-CC-PVTZ
    Blend: AUG-CC-PVTZ
  Basis Set: (AUG-CC-PVTZ AUX)
    Blend: AUG-CC-PVTZ-JKFIT

    Orbital Energies [Eh]
    ---------------------

    Doubly Occupied:

       1A    -92.015434     2A    -20.352408     3A    -20.352323
       4A    -20.351254     5A    -11.132944     6A    -11.129121
       7A    -11.128921     8A    -11.124984     9A    -11.121581
      10A    -11.121360    11A     -8.976154    12A     -6.661880
      13A     -6.661085    14A     -6.660994    15A     -1.271445
      16A     -1.128097    17A     -1.126036    18A     -1.037535
      19A     -0.906606    20A     -0.901640    21A     -0.732989
      22A     -0.712989    23A     -0.642148    24A     -0.582741
      25A     -0.523450    26A     -0.513776    27A     -0.495990
      28A     -0.474403    29A     -0.465125    30A     -0.459256
      31A     -0.410190    32A     -0.392036    33A     -0.379972
      34A     -0.332899    35A     -0.332516    36A     -0.300088
      37A     -0.292328    38A     -0.271411    39A     -0.250233
      40A     -0.224972    41A     -0.215137

  @DF-RHF Final Energy:  -852.43782057210080

   => Energetics <=

    Nuclear Repulsion Energy =            619.1116492049845874
    One-Electron Energy =               -2414.7660391274539506
    Two-Electron Energy =                 943.2165693503685588
    Total Energy =                       -852.4378205721008044
  Basis Set: (AUG-CC-PVTZ AUX)
    Blend: AUG-CC-PVTZ-RI
    Molecular point group: c1

    Geometry (in Angstrom), charge = -1, multiplicity = 1:

       Center              X                  Y                   Z               Mass
    ------------   -----------------  -----------------  -----------------  -----------------
         S           -1.482694189596    -0.000079719043     0.005059067747    31.972071174400
         O           -1.800355189596    -0.004033719043     1.456368067747    15.994914619570
         O           -1.849971189596     1.254858280957    -0.701789932253    15.994914619570
         O           -1.850588189596    -1.250457719043    -0.709543932253    15.994914619570
         C            0.325072810404     0.000057280957    -0.038465932253    12.000000000000
         C            1.027227810404    -1.208247719043    -0.026900932253    12.000000000000
         C            1.027469810404     1.208245280957    -0.027130932253    12.000000000000
         C            2.423046810404    -1.207917719043     0.002052067747    12.000000000000
         C            2.423316810404     1.207748280957     0.001732067747    12.000000000000
         C            3.126763810404    -0.000124719043     0.021340067747    12.000000000000
         H            0.461350810404    -2.135412719043    -0.063400932253     1.007825032230
         H            0.461629810404     2.135434280957    -0.063708932253     1.007825032230
         H            2.965580810404    -2.152447719043     0.005938067747     1.007825032230
         H            2.966041810404     2.152184280957     0.005390067747     1.007825032230
         H            4.215461810404    -0.000201719043     0.042769067747     1.007825032230

  Basis Set: AUG-CC-PVTZ
    Blend: AUG-CC-PVTZ
  Basis Set: (AUG-CC-PVTZ AUX)
    Blend: AUG-CC-PVTZ-JKFIT
	 Reference Energy          =    -852.4378205721008044 [Eh]
	 Singles Energy            =      -0.0000000000000000 [Eh]
	 Same-Spin Energy          =      -0.5389733393728297 [Eh]
	 Opposite-Spin Energy      =      -1.5551528331153384 [Eh]
	 Correlation Energy        =      -2.0941261724881679 [Eh]
	 Total Energy              =    -854.5319467445889359 [Eh]

	 ================> DF-SCS-MP2 Energies <==================
	-----------------------------------------------------------
	 SCS Same-Spin Scale       =       0.3333333333333333 [-]
	 SCS Opposite-Spin Scale   =       1.2000000000000000 [-]
	 SCS Same-Spin Energy      =      -0.1796577797909432 [Eh]
	 SCS Opposite-Spin Energy  =      -1.8661833997384059 [Eh]
	 SCS Correlation Energy    =      -2.0458411795293490 [Eh]
	 SCS Total Energy          =    -854.4836617516301658 [Eh]
	-----------------------------------------------------------

  Dipole Moment: [D]
     X:     7.9521      Y:    -0.0014      Z:    -0.1110     Total:     7.9529

*** Psi4 exiting successfully. Buy a developer a beer!
