                               Psi4 1.3.2 release

  ==> Input File <==

--------------------------------------------------------------------------
#psi4
#
memory 32 gb

molecule  {
-1 1
  S       -1.5500650    -0.0000770     0.0055040
  O       -1.8677260    -0.0040310     1.4568130
  O       -1.9173420     1.2548610    -0.7013450
  O       -1.9179590    -1.2504550    -0.7090990
  C        0.2577020     0.0000600    -0.0380210
  C        0.9598570    -1.2082450    -0.0264560
  C        0.9600990     1.2082480    -0.0266860
  C        2.3556760    -1.2079150     0.0024970
  C        2.3559460     1.2077510     0.0021770
  C        3.0593930    -0.0001220     0.0217850
  H        0.3939800    -2.1354100    -0.0629560
  H        0.3942590     2.1354370    -0.0632640
  H        2.8982100    -2.1524450     0.0063830
  H        2.8986710     2.1521870     0.0058350
  H        4.1503711    -0.0002125    -0.0567600
units angstrom
no_reorient  #important for SAPT in psi4, default
symmetry c1  #important for SAPT in psi4, default
}

set PROPERTIES_ORIGIN ["COM"]
properties('MP2/aug-cc-pvtz', properties = ['dipole'])
--------------------------------------------------------------------------

    Molecular point group: c1
  Charge       = -1
  Multiplicity = 1
  Basis Set: AUG-CC-PVTZ
    Blend: AUG-CC-PVTZ
  Basis Set: (AUG-CC-PVTZ AUX)
    Blend: AUG-CC-PVTZ-JKFIT

    Orbital Energies [Eh]
    ---------------------

    Doubly Occupied:

       1A    -92.015506     2A    -20.352462     3A    -20.352378
       4A    -20.351344     5A    -11.133373     6A    -11.129226
       7A    -11.129041     8A    -11.125106     9A    -11.121625
      10A    -11.121409    11A     -8.976223    12A     -6.661950
      13A     -6.661155    14A     -6.661063    15A     -1.271507
      16A     -1.128151    17A     -1.126104    18A     -1.037577
      19A     -0.906507    20A     -0.901705    21A     -0.732740
      22A     -0.713045    23A     -0.642187    24A     -0.582190
      25A     -0.523226    26A     -0.513835    27A     -0.495885
      28A     -0.474465    29A     -0.465212    30A     -0.459313
      31A     -0.409536    32A     -0.392265    33A     -0.380033
      34A     -0.332963    35A     -0.332480    36A     -0.300065
      37A     -0.292377    38A     -0.271477    39A     -0.250297
      40A     -0.225028    41A     -0.215162

  @DF-RHF Final Energy:  -852.43720780047795

   => Energetics <=

    Nuclear Repulsion Energy =            619.0924417099229231
    One-Electron Energy =               -2414.7249166212463933
    Two-Electron Energy =                 943.1952671108455206
    Total Energy =                       -852.4372078004779496
  Basis Set: (AUG-CC-PVTZ AUX)
    Blend: AUG-CC-PVTZ-RI
    Molecular point group: c1

    Geometry (in Angstrom), charge = -1, multiplicity = 1:

       Center              X                  Y                   Z               Mass
    ------------   -----------------  -----------------  -----------------  -----------------
         S           -1.482708826547    -0.000079632381     0.005700844214    31.972071174400
         O           -1.800369826547    -0.004033632381     1.457009844214    15.994914619570
         O           -1.849985826547     1.254858367619    -0.701148155786    15.994914619570
         O           -1.850602826547    -1.250457632381    -0.708902155786    15.994914619570
         C            0.325058173453     0.000057367619    -0.037824155786    12.000000000000
         C            1.027213173453    -1.208247632381    -0.026259155786    12.000000000000
         C            1.027455173453     1.208245367619    -0.026489155786    12.000000000000
         C            2.423032173453    -1.207917632381     0.002693844214    12.000000000000
         C            2.423302173453     1.207748367619     0.002373844214    12.000000000000
         C            3.126749173453    -0.000124632381     0.021981844214    12.000000000000
         H            0.461336173453    -2.135412632381    -0.062759155786     1.007825032230
         H            0.461615173453     2.135434367619    -0.063067155786     1.007825032230
         H            2.965566173453    -2.152447632381     0.006579844214     1.007825032230
         H            2.966027173453     2.152184367619     0.006031844214     1.007825032230
         H            4.217727273453    -0.000215132381    -0.056563155786     1.007825032230

  Basis Set: AUG-CC-PVTZ
    Blend: AUG-CC-PVTZ
  Basis Set: (AUG-CC-PVTZ AUX)
    Blend: AUG-CC-PVTZ-JKFIT
	 Reference Energy          =    -852.4372078004779496 [Eh]
	 Singles Energy            =      -0.0000000000000000 [Eh]
	 Same-Spin Energy          =      -0.5390097765786985 [Eh]
	 Opposite-Spin Energy      =      -1.5552446214301818 [Eh]
	 Correlation Energy        =      -2.0942543980088804 [Eh]
	 Total Energy              =    -854.5314621984867927 [Eh]

	 ================> DF-SCS-MP2 Energies <==================
	-----------------------------------------------------------
	 SCS Same-Spin Scale       =       0.3333333333333333 [-]
	 SCS Opposite-Spin Scale   =       1.2000000000000000 [-]
	 SCS Same-Spin Energy      =      -0.1796699255262328 [Eh]
	 SCS Opposite-Spin Energy  =      -1.8662935457162182 [Eh]
	 SCS Correlation Energy    =      -2.0459634712424508 [Eh]
	 SCS Total Energy          =    -854.4831712717203800 [Eh]
	-----------------------------------------------------------

  Dipole Moment: [D]
     X:     7.9398      Y:    -0.0014      Z:    -0.1777     Total:     7.9418

*** Psi4 exiting successfully. Buy a developer a beer!
