                               Psi4 1.3.2 release

  ==> Input File <==

--------------------------------------------------------------------------
#psi4
#
memory 32 gb

molecule  {
-1 1
  S       -1.5500650    -0.0000770     0.0055040
  O       -1.8677260    -0.0040310     1.4568130
  O       -1.9173420     1.2548610    -0.7013450
  O       -1.9179590    -1.2504550    -0.7090990
  C        0.2577020     0.0000600    -0.0380210
  C        0.9598570    -1.2082450    -0.0264560
  C        0.9600990     1.2082480    -0.0266860
  C        2.3556760    -1.2079150     0.0024970
  C        2.3559460     1.2077510     0.0021770
  C        3.0593930    -0.0001220     0.0217850
  H        0.3939800    -2.1354100    -0.0629560
  H        0.3942590     2.1354370    -0.0632640
  H        2.9001804    -2.1518771    -0.0935960
  H        2.8986710     2.1521870     0.0058350
  H        4.1480910    -0.0001990     0.0432140
units angstrom
no_reorient  #important for SAPT in psi4, default
symmetry c1  #important for SAPT in psi4, default
}

set PROPERTIES_ORIGIN ["COM"]
properties('MP2/aug-cc-pvtz', properties = ['dipole'])
--------------------------------------------------------------------------

    Molecular point group: c1
  Charge       = -1
  Multiplicity = 1
  Basis Set: AUG-CC-PVTZ
    Blend: AUG-CC-PVTZ
  Basis Set: (AUG-CC-PVTZ AUX)
    Blend: AUG-CC-PVTZ-JKFIT

    Orbital Energies [Eh]
    ---------------------

    Doubly Occupied:

       1A    -92.015458     2A    -20.352424     3A    -20.352361
       4A    -20.351271     5A    -11.133088     6A    -11.129464
       7A    -11.129062     8A    -11.125029     9A    -11.121688
      10A    -11.121463    11A     -8.976176    12A     -6.661902
      13A     -6.661108    14A     -6.661016    15A     -1.271467
      16A     -1.128125    17A     -1.126052    18A     -1.037584
      19A     -0.906638    20A     -0.901573    21A     -0.733011
      22A     -0.712799    23A     -0.641911    24A     -0.582700
      25A     -0.523256    26A     -0.513832    27A     -0.495802
      28A     -0.474118    29A     -0.465087    30A     -0.459282
      31A     -0.410532    32A     -0.392151    33A     -0.379375
      34A     -0.332913    35A     -0.332514    36A     -0.300063
      37A     -0.292350    38A     -0.271431    39A     -0.250258
      40A     -0.224984    41A     -0.215202

  @DF-RHF Final Energy:  -852.43719791758838

   => Energetics <=

    Nuclear Repulsion Energy =            619.0929424674784514
    One-Electron Energy =               -2414.7272467797351965
    Two-Electron Energy =                 943.1971063946683671
    Total Energy =                       -852.4371979175883780
  Basis Set: (AUG-CC-PVTZ AUX)
    Blend: AUG-CC-PVTZ-RI
    Molecular point group: c1

    Geometry (in Angstrom), charge = -1, multiplicity = 1:

       Center              X                  Y                   Z               Mass
    ------------   -----------------  -----------------  -----------------  -----------------
         S           -1.482706838448    -0.000083364640     0.005700876311    31.972071174400
         O           -1.800367838448    -0.004037364640     1.457009876311    15.994914619570
         O           -1.849983838448     1.254854635360    -0.701148123689    15.994914619570
         O           -1.850600838448    -1.250461364640    -0.708902123689    15.994914619570
         C            0.325060161552     0.000053635360    -0.037824123689    12.000000000000
         C            1.027215161552    -1.208251364640    -0.026259123689    12.000000000000
         C            1.027457161552     1.208241635360    -0.026489123689    12.000000000000
         C            2.423034161552    -1.207921364640     0.002693876311    12.000000000000
         C            2.423304161552     1.207744635360     0.002373876311    12.000000000000
         C            3.126751161552    -0.000128364640     0.021981876311    12.000000000000
         H            0.461338161552    -2.135416364640    -0.062759123689     1.007825032230
         H            0.461617161552     2.135430635360    -0.063067123689     1.007825032230
         H            2.967538561552    -2.151883464640    -0.093399123689     1.007825032230
         H            2.966029161552     2.152180635360     0.006031876311     1.007825032230
         H            4.215449161552    -0.000205364640     0.043410876311     1.007825032230

  Basis Set: AUG-CC-PVTZ
    Blend: AUG-CC-PVTZ
  Basis Set: (AUG-CC-PVTZ AUX)
    Blend: AUG-CC-PVTZ-JKFIT
	 Reference Energy          =    -852.4371979175883780 [Eh]
	 Singles Energy            =      -0.0000000000000000 [Eh]
	 Same-Spin Energy          =      -0.5390094937474912 [Eh]
	 Opposite-Spin Energy      =      -1.5552481777142193 [Eh]
	 Correlation Energy        =      -2.0942576714617105 [Eh]
	 Total Energy              =    -854.5314555890500969 [Eh]

	 ================> DF-SCS-MP2 Energies <==================
	-----------------------------------------------------------
	 SCS Same-Spin Scale       =       0.3333333333333333 [-]
	 SCS Opposite-Spin Scale   =       1.2000000000000000 [-]
	 SCS Same-Spin Energy      =      -0.1796698312491637 [Eh]
	 SCS Opposite-Spin Energy  =      -1.8662978132570631 [Eh]
	 SCS Correlation Energy    =      -2.0459676445062267 [Eh]
	 SCS Total Energy          =    -854.4831655620946549 [Eh]
	-----------------------------------------------------------

  Dipole Moment: [D]
     X:     7.9480      Y:     0.0094      Z:    -0.1750     Total:     7.9499

*** Psi4 exiting successfully. Buy a developer a beer!
