                               Psi4 1.3.2 release

  ==> Input File <==

--------------------------------------------------------------------------
#psi4
#
memory 32 gb

molecule  {
-1 1
  S       -1.5500650    -0.0000770     0.0055040
  O       -1.8677260    -0.0040310     1.4568130
  O       -1.9173420     1.2548610    -0.7013450
  O       -1.9179590    -1.2504550    -0.7090990
  C        0.2577020     0.0000600    -0.0380210
  C        0.9598570    -1.2082450    -0.0264560
  C        0.9600990     1.2082480    -0.0266860
  C        2.3556760    -1.2079150     0.0024970
  C        2.3559460     1.2077510     0.0021770
  C        3.0593930    -0.0001220     0.0217850
  H        0.3939800    -2.1354100    -0.0629560
  H        0.3942590     2.1354370    -0.0632640
  H        2.9011657    -2.1515932    -0.1435855
  H        2.8986710     2.1521870     0.0058350
  H        4.1480910    -0.0001990     0.0432140
units angstrom
no_reorient  #important for SAPT in psi4, default
symmetry c1  #important for SAPT in psi4, default
}

set PROPERTIES_ORIGIN ["COM"]
properties('MP2/aug-cc-pvtz', properties = ['dipole'])
--------------------------------------------------------------------------

    Molecular point group: c1
  Charge       = -1
  Multiplicity = 1
  Basis Set: AUG-CC-PVTZ
    Blend: AUG-CC-PVTZ
  Basis Set: (AUG-CC-PVTZ AUX)
    Blend: AUG-CC-PVTZ-JKFIT

    Orbital Energies [Eh]
    ---------------------

    Doubly Occupied:

       1A    -92.015496     2A    -20.352455     3A    -20.352407
       4A    -20.351302     5A    -11.133237     6A    -11.129960
       7A    -11.129148     8A    -11.125087     9A    -11.121828
      10A    -11.121588    11A     -8.976213    12A     -6.661939
      13A     -6.661145    14A     -6.661053    15A     -1.271503
      16A     -1.128164    17A     -1.126083    18A     -1.037641
      19A     -0.906677    20A     -0.901491    21A     -0.733040
      22A     -0.712575    23A     -0.641635    24A     -0.582647
      25A     -0.523039    26A     -0.513901    27A     -0.495576
      28A     -0.473743    29A     -0.465080    30A     -0.459320
      31A     -0.410754    32A     -0.392423    33A     -0.378678
      34A     -0.332946    35A     -0.332530    36A     -0.300066
      37A     -0.292386    38A     -0.271469    39A     -0.250294
      40A     -0.224969    41A     -0.215262

  @DF-RHF Final Energy:  -852.43639821639965

   => Energetics <=

    Nuclear Repulsion Energy =            619.0706670702437577
    One-Electron Energy =               -2414.6806346194612161
    Two-Electron Energy =                 943.1735693328176922
    Total Energy =                       -852.4363982163996525
  Basis Set: (AUG-CC-PVTZ AUX)
    Blend: AUG-CC-PVTZ-RI
    Molecular point group: c1

    Geometry (in Angstrom), charge = -1, multiplicity = 1:

       Center              X                  Y                   Z               Mass
    ------------   -----------------  -----------------  -----------------  -----------------
         S           -1.482713163516    -0.000085187117     0.006021780593    31.972071174400
         O           -1.800374163516    -0.004039187117     1.457330780593    15.994914619570
         O           -1.849990163516     1.254852812883    -0.700827219407    15.994914619570
         O           -1.850607163516    -1.250463187117    -0.708581219407    15.994914619570
         C            0.325053836484     0.000051812883    -0.037503219407    12.000000000000
         C            1.027208836484    -1.208253187117    -0.025938219407    12.000000000000
         C            1.027450836484     1.208239812883    -0.026168219407    12.000000000000
         C            2.423027836484    -1.207923187117     0.003014780593    12.000000000000
         C            2.423297836484     1.207742812883     0.002694780593    12.000000000000
         C            3.126744836484    -0.000130187117     0.022302780593    12.000000000000
         H            0.461331836484    -2.135418187117    -0.062438219407     1.007825032230
         H            0.461610836484     2.135428812883    -0.062746219407     1.007825032230
         H            2.968517536484    -2.151601387117    -0.143067719407     1.007825032230
         H            2.966022836484     2.152178812883     0.006352780593     1.007825032230
         H            4.215442836484    -0.000207187117     0.043731780593     1.007825032230

  Basis Set: AUG-CC-PVTZ
    Blend: AUG-CC-PVTZ
  Basis Set: (AUG-CC-PVTZ AUX)
    Blend: AUG-CC-PVTZ-JKFIT
	 Reference Energy          =    -852.4363982163996525 [Eh]
	 Singles Energy            =      -0.0000000000000000 [Eh]
	 Same-Spin Energy          =      -0.5390520554489798 [Eh]
	 Opposite-Spin Energy      =      -1.5553594534845665 [Eh]
	 Correlation Energy        =      -2.0944115089335464 [Eh]
	 Total Energy              =    -854.5308097253331425 [Eh]

	 ================> DF-SCS-MP2 Energies <==================
	-----------------------------------------------------------
	 SCS Same-Spin Scale       =       0.3333333333333333 [-]
	 SCS Opposite-Spin Scale   =       1.2000000000000000 [-]
	 SCS Same-Spin Energy      =      -0.1796840184829933 [Eh]
	 SCS Opposite-Spin Energy  =      -1.8664313441814797 [Eh]
	 SCS Correlation Energy    =      -2.0461153626644730 [Eh]
	 SCS Total Energy          =    -854.4825135790641752 [Eh]
	-----------------------------------------------------------

  Dipole Moment: [D]
     X:     7.9412      Y:     0.0213      Z:    -0.2065     Total:     7.9439

*** Psi4 exiting successfully. Buy a developer a beer!
