                               Psi4 1.3.2 release

  ==> Input File <==

--------------------------------------------------------------------------
#psi4
#
memory 32 gb

molecule  {
-1 1
  S       -1.5500650    -0.0000770     0.0055040
  O       -1.8677260    -0.0040310     1.4568130
  O       -1.9173420     1.2548610    -0.7013450
  O       -1.9179590    -1.2504550    -0.7090990
  C        0.2577020     0.0000600    -0.0380210
  C        0.9598570    -1.2082450    -0.0264560
  C        0.9600990     1.2082480    -0.0266860
  C        2.3556760    -1.2079150     0.0024970
  C        2.3559460     1.2077510     0.0021770
  C        3.0593930    -0.0001220     0.0217850
  H        0.3993834    -2.1327309    -0.2628650
  H        0.3942590     2.1354370    -0.0632640
  H        2.8982100    -2.1524450     0.0063830
  H        2.8986710     2.1521870     0.0058350
  H        4.1480910    -0.0001990     0.0432140
units angstrom
no_reorient  #important for SAPT in psi4, default
symmetry c1  #important for SAPT in psi4, default
}

set PROPERTIES_ORIGIN ["COM"]
properties('MP2/aug-cc-pvtz', properties = ['dipole'])
--------------------------------------------------------------------------

    Molecular point group: c1
  Charge       = -1
  Multiplicity = 1
  Basis Set: AUG-CC-PVTZ
    Blend: AUG-CC-PVTZ
  Basis Set: (AUG-CC-PVTZ AUX)
    Blend: AUG-CC-PVTZ-JKFIT

    Orbital Energies [Eh]
    ---------------------

    Doubly Occupied:

       1A    -92.015531     2A    -20.352539     3A    -20.352264
       4A    -20.351427     5A    -11.132974     6A    -11.129394
       7A    -11.129136     8A    -11.125375     9A    -11.122630
      10A    -11.121551    11A     -8.976246    12A     -6.661980
      13A     -6.661177    14A     -6.661081    15A     -1.271509
      16A     -1.128196    17A     -1.126095    18A     -1.037557
      19A     -0.906566    20A     -0.901237    21A     -0.732895
      22A     -0.712007    23A     -0.641964    24A     -0.581618
      25A     -0.522395    26A     -0.513814    27A     -0.495493
      28A     -0.473110    29A     -0.465239    30A     -0.459438
      31A     -0.410795    32A     -0.392193    33A     -0.376550
      34A     -0.333069    35A     -0.332569    36A     -0.300117
      37A     -0.292295    38A     -0.271581    39A     -0.250321
      40A     -0.224611    41A     -0.215191

  @DF-RHF Final Energy:  -852.43475433695960

   => Energetics <=

    Nuclear Repulsion Energy =            619.0284734071721005
    One-Electron Energy =               -2414.6029972569103847
    Two-Electron Energy =                 943.1397695127787983
    Total Energy =                       -852.4347543369595996
  Basis Set: (AUG-CC-PVTZ AUX)
    Blend: AUG-CC-PVTZ-RI
    Molecular point group: c1

    Geometry (in Angstrom), charge = -1, multiplicity = 1:

       Center              X                  Y                   Z               Mass
    ------------   -----------------  -----------------  -----------------  -----------------
         S           -1.482728876364    -0.000096917348     0.006342370322    31.972071174400
         O           -1.800389876364    -0.004050917348     1.457651370322    15.994914619570
         O           -1.850005876364     1.254841082652    -0.700506629678    15.994914619570
         O           -1.850622876364    -1.250474917348    -0.708260629678    15.994914619570
         C            0.325038123636     0.000040082652    -0.037182629678    12.000000000000
         C            1.027193123636    -1.208264917348    -0.025617629678    12.000000000000
         C            1.027435123636     1.208228082652    -0.025847629678    12.000000000000
         C            2.423012123636    -1.207934917348     0.003335370322    12.000000000000
         C            2.423282123636     1.207731082652     0.003015370322    12.000000000000
         C            3.126729123636    -0.000141917348     0.022623370322    12.000000000000
         H            0.466719523636    -2.132750817348    -0.262026629678     1.007825032230
         H            0.461595123636     2.135417082652    -0.062425629678     1.007825032230
         H            2.965546123636    -2.152464917348     0.007221370322     1.007825032230
         H            2.966007123636     2.152167082652     0.006673370322     1.007825032230
         H            4.215427123636    -0.000218917348     0.044052370322     1.007825032230

  Basis Set: AUG-CC-PVTZ
    Blend: AUG-CC-PVTZ
  Basis Set: (AUG-CC-PVTZ AUX)
    Blend: AUG-CC-PVTZ-JKFIT
	 Reference Energy          =    -852.4347543369595996 [Eh]
	 Singles Energy            =      -0.0000000000000000 [Eh]
	 Same-Spin Energy          =      -0.5392044637185034 [Eh]
	 Opposite-Spin Energy      =      -1.5555754046174035 [Eh]
	 Correlation Energy        =      -2.0947798683359071 [Eh]
	 Total Energy              =    -854.5295342052954766 [Eh]

	 ================> DF-SCS-MP2 Energies <==================
	-----------------------------------------------------------
	 SCS Same-Spin Scale       =       0.3333333333333333 [-]
	 SCS Opposite-Spin Scale   =       1.2000000000000000 [-]
	 SCS Same-Spin Energy      =      -0.1797348212395011 [Eh]
	 SCS Opposite-Spin Energy  =      -1.8666904855408841 [Eh]
	 SCS Correlation Energy    =      -2.0464253067803853 [Eh]
	 SCS Total Energy          =    -854.4811796437400062 [Eh]
	-----------------------------------------------------------

  Dipole Moment: [D]
     X:     7.9587      Y:     0.0273      Z:    -0.2241     Total:     7.9619

*** Psi4 exiting successfully. Buy a developer a beer!
