                               Psi4 1.3.2 release

  ==> Input File <==

--------------------------------------------------------------------------
#psi4
#
memory 32 gb

molecule  {
-1 1
  S       -1.5500650    -0.0000770     0.0055040
  O       -1.8677260    -0.0040310     1.4568130
  O       -1.9173420     1.2548610    -0.7013450
  O       -1.9179590    -1.2504550    -0.7090990
  C        0.2577020     0.0000600    -0.0380210
  C        0.9598570    -1.2082450    -0.0264560
  C        0.9613768     1.2082574     0.0733058
  C        2.3556760    -1.2079150     0.0024970
  C        2.3559460     1.2077510     0.0021770
  C        3.0593930    -0.0001220     0.0217850
  H        0.3939800    -2.1354100    -0.0629560
  H        0.3942590     2.1354370    -0.0632640
  H        2.8982100    -2.1524450     0.0063830
  H        2.8986710     2.1521870     0.0058350
  H        4.1480910    -0.0001990     0.0432140
units angstrom
no_reorient  #important for SAPT in psi4, default
symmetry c1  #important for SAPT in psi4, default
}

set PROPERTIES_ORIGIN ["COM"]
properties('MP2/aug-cc-pvtz', properties = ['dipole'])
--------------------------------------------------------------------------

    Molecular point group: c1
  Charge       = -1
  Multiplicity = 1
  Basis Set: AUG-CC-PVTZ
    Blend: AUG-CC-PVTZ
  Basis Set: (AUG-CC-PVTZ AUX)
    Blend: AUG-CC-PVTZ-JKFIT

    Orbital Energies [Eh]
    ---------------------

    Doubly Occupied:

       1A    -92.015495     2A    -20.352493     3A    -20.352378
       4A    -20.351285     5A    -11.132869     6A    -11.129638
       7A    -11.129404     8A    -11.125913     9A    -11.122323
      10A    -11.121357    11A     -8.976222    12A     -6.661951
      13A     -6.661149    14A     -6.661061    15A     -1.271476
      16A     -1.128125    17A     -1.126056    18A     -1.037407
      19A     -0.906271    20A     -0.901564    21A     -0.732947
      22A     -0.712364    23A     -0.641866    24A     -0.582031
      25A     -0.523072    26A     -0.513274    27A     -0.495325
      28A     -0.473752    29A     -0.465136    30A     -0.459159
      31A     -0.410559    32A     -0.391450    33A     -0.377980
      34A     -0.332980    35A     -0.332552    36A     -0.300100
      37A     -0.292358    38A     -0.271590    39A     -0.250276
      40A     -0.225325    41A     -0.214675

  @DF-RHF Final Energy:  -852.43434833432707

   => Energetics <=

    Nuclear Repulsion Energy =            619.0048485370367644
    One-Electron Energy =               -2414.5519757143124480
    Two-Electron Energy =                 943.1127788429487282
    Total Energy =                       -852.4343483343270691
  Basis Set: (AUG-CC-PVTZ AUX)
    Blend: AUG-CC-PVTZ-RI
    Molecular point group: c1

    Geometry (in Angstrom), charge = -1, multiplicity = 1:

       Center              X                  Y                   Z               Mass
    ------------   -----------------  -----------------  -----------------  -----------------
         S           -1.482791858364    -0.000080437533    -0.002583815238    31.972071174400
         O           -1.800452858364    -0.004034437533     1.448725184762    15.994914619570
         O           -1.850068858364     1.254857562467    -0.709432815238    15.994914619570
         O           -1.850685858364    -1.250458437533    -0.717186815238    15.994914619570
         C            0.324975141636     0.000056562467    -0.046108815238    12.000000000000
         C            1.027130141636    -1.208248437533    -0.034543815238    12.000000000000
         C            1.028649941636     1.208253962467     0.065217984762    12.000000000000
         C            2.422949141636    -1.207918437533    -0.005590815238    12.000000000000
         C            2.423219141636     1.207747562467    -0.005910815238    12.000000000000
         C            3.126666141636    -0.000125437533     0.013697184762    12.000000000000
         H            0.461253141636    -2.135413437533    -0.071043815238     1.007825032230
         H            0.461532141636     2.135433562467    -0.071351815238     1.007825032230
         H            2.965483141636    -2.152448437533    -0.001704815238     1.007825032230
         H            2.965944141636     2.152183562467    -0.002252815238     1.007825032230
         H            4.215364141636    -0.000202437533     0.035126184762     1.007825032230

  Basis Set: AUG-CC-PVTZ
    Blend: AUG-CC-PVTZ
  Basis Set: (AUG-CC-PVTZ AUX)
    Blend: AUG-CC-PVTZ-JKFIT
	 Reference Energy          =    -852.4343483343270691 [Eh]
	 Singles Energy            =      -0.0000000000000000 [Eh]
	 Same-Spin Energy          =      -0.5391874794955378 [Eh]
	 Opposite-Spin Energy      =      -1.5557419021138064 [Eh]
	 Correlation Energy        =      -2.0949293816093442 [Eh]
	 Total Energy              =    -854.5292777159363595 [Eh]

	 ================> DF-SCS-MP2 Energies <==================
	-----------------------------------------------------------
	 SCS Same-Spin Scale       =       0.3333333333333333 [-]
	 SCS Opposite-Spin Scale   =       1.2000000000000000 [-]
	 SCS Same-Spin Energy      =      -0.1797291598318459 [Eh]
	 SCS Opposite-Spin Energy  =      -1.8668902825365676 [Eh]
	 SCS Correlation Energy    =      -2.0466194423684136 [Eh]
	 SCS Total Energy          =    -854.4809677766954792 [Eh]
	-----------------------------------------------------------

  Dipole Moment: [D]
     X:     7.9629      Y:    -0.0251      Z:    -0.1166     Total:     7.9638

*** Psi4 exiting successfully. Buy a developer a beer!
