                               Psi4 1.3.2 release

  ==> Input File <==

--------------------------------------------------------------------------
#psi4
#
memory 32 gb

molecule  {
-1 1
  S       -1.5500650    -0.0000770     0.0055040
  O       -1.8677260    -0.0040310     1.4568130
  O       -1.9173420     1.2548610    -0.7013450
  O       -1.9179590    -1.2504550    -0.7090990
  C        0.2577020     0.0000600    -0.0380210
  C        0.9598570    -1.2082450    -0.0264560
  C        0.9600990     1.2082480    -0.0266860
  C        2.3556760    -1.2079150     0.0024970
  C        2.3559460     1.2077510     0.0021770
  C        3.0593930    -0.0001220     0.0217850
  H        0.3939800    -2.1354100    -0.0629560
  H        0.3942590     2.1354370    -0.0632640
  H        2.8982100    -2.1524450     0.0063830
  H        2.8986710     2.1521870     0.0058350
  H        4.1515112    -0.0002192    -0.1067470
units angstrom
no_reorient  #important for SAPT in psi4, default
symmetry c1  #important for SAPT in psi4, default
}

set PROPERTIES_ORIGIN ["COM"]
properties('MP2/aug-cc-pvtz', properties = ['dipole'])
--------------------------------------------------------------------------

    Molecular point group: c1
  Charge       = -1
  Multiplicity = 1
  Basis Set: AUG-CC-PVTZ
    Blend: AUG-CC-PVTZ
  Basis Set: (AUG-CC-PVTZ AUX)
    Blend: AUG-CC-PVTZ-JKFIT

    Orbital Energies [Eh]
    ---------------------

    Doubly Occupied:

       1A    -92.015588     2A    -20.352531     3A    -20.352446
       4A    -20.351434     5A    -11.133887     6A    -11.129349
       7A    -11.129179     8A    -11.125253     9A    -11.121678
      10A    -11.121468    11A     -8.976304    12A     -6.662031
      13A     -6.661235    14A     -6.661143    15A     -1.271581
      16A     -1.128218    17A     -1.126179    18A     -1.037626
      19A     -0.906388    20A     -0.901783    21A     -0.732449
      22A     -0.713111    23A     -0.642234    24A     -0.581540
      25A     -0.522964    26A     -0.513904    27A     -0.495745
      28A     -0.474538    29A     -0.465295    30A     -0.459381
      31A     -0.409390    32A     -0.391863    33A     -0.380107
      34A     -0.333033    35A     -0.332493    36A     -0.300068
      37A     -0.292441    38A     -0.271556    39A     -0.250369
      40A     -0.225095    41A     -0.215166

  @DF-RHF Final Energy:  -852.43641556691762

   => Energetics <=

    Nuclear Repulsion Energy =            619.0701101975527081
    One-Electron Energy =               -2414.6769685756794388
    Two-Electron Energy =                 943.1704428112090000
    Total Energy =                       -852.4364155669176171
  Basis Set: (AUG-CC-PVTZ AUX)
    Blend: AUG-CC-PVTZ-RI
    Molecular point group: c1

    Geometry (in Angstrom), charge = -1, multiplicity = 1:

       Center              X                  Y                   Z               Mass
    ------------   -----------------  -----------------  -----------------  -----------------
         S           -1.482716145343    -0.000079589371     0.006021732447    31.972071174400
         O           -1.800377145343    -0.004033589371     1.457330732447    15.994914619570
         O           -1.849993145343     1.254858410629    -0.700827267553    15.994914619570
         O           -1.850610145343    -1.250457589371    -0.708581267553    15.994914619570
         C            0.325050854657     0.000057410629    -0.037503267553    12.000000000000
         C            1.027205854657    -1.208247589371    -0.025938267553    12.000000000000
         C            1.027447854657     1.208245410629    -0.026168267553    12.000000000000
         C            2.423024854657    -1.207917589371     0.003014732447    12.000000000000
         C            2.423294854657     1.207748410629     0.002694732447    12.000000000000
         C            3.126741854657    -0.000124589371     0.022302732447    12.000000000000
         H            0.461328854657    -2.135412589371    -0.062438267553     1.007825032230
         H            0.461607854657     2.135434410629    -0.062746267553     1.007825032230
         H            2.965558854657    -2.152447589371     0.006900732447     1.007825032230
         H            2.966019854657     2.152184410629     0.006352732447     1.007825032230
         H            4.218860054657    -0.000221789371    -0.106229267553     1.007825032230

  Basis Set: AUG-CC-PVTZ
    Blend: AUG-CC-PVTZ
  Basis Set: (AUG-CC-PVTZ AUX)
    Blend: AUG-CC-PVTZ-JKFIT
	 Reference Energy          =    -852.4364155669176171 [Eh]
	 Singles Energy            =      -0.0000000000000000 [Eh]
	 Same-Spin Energy          =      -0.5390541801115276 [Eh]
	 Opposite-Spin Energy      =      -1.5553627949492437 [Eh]
	 Correlation Energy        =      -2.0944169750607715 [Eh]
	 Total Energy              =    -854.5308325419783841 [Eh]

	 ================> DF-SCS-MP2 Energies <==================
	-----------------------------------------------------------
	 SCS Same-Spin Scale       =       0.3333333333333333 [-]
	 SCS Opposite-Spin Scale   =       1.2000000000000000 [-]
	 SCS Same-Spin Energy      =      -0.1796847267038425 [Eh]
	 SCS Opposite-Spin Energy  =      -1.8664353539390923 [Eh]
	 SCS Correlation Energy    =      -2.0461200806429347 [Eh]
	 SCS Total Energy          =    -854.4825356475605531 [Eh]
	-----------------------------------------------------------

  Dipole Moment: [D]
     X:     7.9245      Y:    -0.0014      Z:    -0.2106     Total:     7.9273

*** Psi4 exiting successfully. Buy a developer a beer!
