                               Psi4 1.3.2 release

  ==> Input File <==

--------------------------------------------------------------------------
#psi4
#
memory 32 gb

molecule  {
-1 1
  S       -1.5500650    -0.0000770     0.0055040
  O       -1.8677260    -0.0040310     1.4568130
  O       -1.9173420     1.2548610    -0.7013450
  O       -1.9179590    -1.2504550    -0.7090990
  C        0.2577020     0.0000600    -0.0380210
  C        0.9598570    -1.2082450    -0.0264560
  C        0.9626545     1.2082668     0.1732977
  C        2.3556760    -1.2079150     0.0024970
  C        2.3559460     1.2077510     0.0021770
  C        3.0593930    -0.0001220     0.0217850
  H        0.3939800    -2.1354100    -0.0629560
  H        0.3942590     2.1354370    -0.0632640
  H        2.8982100    -2.1524450     0.0063830
  H        2.8986710     2.1521870     0.0058350
  H        4.1480910    -0.0001990     0.0432140
units angstrom
no_reorient  #important for SAPT in psi4, default
symmetry c1  #important for SAPT in psi4, default
}

set PROPERTIES_ORIGIN ["COM"]
properties('MP2/aug-cc-pvtz', properties = ['dipole'])
--------------------------------------------------------------------------

    Molecular point group: c1
  Charge       = -1
  Multiplicity = 1
  Basis Set: AUG-CC-PVTZ
    Blend: AUG-CC-PVTZ
  Basis Set: (AUG-CC-PVTZ AUX)
    Blend: AUG-CC-PVTZ-JKFIT

    Orbital Energies [Eh]
    ---------------------

    Doubly Occupied:

       1A    -92.015652     2A    -20.352687     3A    -20.352480
       4A    -20.351454     5A    -11.132849     6A    -11.131518
       7A    -11.130775     8A    -11.128539     9A    -11.124855
      10A    -11.121109    11A     -8.976389    12A     -6.662123
      13A     -6.661309    14A     -6.661225    15A     -1.271599
      16A     -1.128220    17A     -1.126173    18A     -1.036657
      19A     -0.905783    20A     -0.900522    21A     -0.732437
      22A     -0.711262    23A     -0.641159    24A     -0.580523
      25A     -0.522527    26A     -0.511449    27A     -0.494286
      28A     -0.471932    29A     -0.465121    30A     -0.458949
      31A     -0.410336    32A     -0.390533    33A     -0.373662
      34A     -0.333169    35A     -0.332546    36A     -0.300170
      37A     -0.292375    38A     -0.271967    39A     -0.250395
      40A     -0.225470    41A     -0.213700

  @DF-RHF Final Energy:  -852.42435979500431

   => Energetics <=

    Nuclear Repulsion Energy =            618.6597275156432261
    One-Electron Energy =               -2413.8564047077607029
    Two-Electron Energy =                 942.7723173971131700
    Total Energy =                       -852.4243597950043068
  Basis Set: (AUG-CC-PVTZ AUX)
    Blend: AUG-CC-PVTZ-RI
    Molecular point group: c1

    Geometry (in Angstrom), charge = -1, multiplicity = 1:

       Center              X                  Y                   Z               Mass
    ------------   -----------------  -----------------  -----------------  -----------------
         S           -1.482889519488    -0.000081156023    -0.010226705866    31.972071174400
         O           -1.800550519488    -0.004035156023     1.441082294134    15.994914619570
         O           -1.850166519488     1.254856843977    -0.717075705866    15.994914619570
         O           -1.850783519488    -1.250459156023    -0.724829705866    15.994914619570
         C            0.324877480512     0.000055843977    -0.053751705866    12.000000000000
         C            1.027032480512    -1.208249156023    -0.042186705866    12.000000000000
         C            1.029829980512     1.208262643977     0.157566994134    12.000000000000
         C            2.422851480512    -1.207919156023    -0.013233705866    12.000000000000
         C            2.423121480512     1.207746843977    -0.013553705866    12.000000000000
         C            3.126568480512    -0.000126156023     0.006054294134    12.000000000000
         H            0.461155480512    -2.135414156023    -0.078686705866     1.007825032230
         H            0.461434480512     2.135432843977    -0.078994705866     1.007825032230
         H            2.965385480512    -2.152449156023    -0.009347705866     1.007825032230
         H            2.965846480512     2.152182843977    -0.009895705866     1.007825032230
         H            4.215266480512    -0.000203156023     0.027483294134     1.007825032230

  Basis Set: AUG-CC-PVTZ
    Blend: AUG-CC-PVTZ
  Basis Set: (AUG-CC-PVTZ AUX)
    Blend: AUG-CC-PVTZ-JKFIT
	 Reference Energy          =    -852.4243597950043068 [Eh]
	 Singles Energy            =      -0.0000000000000000 [Eh]
	 Same-Spin Energy          =      -0.5397394546720385 [Eh]
	 Opposite-Spin Energy      =      -1.5573248862540752 [Eh]
	 Correlation Energy        =      -2.0970643409261136 [Eh]
	 Total Energy              =    -854.5214241359303742 [Eh]

	 ================> DF-SCS-MP2 Energies <==================
	-----------------------------------------------------------
	 SCS Same-Spin Scale       =       0.3333333333333333 [-]
	 SCS Opposite-Spin Scale   =       1.2000000000000000 [-]
	 SCS Same-Spin Energy      =      -0.1799131515573462 [Eh]
	 SCS Opposite-Spin Energy  =      -1.8687898635048901 [Eh]
	 SCS Correlation Energy    =      -2.0487030150622361 [Eh]
	 SCS Total Energy          =    -854.4730628100664944 [Eh]
	-----------------------------------------------------------

  Dipole Moment: [D]
     X:     7.9829      Y:    -0.0823      Z:    -0.1248     Total:     7.9843

*** Psi4 exiting successfully. Buy a developer a beer!
