                               Psi4 1.3.2 release

  ==> Input File <==

--------------------------------------------------------------------------
#psi4
#
memory 32 gb

molecule  {
-1 1
  S       -1.5500650    -0.0000770     0.0055040
  O       -1.8677260    -0.0040310     1.4568130
  O       -1.9173420     1.2548610    -0.7013450
  O       -1.9179590    -1.2504550    -0.7090990
  C        0.2577020     0.0000600    -0.0380210
  C        0.9598570    -1.2082450    -0.0264560
  C        0.9600990     1.2082480    -0.0266860
  C        2.3556760    -1.2079150     0.0024970
  C        2.3559460     1.2077510     0.0021770
  C        3.0593930    -0.0001220     0.0217850
  H        0.3980325    -2.1334007    -0.2128878
  H        0.3942590     2.1354370    -0.0632640
  H        2.8982100    -2.1524450     0.0063830
  H        2.8986710     2.1521870     0.0058350
  H        4.1480910    -0.0001990     0.0432140
units angstrom
no_reorient  #important for SAPT in psi4, default
symmetry c1  #important for SAPT in psi4, default
}

set PROPERTIES_ORIGIN ["COM"]
properties('MP2/aug-cc-pvtz', properties = ['dipole'])
--------------------------------------------------------------------------

    Molecular point group: c1
  Charge       = -1
  Multiplicity = 1
  Basis Set: AUG-CC-PVTZ
    Blend: AUG-CC-PVTZ
  Basis Set: (AUG-CC-PVTZ AUX)
    Blend: AUG-CC-PVTZ-JKFIT

    Orbital Energies [Eh]
    ---------------------

    Doubly Occupied:

       1A    -92.015509     2A    -20.352527     3A    -20.352275
       4A    -20.351376     5A    -11.132949     6A    -11.129269
       7A    -11.129039     8A    -11.125213     9A    -11.122084
      10A    -11.121494    11A     -8.976224    12A     -6.661956
      13A     -6.661156    14A     -6.661060    15A     -1.271497
      16A     -1.128182    17A     -1.126079    18A     -1.037536
      19A     -0.906568    20A     -0.901391    21A     -0.732930
      22A     -0.712390    23A     -0.642027    24A     -0.582084
      25A     -0.522792    26A     -0.513785    27A     -0.495698
      28A     -0.473636    29A     -0.465224    30A     -0.459407
      31A     -0.410651    32A     -0.391948    33A     -0.377934
      34A     -0.333033    35A     -0.332567    36A     -0.300109
      37A     -0.292323    38A     -0.271524    39A     -0.250303
      40A     -0.224752    41A     -0.215181

  @DF-RHF Final Energy:  -852.43608122135777

   => Energetics <=

    Nuclear Repulsion Energy =            619.0637780239052290
    One-Electron Energy =               -2414.6723496441586576
    Two-Electron Energy =                 943.1724903988955475
    Total Energy =                       -852.4360812213577674
  Basis Set: (AUG-CC-PVTZ AUX)
    Blend: AUG-CC-PVTZ-RI
    Molecular point group: c1

    Geometry (in Angstrom), charge = -1, multiplicity = 1:

       Center              X                  Y                   Z               Mass
    ------------   -----------------  -----------------  -----------------  -----------------
         S           -1.482720204351    -0.000092617611     0.006021545000    31.972071174400
         O           -1.800381204351    -0.004046617611     1.457330545000    15.994914619570
         O           -1.849997204351     1.254845382389    -0.700827455000    15.994914619570
         O           -1.850614204351    -1.250470617611    -0.708581455000    15.994914619570
         C            0.325046795649     0.000044382389    -0.037503455000    12.000000000000
         C            1.027201795649    -1.208260617611    -0.025938455000    12.000000000000
         C            1.027443795649     1.208232382389    -0.026168455000    12.000000000000
         C            2.423020795649    -1.207930617611     0.003014545000    12.000000000000
         C            2.423290795649     1.207735382389     0.002694545000    12.000000000000
         C            3.126737795649    -0.000137617611     0.022302545000    12.000000000000
         H            0.465377295649    -2.133416317611    -0.212370255000     1.007825032230
         H            0.461603795649     2.135421382389    -0.062746455000     1.007825032230
         H            2.965554795649    -2.152460617611     0.006900545000     1.007825032230
         H            2.966015795649     2.152171382389     0.006352545000     1.007825032230
         H            4.215435795649    -0.000214617611     0.043731545000     1.007825032230

  Basis Set: AUG-CC-PVTZ
    Blend: AUG-CC-PVTZ
  Basis Set: (AUG-CC-PVTZ AUX)
    Blend: AUG-CC-PVTZ-JKFIT
	 Reference Energy          =    -852.4360812213577674 [Eh]
	 Singles Energy            =      -0.0000000000000000 [Eh]
	 Same-Spin Energy          =      -0.5391140407619771 [Eh]
	 Opposite-Spin Energy      =      -1.5553932160825836 [Eh]
	 Correlation Energy        =      -2.0945072568445608 [Eh]
	 Total Energy              =    -854.5305884782022758 [Eh]

	 ================> DF-SCS-MP2 Energies <==================
	-----------------------------------------------------------
	 SCS Same-Spin Scale       =       0.3333333333333333 [-]
	 SCS Opposite-Spin Scale   =       1.2000000000000000 [-]
	 SCS Same-Spin Energy      =      -0.1797046802539924 [Eh]
	 SCS Opposite-Spin Energy  =      -1.8664718592991003 [Eh]
	 SCS Correlation Energy    =      -2.0461765395530929 [Eh]
	 SCS Total Energy          =    -854.4822577609108976 [Eh]
	-----------------------------------------------------------

  Dipole Moment: [D]
     X:     7.9554      Y:     0.0160      Z:    -0.1961     Total:     7.9578

*** Psi4 exiting successfully. Buy a developer a beer!
