                               Psi4 1.3.2 release

  ==> Input File <==

--------------------------------------------------------------------------
#psi4
#
memory 32 gb

molecule  {
-1 1
  S       -1.5500650    -0.0000770     0.0055040
  O       -1.8677260    -0.0040310     1.4568130
  O       -1.9173420     1.2548610    -0.7013450
  O       -1.9179590    -1.2504550    -0.7090990
  C        0.2577020     0.0000600    -0.0380210
  C        0.9598570    -1.2082450    -0.0264560
  C        0.9639323     1.2082762     0.2732895
  C        2.3556760    -1.2079150     0.0024970
  C        2.3559460     1.2077510     0.0021770
  C        3.0593930    -0.0001220     0.0217850
  H        0.3939800    -2.1354100    -0.0629560
  H        0.3942590     2.1354370    -0.0632640
  H        2.8982100    -2.1524450     0.0063830
  H        2.8986710     2.1521870     0.0058350
  H        4.1480910    -0.0001990     0.0432140
units angstrom
no_reorient  #important for SAPT in psi4, default
symmetry c1  #important for SAPT in psi4, default
}

set PROPERTIES_ORIGIN ["COM"]
properties('MP2/aug-cc-pvtz', properties = ['dipole'])
--------------------------------------------------------------------------

    Molecular point group: c1
  Charge       = -1
  Multiplicity = 1
  Basis Set: AUG-CC-PVTZ
    Blend: AUG-CC-PVTZ
  Basis Set: (AUG-CC-PVTZ AUX)
    Blend: AUG-CC-PVTZ-JKFIT

    Orbital Energies [Eh]
    ---------------------

    Doubly Occupied:

       1A    -92.015899     2A    -20.352986     3A    -20.352633
       4A    -20.351738     5A    -11.135438     6A    -11.133643
       7A    -11.132704     8A    -11.131597     9A    -11.128837
      10A    -11.120768    11A     -8.976649    12A     -6.662391
      13A     -6.661558    14A     -6.661480    15A     -1.271803
      16A     -1.128386    17A     -1.126364    18A     -1.035386
      19A     -0.905363    20A     -0.898322    21A     -0.731547
      22A     -0.709764    23A     -0.640198    24A     -0.578651
      25A     -0.521997    26A     -0.508653    27A     -0.492941
      28A     -0.469160    29A     -0.465018    30A     -0.458529
      31A     -0.409347    32A     -0.389175    33A     -0.366979
      34A     -0.333433    35A     -0.332477    36A     -0.300292
      37A     -0.292381    38A     -0.272485    39A     -0.250582
      40A     -0.225546    41A     -0.212315

  @DF-RHF Final Energy:  -852.40764796960980

   => Energetics <=

    Nuclear Repulsion Energy =            618.0891526470099961
    One-Electron Energy =               -2412.7027765553352765
    Two-Electron Energy =                 942.2059759387154827
    Total Energy =                       -852.4076479696097977
  Basis Set: (AUG-CC-PVTZ AUX)
    Blend: AUG-CC-PVTZ-RI
    Molecular point group: c1

    Geometry (in Angstrom), charge = -1, multiplicity = 1:

       Center              X                  Y                   Z               Mass
    ------------   -----------------  -----------------  -----------------  -----------------
         S           -1.482987188255    -0.000081874513    -0.017869588851    31.972071174400
         O           -1.800648188255    -0.004035874513     1.433439411149    15.994914619570
         O           -1.850264188255     1.254856125487    -0.724718588851    15.994914619570
         O           -1.850881188255    -1.250459874513    -0.732472588851    15.994914619570
         C            0.324779811745     0.000055125487    -0.061394588851    12.000000000000
         C            1.026934811745    -1.208249874513    -0.049829588851    12.000000000000
         C            1.031010111745     1.208271325487     0.249915911149    12.000000000000
         C            2.422753811745    -1.207919874513    -0.020876588851    12.000000000000
         C            2.423023811745     1.207746125487    -0.021196588851    12.000000000000
         C            3.126470811745    -0.000126874513    -0.001588588851    12.000000000000
         H            0.461057811745    -2.135414874513    -0.086329588851     1.007825032230
         H            0.461336811745     2.135432125487    -0.086637588851     1.007825032230
         H            2.965287811745    -2.152449874513    -0.016990588851     1.007825032230
         H            2.965748811745     2.152182125487    -0.017538588851     1.007825032230
         H            4.215168811745    -0.000203874513     0.019840411149     1.007825032230

  Basis Set: AUG-CC-PVTZ
    Blend: AUG-CC-PVTZ
  Basis Set: (AUG-CC-PVTZ AUX)
    Blend: AUG-CC-PVTZ-JKFIT
	 Reference Energy          =    -852.4076479696097977 [Eh]
	 Singles Energy            =      -0.0000000000000000 [Eh]
	 Same-Spin Energy          =      -0.5406021705931243 [Eh]
	 Opposite-Spin Energy      =      -1.5598433538909742 [Eh]
	 Correlation Energy        =      -2.1004455244840985 [Eh]
	 Total Energy              =    -854.5080934940939414 [Eh]

	 ================> DF-SCS-MP2 Energies <==================
	-----------------------------------------------------------
	 SCS Same-Spin Scale       =       0.3333333333333333 [-]
	 SCS Opposite-Spin Scale   =       1.2000000000000000 [-]
	 SCS Same-Spin Energy      =      -0.1802007235310414 [Eh]
	 SCS Opposite-Spin Energy  =      -1.8718120246691690 [Eh]
	 SCS Correlation Energy    =      -2.0520127482002106 [Eh]
	 SCS Total Energy          =    -854.4596607178100385 [Eh]
	-----------------------------------------------------------

  Dipole Moment: [D]
     X:     8.0123      Y:    -0.1713      Z:    -0.1373     Total:     8.0153

*** Psi4 exiting successfully. Buy a developer a beer!
