                               Psi4 1.3.2 release

  ==> Input File <==

--------------------------------------------------------------------------
#psi4
#
memory 32 gb

molecule  {
-1 1
  S       -1.5500650    -0.0000770     0.0055040
  O       -1.8677260    -0.0040310     1.4568130
  O       -1.9173420     1.2548610    -0.7013450
  O       -1.9179590    -1.2504550    -0.7090990
  C        0.2577020     0.0000600    -0.0380210
  C        0.9598570    -1.2082450    -0.0264560
  C        0.9600990     1.2082480    -0.0266860
  C        2.3556760    -1.2079150     0.0024970
  C        2.3559460     1.2077510     0.0021770
  C        3.0593930    -0.0001220     0.0217850
  H        0.3939800    -2.1354100    -0.0629560
  H        0.3942590     2.1354370    -0.0632640
  H        2.9021509    -2.1513092    -0.1935749
  H        2.8986710     2.1521870     0.0058350
  H        4.1480910    -0.0001990     0.0432140
units angstrom
no_reorient  #important for SAPT in psi4, default
symmetry c1  #important for SAPT in psi4, default
}

set PROPERTIES_ORIGIN ["COM"]
properties('MP2/aug-cc-pvtz', properties = ['dipole'])
--------------------------------------------------------------------------

    Molecular point group: c1
  Charge       = -1
  Multiplicity = 1
  Basis Set: AUG-CC-PVTZ
    Blend: AUG-CC-PVTZ
  Basis Set: (AUG-CC-PVTZ AUX)
    Blend: AUG-CC-PVTZ-JKFIT

    Orbital Energies [Eh]
    ---------------------

    Doubly Occupied:

       1A    -92.015551     2A    -20.352504     3A    -20.352470
       4A    -20.351350     5A    -11.133444     6A    -11.130659
       7A    -11.129252     8A    -11.125169     9A    -11.122025
      10A    -11.121762    11A     -8.976268    12A     -6.661994
      13A     -6.661199    14A     -6.661108    15A     -1.271556
      16A     -1.128219    17A     -1.126132    18A     -1.037721
      19A     -0.906737    20A     -0.901379    21A     -0.733085
      22A     -0.712279    23A     -0.641266    24A     -0.582578
      25A     -0.522757    26A     -0.513999    27A     -0.495276
      28A     -0.473201    29A     -0.465076    30A     -0.459374
      31A     -0.411008    32A     -0.392800    33A     -0.377755
      34A     -0.332996    35A     -0.332557    36A     -0.300079
      37A     -0.292439    38A     -0.271526    39A     -0.250347
      40A     -0.224942    41A     -0.215340

  @DF-RHF Final Energy:  -852.43523441612956

   => Energetics <=

    Nuclear Repulsion Energy =            619.0401408132456709
    One-Electron Energy =               -2414.6163919744626583
    Two-Electron Energy =                 943.1410167450874269
    Total Energy =                       -852.4352344161295605
  Basis Set: (AUG-CC-PVTZ AUX)
    Blend: AUG-CC-PVTZ-RI
    Molecular point group: c1

    Geometry (in Angstrom), charge = -1, multiplicity = 1:

       Center              X                  Y                   Z               Mass
    ------------   -----------------  -----------------  -----------------  -----------------
         S           -1.482719487942    -0.000087010236     0.006342684233    31.972071174400
         O           -1.800380487942    -0.004041010236     1.457651684233    15.994914619570
         O           -1.849996487942     1.254850989764    -0.700506315767    15.994914619570
         O           -1.850613487942    -1.250465010236    -0.708260315767    15.994914619570
         C            0.325047512058     0.000049989764    -0.037182315767    12.000000000000
         C            1.027202512058    -1.208255010236    -0.025617315767    12.000000000000
         C            1.027444512058     1.208237989764    -0.025847315767    12.000000000000
         C            2.423021512058    -1.207925010236     0.003335684233    12.000000000000
         C            2.423291512058     1.207740989764     0.003015684233    12.000000000000
         C            3.126738512058    -0.000132010236     0.022623684233    12.000000000000
         H            0.461325512058    -2.135420010236    -0.062117315767     1.007825032230
         H            0.461604512058     2.135426989764    -0.062425315767     1.007825032230
         H            2.969496412058    -2.151319210236    -0.192736215767     1.007825032230
         H            2.966016512058     2.152176989764     0.006673684233     1.007825032230
         H            4.215436512058    -0.000209010236     0.044052684233     1.007825032230

  Basis Set: AUG-CC-PVTZ
    Blend: AUG-CC-PVTZ
  Basis Set: (AUG-CC-PVTZ AUX)
    Blend: AUG-CC-PVTZ-JKFIT
	 Reference Energy          =    -852.4352344161295605 [Eh]
	 Singles Energy            =      -0.0000000000000000 [Eh]
	 Same-Spin Energy          =      -0.5391101765291061 [Eh]
	 Opposite-Spin Energy      =      -1.5555153707421721 [Eh]
	 Correlation Energy        =      -2.0946255472712783 [Eh]
	 Total Energy              =    -854.5298599634008951 [Eh]

	 ================> DF-SCS-MP2 Energies <==================
	-----------------------------------------------------------
	 SCS Same-Spin Scale       =       0.3333333333333333 [-]
	 SCS Opposite-Spin Scale   =       1.2000000000000000 [-]
	 SCS Same-Spin Energy      =      -0.1797033921763687 [Eh]
	 SCS Opposite-Spin Energy  =      -1.8666184448906065 [Eh]
	 SCS Correlation Energy    =      -2.0463218370669751 [Eh]
	 SCS Total Energy          =    -854.4815562531965725 [Eh]
	-----------------------------------------------------------

  Dipole Moment: [D]
     X:     7.9314      Y:     0.0375      Z:    -0.2373     Total:     7.9350

*** Psi4 exiting successfully. Buy a developer a beer!
