                               Psi4 1.3.2 release

  ==> Input File <==

--------------------------------------------------------------------------
#psi4
#
memory 32 gb

molecule  {
-1 1
  S       -1.5500650    -0.0000770     0.0055040
  O       -1.8677260    -0.0040310     1.4568130
  O       -1.9173420     1.2548610    -0.7013450
  O       -1.9179590    -1.2504550    -0.7090990
  C        0.2577020     0.0000600    -0.0380210
  C        0.9598570    -1.2082450    -0.0264560
  C        0.9600990     1.2082480    -0.0266860
  C        2.3556760    -1.2079150     0.0024970
  C        2.3559460     1.2077510     0.0021770
  C        3.0593930    -0.0001220     0.0217850
  H        0.4007342    -2.1320611    -0.3128423
  H        0.3942590     2.1354370    -0.0632640
  H        2.8982100    -2.1524450     0.0063830
  H        2.8986710     2.1521870     0.0058350
  H        4.1480910    -0.0001990     0.0432140
units angstrom
no_reorient  #important for SAPT in psi4, default
symmetry c1  #important for SAPT in psi4, default
}

set PROPERTIES_ORIGIN ["COM"]
properties('MP2/aug-cc-pvtz', properties = ['dipole'])
--------------------------------------------------------------------------

    Molecular point group: c1
  Charge       = -1
  Multiplicity = 1
  Basis Set: AUG-CC-PVTZ
    Blend: AUG-CC-PVTZ
  Basis Set: (AUG-CC-PVTZ AUX)
    Blend: AUG-CC-PVTZ-JKFIT

    Orbital Energies [Eh]
    ---------------------

    Doubly Occupied:

       1A    -92.015552     2A    -20.352536     3A    -20.352256
       4A    -20.351483     5A    -11.133012     6A    -11.129557
       7A    -11.129261     8A    -11.125589     9A    -11.123342
      10A    -11.121617    11A     -8.976267    12A     -6.662003
      13A     -6.661197    14A     -6.661100    15A     -1.271519
      16A     -1.128202    17A     -1.126111    18A     -1.037589
      19A     -0.906575    20A     -0.901051    21A     -0.732858
      22A     -0.711551    23A     -0.641895    24A     -0.581057
      25A     -0.521930    26A     -0.513858    27A     -0.495243
      28A     -0.472442    29A     -0.465243    30A     -0.459460
      31A     -0.410926    32A     -0.392512    33A     -0.374880
      34A     -0.333099    35A     -0.332565    36A     -0.300123
      37A     -0.292251    38A     -0.271647    39A     -0.250335
      40A     -0.224441    41A     -0.215198

  @DF-RHF Final Energy:  -852.43299292146037

   => Energetics <=

    Nuclear Repulsion Energy =            618.9840978482872060
    One-Electron Energy =               -2414.5155158638249304
    Two-Electron Energy =                 943.0984250940774700
    Total Energy =                       -852.4329929214603681
  Basis Set: (AUG-CC-PVTZ AUX)
    Blend: AUG-CC-PVTZ-RI
    Molecular point group: c1

    Geometry (in Angstrom), charge = -1, multiplicity = 1:

       Center              X                  Y                   Z               Mass
    ------------   -----------------  -----------------  -----------------  -----------------
         S           -1.482737547735    -0.000101217085     0.006663196287    31.972071174400
         O           -1.800398547735    -0.004055217085     1.457972196287    15.994914619570
         O           -1.850014547735     1.254836782915    -0.700185803713    15.994914619570
         O           -1.850631547735    -1.250479217085    -0.707939803713    15.994914619570
         C            0.325029452265     0.000035782915    -0.036861803713    12.000000000000
         C            1.027184452265    -1.208269217085    -0.025296803713    12.000000000000
         C            1.027426452265     1.208223782915    -0.025526803713    12.000000000000
         C            2.423003452265    -1.207939217085     0.003656196287    12.000000000000
         C            2.423273452265     1.207726782915     0.003336196287    12.000000000000
         C            3.126720452265    -0.000146217085     0.022944196287    12.000000000000
         H            0.468061652265    -2.132085317085    -0.311683103713     1.007825032230
         H            0.461586452265     2.135412782915    -0.062104803713     1.007825032230
         H            2.965537452265    -2.152469217085     0.007542196287     1.007825032230
         H            2.965998452265     2.152162782915     0.006994196287     1.007825032230
         H            4.215418452265    -0.000223217085     0.044373196287     1.007825032230

  Basis Set: AUG-CC-PVTZ
    Blend: AUG-CC-PVTZ
  Basis Set: (AUG-CC-PVTZ AUX)
    Blend: AUG-CC-PVTZ-JKFIT
	 Reference Energy          =    -852.4329929214603681 [Eh]
	 Singles Energy            =      -0.0000000000000000 [Eh]
	 Same-Spin Energy          =      -0.5393154303616785 [Eh]
	 Opposite-Spin Energy      =      -1.5558101579483323 [Eh]
	 Correlation Energy        =      -2.0951255883100108 [Eh]
	 Total Energy              =    -854.5281185097703656 [Eh]

	 ================> DF-SCS-MP2 Energies <==================
	-----------------------------------------------------------
	 SCS Same-Spin Scale       =       0.3333333333333333 [-]
	 SCS Opposite-Spin Scale   =       1.2000000000000000 [-]
	 SCS Same-Spin Energy      =      -0.1797718101205595 [Eh]
	 SCS Opposite-Spin Energy  =      -1.8669721895379987 [Eh]
	 SCS Correlation Energy    =      -2.0467439996585584 [Eh]
	 SCS Total Energy          =    -854.4797369211189562 [Eh]
	-----------------------------------------------------------

  Dipole Moment: [D]
     X:     7.9630      Y:     0.0412      Z:    -0.2516     Total:     7.9671

*** Psi4 exiting successfully. Buy a developer a beer!
