                               Psi4 1.3.2 release

  ==> Input File <==

--------------------------------------------------------------------------
#psi4
#
memory 32 gb

molecule  {
-1 1
  S       -1.5500650    -0.0000770     0.0055040
  O       -1.8677260    -0.0040310     1.4568130
  O       -1.9173420     1.2548610    -0.7013450
  O       -1.9179590    -1.2504550    -0.7090990
  C        0.2577020     0.0000600    -0.0380210
  C        0.9598570    -1.2082450    -0.0264560
  C        0.9600990     1.2082480    -0.0266860
  C        2.3556760    -1.2079150     0.0024970
  C        2.3559460     1.2077510     0.0021770
  C        3.0593930    -0.0001220     0.0217850
  H        0.3939800    -2.1354100    -0.0629560
  H        0.3942590     2.1354370    -0.0632640
  H        2.8982100    -2.1524450     0.0063830
  H        2.8986710     2.1521870     0.0058350
  H        4.1537913    -0.0002327    -0.2067210
units angstrom
no_reorient  #important for SAPT in psi4, default
symmetry c1  #important for SAPT in psi4, default
}

set PROPERTIES_ORIGIN ["COM"]
properties('MP2/aug-cc-pvtz', properties = ['dipole'])
--------------------------------------------------------------------------

    Molecular point group: c1
  Charge       = -1
  Multiplicity = 1
  Basis Set: AUG-CC-PVTZ
    Blend: AUG-CC-PVTZ
  Basis Set: (AUG-CC-PVTZ AUX)
    Blend: AUG-CC-PVTZ-JKFIT

    Orbital Energies [Eh]
    ---------------------

    Doubly Occupied:

       1A    -92.015844     2A    -20.352748     3A    -20.352663
       4A    -20.351701     5A    -11.135505     6A    -11.129741
       7A    -11.129604     8A    -11.125717     9A    -11.121853
      10A    -11.121658    11A     -8.976555    12A     -6.662284
      13A     -6.661485    14A     -6.661393    15A     -1.271811
      16A     -1.128431    17A     -1.126413    18A     -1.037789
      19A     -0.906043    20A     -0.902036    21A     -0.731599
      22A     -0.713328    23A     -0.642393    24A     -0.579619
      25A     -0.522157    26A     -0.514128    27A     -0.495272
      28A     -0.474775    29A     -0.465539    30A     -0.459594
      31A     -0.409407    32A     -0.390067    33A     -0.380347
      34A     -0.333251    35A     -0.332582    36A     -0.300101
      37A     -0.292646    38A     -0.271805    39A     -0.250591
      40A     -0.225310    41A     -0.215166

  @DF-RHF Final Energy:  -852.43370259709366

   => Energetics <=

    Nuclear Repulsion Energy =            619.0015001256457481
    One-Electron Energy =               -2414.5285051710075095
    Two-Electron Energy =                 943.0933024482682185
    Total Energy =                       -852.4337025970936565
  Basis Set: (AUG-CC-PVTZ AUX)
    Blend: AUG-CC-PVTZ-RI
    Molecular point group: c1

    Geometry (in Angstrom), charge = -1, multiplicity = 1:

       Center              X                  Y                   Z               Mass
    ------------   -----------------  -----------------  -----------------  -----------------
         S           -1.482730782294    -0.000079502708     0.006663508914    31.972071174400
         O           -1.800391782294    -0.004033502708     1.457972508914    15.994914619570
         O           -1.850007782294     1.254858497292    -0.700185491086    15.994914619570
         O           -1.850624782294    -1.250457502708    -0.707939491086    15.994914619570
         C            0.325036217706     0.000057497292    -0.036861491086    12.000000000000
         C            1.027191217706    -1.208247502708    -0.025296491086    12.000000000000
         C            1.027433217706     1.208245497292    -0.025526491086    12.000000000000
         C            2.423010217706    -1.207917502708     0.003656508914    12.000000000000
         C            2.423280217706     1.207748497292     0.003336508914    12.000000000000
         C            3.126727217706    -0.000124502708     0.022944508914    12.000000000000
         H            0.461314217706    -2.135412502708    -0.061796491086     1.007825032230
         H            0.461593217706     2.135434497292    -0.062104491086     1.007825032230
         H            2.965544217706    -2.152447502708     0.007542508914     1.007825032230
         H            2.966005217706     2.152184497292     0.006994508914     1.007825032230
         H            4.221125517706    -0.000235202708    -0.205561491086     1.007825032230

  Basis Set: AUG-CC-PVTZ
    Blend: AUG-CC-PVTZ
  Basis Set: (AUG-CC-PVTZ AUX)
    Blend: AUG-CC-PVTZ-JKFIT
	 Reference Energy          =    -852.4337025970936565 [Eh]
	 Singles Energy            =      -0.0000000000000000 [Eh]
	 Same-Spin Energy          =      -0.5391919707633619 [Eh]
	 Opposite-Spin Energy      =      -1.5557469971656679 [Eh]
	 Correlation Energy        =      -2.0949389679290298 [Eh]
	 Total Energy              =    -854.5286415650226672 [Eh]

	 ================> DF-SCS-MP2 Energies <==================
	-----------------------------------------------------------
	 SCS Same-Spin Scale       =       0.3333333333333333 [-]
	 SCS Opposite-Spin Scale   =       1.2000000000000000 [-]
	 SCS Same-Spin Energy      =      -0.1797306569211206 [Eh]
	 SCS Opposite-Spin Energy  =      -1.8668963965988015 [Eh]
	 SCS Correlation Energy    =      -2.0466270535199222 [Eh]
	 SCS Total Energy          =    -854.4803296506136121 [Eh]
	-----------------------------------------------------------

  Dipole Moment: [D]
     X:     7.8761      Y:    -0.0014      Z:    -0.2743     Total:     7.8809

*** Psi4 exiting successfully. Buy a developer a beer!
