                               Psi4 1.3.2 release

  ==> Input File <==

--------------------------------------------------------------------------
#psi4
#
memory 32 gb

molecule  {
-1 1
  S       -1.5500650    -0.0000770     0.0055040
  O       -1.8677260    -0.0040310     1.4568130
  O       -1.9173420     1.2548610    -0.7013450
  O       -1.9179590    -1.2504550    -0.7090990
  C        0.2577020     0.0000600    -0.0380210
  C        0.9598570    -1.2082450    -0.0264560
  C        0.9600990     1.2082480    -0.0266860
  C        2.3556760    -1.2079150     0.0024970
  C        2.3559460     1.2077510     0.0021770
  C        3.0593930    -0.0001220     0.0217850
  H        0.3939800    -2.1354100    -0.0629560
  H        0.3942590     2.1354370    -0.0632640
  H        2.8982100    -2.1524450     0.0063830
  H        2.8986710     2.1521870     0.0058350
  H        4.1526513    -0.0002260    -0.1567340
units angstrom
no_reorient  #important for SAPT in psi4, default
symmetry c1  #important for SAPT in psi4, default
}

set PROPERTIES_ORIGIN ["COM"]
properties('MP2/aug-cc-pvtz', properties = ['dipole'])
--------------------------------------------------------------------------

    Molecular point group: c1
  Charge       = -1
  Multiplicity = 1
  Basis Set: AUG-CC-PVTZ
    Blend: AUG-CC-PVTZ
  Basis Set: (AUG-CC-PVTZ AUX)
    Blend: AUG-CC-PVTZ-JKFIT

    Orbital Energies [Eh]
    ---------------------

    Doubly Occupied:

       1A    -92.015701     2A    -20.352626     3A    -20.352541
       4A    -20.351553     5A    -11.134599     6A    -11.129521
       7A    -11.129367     8A    -11.125457     9A    -11.121754
      10A    -11.121550    11A     -8.976414    12A     -6.662142
      13A     -6.661345    14A     -6.661253    15A     -1.271682
      16A     -1.128311    17A     -1.126282    18A     -1.037696
      19A     -0.906231    20A     -0.901893    21A     -0.732064
      22A     -0.713205    23A     -0.642302    24A     -0.580671
      25A     -0.522606    26A     -0.514002    27A     -0.495543
      28A     -0.474642    29A     -0.465404    30A     -0.459475
      31A     -0.409357    32A     -0.391123    33A     -0.380211
      34A     -0.333129    35A     -0.332527    36A     -0.300080
      37A     -0.292531    38A     -0.271665    39A     -0.250467
      40A     -0.225189    41A     -0.215167

  @DF-RHF Final Energy:  -852.43526009591699

   => Energetics <=

    Nuclear Repulsion Energy =            619.0396620032503279
    One-Electron Energy =               -2414.6112888614707117
    Two-Electron Energy =                 943.1363667623035099
    Total Energy =                       -852.4352600959169877
  Basis Set: (AUG-CC-PVTZ AUX)
    Blend: AUG-CC-PVTZ-RI
    Molecular point group: c1

    Geometry (in Angstrom), charge = -1, multiplicity = 1:

       Center              X                  Y                   Z               Mass
    ------------   -----------------  -----------------  -----------------  -----------------
         S           -1.482723464139    -0.000079545718     0.006342620680    31.972071174400
         O           -1.800384464139    -0.004033545718     1.457651620680    15.994914619570
         O           -1.850000464139     1.254858454282    -0.700506379320    15.994914619570
         O           -1.850617464139    -1.250457545718    -0.708260379320    15.994914619570
         C            0.325043535861     0.000057454282    -0.037182379320    12.000000000000
         C            1.027198535861    -1.208247545718    -0.025617379320    12.000000000000
         C            1.027440535861     1.208245454282    -0.025847379320    12.000000000000
         C            2.423017535861    -1.207917545718     0.003335620680    12.000000000000
         C            2.423287535861     1.207748454282     0.003015620680    12.000000000000
         C            3.126734535861    -0.000124545718     0.022623620680    12.000000000000
         H            0.461321535861    -2.135412545718    -0.062117379320     1.007825032230
         H            0.461600535861     2.135434454282    -0.062425379320     1.007825032230
         H            2.965551535861    -2.152447545718     0.007221620680     1.007825032230
         H            2.966012535861     2.152184454282     0.006673620680     1.007825032230
         H            4.219992835861    -0.000228545718    -0.155895379320     1.007825032230

  Basis Set: AUG-CC-PVTZ
    Blend: AUG-CC-PVTZ
  Basis Set: (AUG-CC-PVTZ AUX)
    Blend: AUG-CC-PVTZ-JKFIT
	 Reference Energy          =    -852.4352600959169877 [Eh]
	 Singles Energy            =      -0.0000000000000000 [Eh]
	 Same-Spin Energy          =      -0.5391152812173403 [Eh]
	 Opposite-Spin Energy      =      -1.5555300430511130 [Eh]
	 Correlation Energy        =      -2.0946453242684533 [Eh]
	 Total Energy              =    -854.5299054201854005 [Eh]

	 ================> DF-SCS-MP2 Energies <==================
	-----------------------------------------------------------
	 SCS Same-Spin Scale       =       0.3333333333333333 [-]
	 SCS Opposite-Spin Scale   =       1.2000000000000000 [-]
	 SCS Same-Spin Energy      =      -0.1797050937391134 [Eh]
	 SCS Opposite-Spin Energy  =      -1.8666360516613354 [Eh]
	 SCS Correlation Energy    =      -2.0463411454004490 [Eh]
	 SCS Total Energy          =    -854.4816012413174349 [Eh]
	-----------------------------------------------------------

  Dipole Moment: [D]
     X:     7.9032      Y:    -0.0014      Z:    -0.2429     Total:     7.9069

*** Psi4 exiting successfully. Buy a developer a beer!
