                               Psi4 1.3.2 release

  ==> Input File <==

--------------------------------------------------------------------------
#psi4
#
memory 32 gb

molecule  {
-1 1
  S       -1.5500650    -0.0000770     0.0055040
  O       -1.8677260    -0.0040310     1.4568130
  O       -1.9173420     1.2548610    -0.7013450
  O       -1.9179590    -1.2504550    -0.7090990
  C        0.2577020     0.0000600    -0.0380210
  C        0.9598570    -1.2082450    -0.0264560
  C        0.9600990     1.2082480    -0.0266860
  C        2.3556760    -1.2079150     0.0024970
  C        2.3559460     1.2077510     0.0021770
  C        3.0593930    -0.0001220     0.0217850
  H        0.3939800    -2.1354100    -0.0629560
  H        0.3942590     2.1354370    -0.0632640
  H        2.9031361    -2.1510253    -0.2435644
  H        2.8986710     2.1521870     0.0058350
  H        4.1480910    -0.0001990     0.0432140
units angstrom
no_reorient  #important for SAPT in psi4, default
symmetry c1  #important for SAPT in psi4, default
}

set PROPERTIES_ORIGIN ["COM"]
properties('MP2/aug-cc-pvtz', properties = ['dipole'])
--------------------------------------------------------------------------

    Molecular point group: c1
  Charge       = -1
  Multiplicity = 1
  Basis Set: AUG-CC-PVTZ
    Blend: AUG-CC-PVTZ
  Basis Set: (AUG-CC-PVTZ AUX)
    Blend: AUG-CC-PVTZ-JKFIT

    Orbital Energies [Eh]
    ---------------------

    Doubly Occupied:

       1A    -92.015625     2A    -20.352571     3A    -20.352548
       4A    -20.351414     5A    -11.133719     6A    -11.131537
       7A    -11.129380     8A    -11.125278     9A    -11.122280
      10A    -11.121984    11A     -8.976341    12A     -6.662067
      13A     -6.661272    14A     -6.661180    15A     -1.271626
      16A     -1.128292    17A     -1.126197    18A     -1.037825
      19A     -0.906823    20A     -0.901241    21A     -0.733147
      22A     -0.711925    23A     -0.640817    24A     -0.582501
      25A     -0.522427    26A     -0.514126    27A     -0.494918
      28A     -0.472481    29A     -0.465068    30A     -0.459445
      31A     -0.411289    32A     -0.393253    33A     -0.376637
      34A     -0.333063    35A     -0.332597    36A     -0.300104
      37A     -0.292509    38A     -0.271602    39A     -0.250416
      40A     -0.224907    41A     -0.215437

  @DF-RHF Final Energy:  -852.43366828239516

   => Energetics <=

    Nuclear Repulsion Energy =            619.0017615111853502
    One-Electron Energy =               -2414.5351241229341213
    Two-Electron Energy =                 943.0996943293536106
    Total Energy =                       -852.4336682823951605
  Basis Set: (AUG-CC-PVTZ AUX)
    Blend: AUG-CC-PVTZ-RI
    Molecular point group: c1

    Geometry (in Angstrom), charge = -1, multiplicity = 1:

       Center              X                  Y                   Z               Mass
    ------------   -----------------  -----------------  -----------------  -----------------
         S           -1.482725812368    -0.000088832713     0.006663588515    31.972071174400
         O           -1.800386812368    -0.004042832713     1.457972588515    15.994914619570
         O           -1.850002812368     1.254849167287    -0.700185411485    15.994914619570
         O           -1.850619812368    -1.250466832713    -0.707939411485    15.994914619570
         C            0.325041187632     0.000048167287    -0.036861411485    12.000000000000
         C            1.027196187632    -1.208256832713    -0.025296411485    12.000000000000
         C            1.027438187632     1.208236167287    -0.025526411485    12.000000000000
         C            2.423015187632    -1.207926832713     0.003656588515    12.000000000000
         C            2.423285187632     1.207739167287     0.003336588515    12.000000000000
         C            3.126732187632    -0.000133832713     0.022944588515    12.000000000000
         H            0.461319187632    -2.135421832713    -0.061796411485     1.007825032230
         H            0.461598187632     2.135425167287    -0.062104411485     1.007825032230
         H            2.970475287632    -2.151037132713    -0.242404811485     1.007825032230
         H            2.966010187632     2.152175167287     0.006994588515     1.007825032230
         H            4.215430187632    -0.000210832713     0.044373588515     1.007825032230

  Basis Set: AUG-CC-PVTZ
    Blend: AUG-CC-PVTZ
  Basis Set: (AUG-CC-PVTZ AUX)
    Blend: AUG-CC-PVTZ-JKFIT
	 Reference Energy          =    -852.4336682823951605 [Eh]
	 Singles Energy            =      -0.0000000000000000 [Eh]
	 Same-Spin Energy          =      -0.5391830596976439 [Eh]
	 Opposite-Spin Energy      =      -1.5557171346075609 [Eh]
	 Correlation Energy        =      -2.0949001943052048 [Eh]
	 Total Energy              =    -854.5285684767003431 [Eh]

	 ================> DF-SCS-MP2 Energies <==================
	-----------------------------------------------------------
	 SCS Same-Spin Scale       =       0.3333333333333333 [-]
	 SCS Opposite-Spin Scale   =       1.2000000000000000 [-]
	 SCS Same-Spin Energy      =      -0.1797276865658813 [Eh]
	 SCS Opposite-Spin Energy  =      -1.8668605615290730 [Eh]
	 SCS Correlation Energy    =      -2.0465882480949542 [Eh]
	 SCS Total Energy          =    -854.4802565304901236 [Eh]
	-----------------------------------------------------------

  Dipole Moment: [D]
     X:     7.9185      Y:     0.0579      Z:    -0.2674     Total:     7.9232

*** Psi4 exiting successfully. Buy a developer a beer!
