                               Psi4 1.3.2 release

  ==> Input File <==

--------------------------------------------------------------------------
#psi4
#
memory 32 gb

molecule  {
0 1
  O        1.4499930     1.0206980    -0.0000040
  O       -1.2728880     1.6029860     0.0000050
  N       -1.7320990    -0.6616920    -0.0000100
  N        1.0253160    -1.1826400     0.0000030
  C        0.5211727     0.0320611     0.1499990
  C       -0.9157640     0.4229260    -0.0000010
  C       -3.1757780    -0.5360000     0.0000030
  C        2.6470610     0.3608020    -0.0000010
  C        2.3925880    -0.9806700     0.0000040
  H       -1.2896900    -1.5740920    -0.0000030
  H       -3.6075680    -0.9997290     0.8912900
  H       -3.6075830    -0.9997540    -0.8912630
  H       -3.4076560     0.5288570    -0.0000100
  H        3.5343540     0.9743460    -0.0000030
  H        3.0931030    -1.8035030     0.0000080
units angstrom
no_reorient  #important for SAPT in psi4, default
symmetry c1  #important for SAPT in psi4, default
}

set PROPERTIES_ORIGIN ["COM"]
properties('MP2/aug-cc-pvtz', properties = ['dipole'])
--------------------------------------------------------------------------

    Molecular point group: c1
  Charge       = 0
  Multiplicity = 1
  Basis Set: AUG-CC-PVTZ
    Blend: AUG-CC-PVTZ
  Basis Set: (AUG-CC-PVTZ AUX)
    Blend: AUG-CC-PVTZ-JKFIT

    Orbital Energies [Eh]
    ---------------------

    Doubly Occupied:

       1A    -20.658664     2A    -20.532800     3A    -15.598989
       4A    -15.596600     5A    -11.374865     6A    -11.358054
       7A    -11.317386     8A    -11.281984     9A    -11.265530
      10A     -1.500428    11A     -1.384499    12A     -1.259447
      13A     -1.233824    14A     -1.060265    15A     -0.970132
      16A     -0.872021    17A     -0.847482    18A     -0.793179
      19A     -0.772507    20A     -0.683015    21A     -0.675003
      22A     -0.656241    23A     -0.627913    24A     -0.620414
      25A     -0.596263    26A     -0.590170    27A     -0.553990
      28A     -0.545142    29A     -0.493381    30A     -0.468041
      31A     -0.446526    32A     -0.399457    33A     -0.354728

  @DF-RHF Final Energy:  -451.60113898142424

   => Energetics <=

    Nuclear Repulsion Energy =            432.7589019419252168
    One-Electron Energy =               -1473.9422029916352130
    Two-Electron Energy =                 589.5821620682858111
    Total Energy =                       -451.6011389814242420
  Basis Set: (AUG-CC-PVTZ AUX)
    Blend: AUG-CC-PVTZ-RI
    Molecular point group: c1

    Geometry (in Angstrom), charge = 0, multiplicity = 1:

       Center              X                  Y                   Z               Mass
    ------------   -----------------  -----------------  -----------------  -----------------
         O            1.408415058281     0.990354963981    -0.014284730848    15.994914619570
         O           -1.314465941719     1.572642963981    -0.014275730848    15.994914619570
         N           -1.773676941719    -0.692035036019    -0.014290730848    14.003074004430
         N            0.983738058281    -1.212983036019    -0.014277730848    14.003074004430
         C            0.479594758281     0.001718063981     0.135718269152    12.000000000000
         C           -0.957341941719     0.392582963981    -0.014281730848    12.000000000000
         C           -3.217355941719    -0.566343036019    -0.014277730848    12.000000000000
         C            2.605483058281     0.330458963981    -0.014281730848    12.000000000000
         C            2.351010058281    -1.011013036019    -0.014276730848    12.000000000000
         H           -1.331267941719    -1.604435036019    -0.014283730848     1.007825032230
         H           -3.649145941719    -1.030072036019     0.877009269152     1.007825032230
         H           -3.649160941719    -1.030097036019    -0.905543730848     1.007825032230
         H           -3.449233941719     0.498513963981    -0.014290730848     1.007825032230
         H            3.492776058281     0.944002963981    -0.014283730848     1.007825032230
         H            3.051525058281    -1.833846036019    -0.014272730848     1.007825032230

  Basis Set: AUG-CC-PVTZ
    Blend: AUG-CC-PVTZ
  Basis Set: (AUG-CC-PVTZ AUX)
    Blend: AUG-CC-PVTZ-JKFIT
	 Reference Energy          =    -451.6011389814242420 [Eh]
	 Singles Energy            =      -0.0000000000000000 [Eh]
	 Same-Spin Energy          =      -0.4628296729863449 [Eh]
	 Opposite-Spin Energy      =      -1.3932438784666514 [Eh]
	 Correlation Energy        =      -1.8560735514529965 [Eh]
	 Total Energy              =    -453.4572125328772358 [Eh]

	 ================> DF-SCS-MP2 Energies <==================
	-----------------------------------------------------------
	 SCS Same-Spin Scale       =       0.3333333333333333 [-]
	 SCS Opposite-Spin Scale   =       1.2000000000000000 [-]
	 SCS Same-Spin Energy      =      -0.1542765576621150 [Eh]
	 SCS Opposite-Spin Energy  =      -1.6718926541599817 [Eh]
	 SCS Correlation Energy    =      -1.8261692118220967 [Eh]
	 SCS Total Energy          =    -453.4273081932463469 [Eh]
	-----------------------------------------------------------

  Dipole Moment: [D]
     X:     1.1940      Y:    -2.7057      Z:     0.0934     Total:     2.9589

*** Psi4 exiting successfully. Buy a developer a beer!
