                               Psi4 1.3.2 release

  ==> Input File <==

--------------------------------------------------------------------------
#psi4
#
memory 32 gb

molecule  {
0 1
  O        1.4499930     1.0206980    -0.0000040
  O       -1.2728880     1.6029860     0.0000050
  N       -1.7320990    -0.6616920    -0.0000100
  N        1.0253160    -1.1826400     0.0000030
  C        0.5211730     0.0320620    -0.0000010
  C       -0.9157640     0.4229260    -0.0000010
  C       -3.1757780    -0.5360000     0.0000030
  C        2.6470610     0.3608020    -0.0000010
  C        2.3925880    -0.9806700     0.0000040
  H       -1.2896900    -1.5740920    -0.0000030
  H       -3.6075680    -0.9997290     0.8912900
  H       -3.6075830    -0.9997540    -0.8912630
  H       -3.4076560     0.5288570    -0.0000100
  H        3.5343540     0.9743460    -0.0000030
  H        3.0931033    -1.8035040    -0.2499920
units angstrom
no_reorient  #important for SAPT in psi4, default
symmetry c1  #important for SAPT in psi4, default
}

set PROPERTIES_ORIGIN ["COM"]
properties('MP2/aug-cc-pvtz', properties = ['dipole'])
--------------------------------------------------------------------------

    Molecular point group: c1
  Charge       = 0
  Multiplicity = 1
  Basis Set: AUG-CC-PVTZ
    Blend: AUG-CC-PVTZ
  Basis Set: (AUG-CC-PVTZ AUX)
    Blend: AUG-CC-PVTZ-JKFIT

    Orbital Energies [Eh]
    ---------------------

    Doubly Occupied:

       1A    -20.659693     2A    -20.533568     3A    -15.597390
       4A    -15.596277     5A    -11.375022     6A    -11.357733
       7A    -11.317089     8A    -11.283850     9A    -11.265984
      10A     -1.504148    11A     -1.385482    12A     -1.261395
      13A     -1.234917    14A     -1.061409    15A     -0.971122
      16A     -0.873397    17A     -0.848102    18A     -0.793423
      19A     -0.773076    20A     -0.681306    21A     -0.680197
      22A     -0.655700    23A     -0.628194    24A     -0.617550
      25A     -0.596679    26A     -0.589982    27A     -0.554419
      28A     -0.546667    29A     -0.491377    30A     -0.470647
      31A     -0.447550    32A     -0.400075    33A     -0.354802

  @DF-RHF Final Energy:  -451.60568092755301

   => Energetics <=

    Nuclear Repulsion Energy =            433.0322313239131518
    One-Electron Energy =               -1474.4593824379765010
    Two-Electron Energy =                 589.8214701865102825
    Total Energy =                       -451.6056809275529531
  Basis Set: (AUG-CC-PVTZ AUX)
    Blend: AUG-CC-PVTZ-RI
    Molecular point group: c1

    Geometry (in Angstrom), charge = 0, multiplicity = 1:

       Center              X                  Y                   Z               Mass
    ------------   -----------------  -----------------  -----------------  -----------------
         O            1.408415027320     0.990354886292     0.001995089843    15.994914619570
         O           -1.314465972680     1.572642886292     0.002004089843    15.994914619570
         N           -1.773676972680    -0.692035113708     0.001989089843    14.003074004430
         N            0.983738027320    -1.212983113708     0.002002089843    14.003074004430
         C            0.479595027320     0.001718886292     0.001998089843    12.000000000000
         C           -0.957341972680     0.392582886292     0.001998089843    12.000000000000
         C           -3.217355972680    -0.566343113708     0.002002089843    12.000000000000
         C            2.605483027320     0.330458886292     0.001998089843    12.000000000000
         C            2.351010027320    -1.011013113708     0.002003089843    12.000000000000
         H           -1.331267972680    -1.604435113708     0.001996089843     1.007825032230
         H           -3.649145972680    -1.030072113708     0.893289089843     1.007825032230
         H           -3.649160972680    -1.030097113708    -0.889263910157     1.007825032230
         H           -3.449233972680     0.498513886292     0.001989089843     1.007825032230
         H            3.492776027320     0.944002886292     0.001996089843     1.007825032230
         H            3.051525327320    -1.833847113708    -0.247992910157     1.007825032230

  Basis Set: AUG-CC-PVTZ
    Blend: AUG-CC-PVTZ
  Basis Set: (AUG-CC-PVTZ AUX)
    Blend: AUG-CC-PVTZ-JKFIT
	 Reference Energy          =    -451.6056809275530100 [Eh]
	 Singles Energy            =      -0.0000000000000000 [Eh]
	 Same-Spin Energy          =      -0.4623723399584383 [Eh]
	 Opposite-Spin Energy      =      -1.3923774652900531 [Eh]
	 Correlation Energy        =      -1.8547498052484914 [Eh]
	 Total Energy              =    -453.4604307328015125 [Eh]

	 ================> DF-SCS-MP2 Energies <==================
	-----------------------------------------------------------
	 SCS Same-Spin Scale       =       0.3333333333333333 [-]
	 SCS Opposite-Spin Scale   =       1.2000000000000000 [-]
	 SCS Same-Spin Energy      =      -0.1541241133194794 [Eh]
	 SCS Opposite-Spin Energy  =      -1.6708529583480638 [Eh]
	 SCS Correlation Energy    =      -1.8249770716675433 [Eh]
	 SCS Total Energy          =    -453.4306579992205570 [Eh]
	-----------------------------------------------------------

  Dipole Moment: [D]
     X:     1.1104      Y:    -2.6590      Z:    -0.1848     Total:     2.8874

*** Psi4 exiting successfully. Buy a developer a beer!
