                               Psi4 1.3.2 release

  ==> Input File <==

--------------------------------------------------------------------------
#psi4
#
memory 32 gb

molecule  {
0 1
  O        1.4499930     1.0206980    -0.0000040
  O       -1.2728880     1.6029860     0.0000050
  N       -1.7320990    -0.6616920    -0.0000100
  N        1.0253160    -1.1826400     0.0000030
  C        0.5211729     0.0320617     0.0499990
  C       -0.9157640     0.4229260    -0.0000010
  C       -3.1757780    -0.5360000     0.0000030
  C        2.6470610     0.3608020    -0.0000010
  C        2.3925880    -0.9806700     0.0000040
  H       -1.2896900    -1.5740920    -0.0000030
  H       -3.6075680    -0.9997290     0.8912900
  H       -3.6075830    -0.9997540    -0.8912630
  H       -3.4076560     0.5288570    -0.0000100
  H        3.5343540     0.9743460    -0.0000030
  H        3.0931030    -1.8035030     0.0000080
units angstrom
no_reorient  #important for SAPT in psi4, default
symmetry c1  #important for SAPT in psi4, default
}

set PROPERTIES_ORIGIN ["COM"]
properties('MP2/aug-cc-pvtz', properties = ['dipole'])
--------------------------------------------------------------------------

    Molecular point group: c1
  Charge       = 0
  Multiplicity = 1
  Basis Set: AUG-CC-PVTZ
    Blend: AUG-CC-PVTZ
  Basis Set: (AUG-CC-PVTZ AUX)
    Blend: AUG-CC-PVTZ-JKFIT

    Orbital Energies [Eh]
    ---------------------

    Doubly Occupied:

       1A    -20.659146     2A    -20.533317     3A    -15.597187
       4A    -15.596491     5A    -11.374859     6A    -11.357539
       7A    -11.316247     8A    -11.281727     9A    -11.265851
      10A     -1.503269    11A     -1.385209    12A     -1.261048
      13A     -1.234692    14A     -1.061367    15A     -0.970954
      16A     -0.873708    17A     -0.849261    18A     -0.793740
      19A     -0.773856    20A     -0.681450    21A     -0.678790
      22A     -0.656760    23A     -0.627906    24A     -0.620953
      25A     -0.597643    26A     -0.591055    27A     -0.554291
      28A     -0.546363    29A     -0.491305    30A     -0.471172
      31A     -0.447337    32A     -0.399916    33A     -0.354705

  @DF-RHF Final Energy:  -451.60877362216860

   => Energetics <=

    Nuclear Repulsion Energy =            433.0968843306549161
    One-Electron Energy =               -1474.5930882142233713
    Two-Electron Energy =                 589.8874302613996861
    Total Energy =                       -451.6087736221686555
  Basis Set: (AUG-CC-PVTZ AUX)
    Blend: AUG-CC-PVTZ-RI
    Molecular point group: c1

    Geometry (in Angstrom), charge = 0, multiplicity = 1:

       Center              X                  Y                   Z               Mass
    ------------   -----------------  -----------------  -----------------  -----------------
         O            1.408415039240     0.990354906858    -0.004764164924    15.994914619570
         O           -1.314465960760     1.572642906858    -0.004755164924    15.994914619570
         N           -1.773676960760    -0.692035093142    -0.004770164924    14.003074004430
         N            0.983738039240    -1.212983093142    -0.004757164924    14.003074004430
         C            0.479594939240     0.001718606858     0.045238835076    12.000000000000
         C           -0.957341960760     0.392582906858    -0.004761164924    12.000000000000
         C           -3.217355960760    -0.566343093142    -0.004757164924    12.000000000000
         C            2.605483039240     0.330458906858    -0.004761164924    12.000000000000
         C            2.351010039240    -1.011013093142    -0.004756164924    12.000000000000
         H           -1.331267960760    -1.604435093142    -0.004763164924     1.007825032230
         H           -3.649145960760    -1.030072093142     0.886529835076     1.007825032230
         H           -3.649160960760    -1.030097093142    -0.896023164924     1.007825032230
         H           -3.449233960760     0.498513906858    -0.004770164924     1.007825032230
         H            3.492776039240     0.944002906858    -0.004763164924     1.007825032230
         H            3.051525039240    -1.833846093142    -0.004752164924     1.007825032230

  Basis Set: AUG-CC-PVTZ
    Blend: AUG-CC-PVTZ
  Basis Set: (AUG-CC-PVTZ AUX)
    Blend: AUG-CC-PVTZ-JKFIT
	 Reference Energy          =    -451.6087736221685986 [Eh]
	 Singles Energy            =      -0.0000000000000000 [Eh]
	 Same-Spin Energy          =      -0.4622618388279397 [Eh]
	 Opposite-Spin Energy      =      -1.3920534281518135 [Eh]
	 Correlation Energy        =      -1.8543152669797531 [Eh]
	 Total Energy              =    -453.4630888891483664 [Eh]

	 ================> DF-SCS-MP2 Energies <==================
	-----------------------------------------------------------
	 SCS Same-Spin Scale       =       0.3333333333333333 [-]
	 SCS Opposite-Spin Scale   =       1.2000000000000000 [-]
	 SCS Same-Spin Energy      =      -0.1540872796093132 [Eh]
	 SCS Opposite-Spin Energy  =      -1.6704641137821763 [Eh]
	 SCS Correlation Energy    =      -1.8245513933914896 [Eh]
	 SCS Total Energy          =    -453.4333250155601149 [Eh]
	-----------------------------------------------------------

  Dipole Moment: [D]
     X:     1.1527      Y:    -2.6963      Z:     0.0325     Total:     2.9326

*** Psi4 exiting successfully. Buy a developer a beer!
