                               Psi4 1.3.2 release

  ==> Input File <==

--------------------------------------------------------------------------
#psi4
#
memory 32 gb

molecule  {
0 1
  O        1.4499930     1.0206980    -0.0000040
  O       -1.2728880     1.6029860     0.0000050
  N       -1.7320990    -0.6616920    -0.0000100
  N        1.0253160    -1.1826400     0.0000030
  C        0.5211725     0.0320604     0.2499990
  C       -0.9157640     0.4229260    -0.0000010
  C       -3.1757780    -0.5360000     0.0000030
  C        2.6470610     0.3608020    -0.0000010
  C        2.3925880    -0.9806700     0.0000040
  H       -1.2896900    -1.5740920    -0.0000030
  H       -3.6075680    -0.9997290     0.8912900
  H       -3.6075830    -0.9997540    -0.8912630
  H       -3.4076560     0.5288570    -0.0000100
  H        3.5343540     0.9743460    -0.0000030
  H        3.0931030    -1.8035030     0.0000080
units angstrom
no_reorient  #important for SAPT in psi4, default
symmetry c1  #important for SAPT in psi4, default
}

set PROPERTIES_ORIGIN ["COM"]
properties('MP2/aug-cc-pvtz', properties = ['dipole'])
--------------------------------------------------------------------------

    Molecular point group: c1
  Charge       = 0
  Multiplicity = 1
  Basis Set: AUG-CC-PVTZ
    Blend: AUG-CC-PVTZ
  Basis Set: (AUG-CC-PVTZ AUX)
    Blend: AUG-CC-PVTZ-JKFIT

    Orbital Energies [Eh]
    ---------------------

    Doubly Occupied:

       1A    -20.657682     2A    -20.531768     3A    -15.603912
       4A    -15.595448     5A    -11.374744     6A    -11.358805
       7A    -11.319842     8A    -11.282604     9A    -11.264884
      10A     -1.494949    11A     -1.383078    12A     -1.256475
      13A     -1.232115    14A     -1.058133    15A     -0.968571
      16A     -0.868956    17A     -0.844060    18A     -0.792079
      19A     -0.769853    20A     -0.683711    21A     -0.670067
      22A     -0.655202    23A     -0.627750    24A     -0.619453
      25A     -0.593597    26A     -0.588359    27A     -0.553366
      28A     -0.542742    29A     -0.496469    30A     -0.463059
      31A     -0.444884    32A     -0.398516    33A     -0.354868

  @DF-RHF Final Energy:  -451.58601149020689

   => Energetics <=

    Nuclear Repulsion Energy =            432.0962631313177553
    One-Electron Energy =               -1472.6645483248785240
    Two-Electron Energy =                 588.9822737033538260
    Total Energy =                       -451.5860114902069427
  Basis Set: (AUG-CC-PVTZ AUX)
    Blend: AUG-CC-PVTZ-RI
    Molecular point group: c1

    Geometry (in Angstrom), charge = 0, multiplicity = 1:

       Center              X                  Y                   Z               Mass
    ------------   -----------------  -----------------  -----------------  -----------------
         O            1.408415077322     0.990355030625    -0.023805296772    15.994914619570
         O           -1.314465922678     1.572643030625    -0.023796296772    15.994914619570
         N           -1.773676922678    -0.692034969375    -0.023811296772    14.003074004430
         N            0.983738077322    -1.212982969375    -0.023798296772    14.003074004430
         C            0.479594577322     0.001717430625     0.226197703228    12.000000000000
         C           -0.957341922678     0.392583030625    -0.023802296772    12.000000000000
         C           -3.217355922678    -0.566342969375    -0.023798296772    12.000000000000
         C            2.605483077322     0.330459030625    -0.023802296772    12.000000000000
         C            2.351010077322    -1.011012969375    -0.023797296772    12.000000000000
         H           -1.331267922678    -1.604434969375    -0.023804296772     1.007825032230
         H           -3.649145922678    -1.030071969375     0.867488703228     1.007825032230
         H           -3.649160922678    -1.030096969375    -0.915064296772     1.007825032230
         H           -3.449233922678     0.498514030625    -0.023811296772     1.007825032230
         H            3.492776077322     0.944003030625    -0.023804296772     1.007825032230
         H            3.051525077322    -1.833845969375    -0.023793296772     1.007825032230

  Basis Set: AUG-CC-PVTZ
    Blend: AUG-CC-PVTZ
  Basis Set: (AUG-CC-PVTZ AUX)
    Blend: AUG-CC-PVTZ-JKFIT
	 Reference Energy          =    -451.5860114902068858 [Eh]
	 Singles Energy            =      -0.0000000000000000 [Eh]
	 Same-Spin Energy          =      -0.4639307366225053 [Eh]
	 Opposite-Spin Energy      =      -1.3958260569468925 [Eh]
	 Correlation Energy        =      -1.8597567935693977 [Eh]
	 Total Energy              =    -453.4457682837762604 [Eh]

	 ================> DF-SCS-MP2 Energies <==================
	-----------------------------------------------------------
	 SCS Same-Spin Scale       =       0.3333333333333333 [-]
	 SCS Opposite-Spin Scale   =       1.2000000000000000 [-]
	 SCS Same-Spin Energy      =      -0.1546435788741684 [Eh]
	 SCS Opposite-Spin Energy  =      -1.6749912683362711 [Eh]
	 SCS Correlation Energy    =      -1.8296348472104396 [Eh]
	 SCS Total Energy          =    -453.4156463374173427 [Eh]
	-----------------------------------------------------------

  Dipole Moment: [D]
     X:     1.2705      Y:    -2.7225      Z:     0.1435     Total:     3.0078

*** Psi4 exiting successfully. Buy a developer a beer!
