                               Psi4 1.3.2 release

  ==> Input File <==

--------------------------------------------------------------------------
#psi4
#
memory 32 gb

molecule  {
0 1
  O        1.4499930     1.0206980    -0.0000040
  O       -1.2728880     1.6029860     0.0000050
  N       -1.7320990    -0.6616920    -0.0000100
  N        1.0253160    -1.1826400     0.0000030
  C        0.5211730     0.0320620    -0.0000010
  C       -0.9157640     0.4229257    -0.1000010
  C       -3.1757780    -0.5360000     0.0000030
  C        2.6470610     0.3608020    -0.0000010
  C        2.3925880    -0.9806700     0.0000040
  H       -1.2896900    -1.5740920    -0.0000030
  H       -3.6075680    -0.9997290     0.8912900
  H       -3.6075830    -0.9997540    -0.8912630
  H       -3.4076560     0.5288570    -0.0000100
  H        3.5343540     0.9743460    -0.0000030
  H        3.0931030    -1.8035030     0.0000080
units angstrom
no_reorient  #important for SAPT in psi4, default
symmetry c1  #important for SAPT in psi4, default
}

set PROPERTIES_ORIGIN ["COM"]
properties('MP2/aug-cc-pvtz', properties = ['dipole'])
--------------------------------------------------------------------------

    Molecular point group: c1
  Charge       = 0
  Multiplicity = 1
  Basis Set: AUG-CC-PVTZ
    Blend: AUG-CC-PVTZ
  Basis Set: (AUG-CC-PVTZ AUX)
    Blend: AUG-CC-PVTZ-JKFIT

    Orbital Energies [Eh]
    ---------------------

    Doubly Occupied:

       1A    -20.659055     2A    -20.534231     3A    -15.597611
       4A    -15.595962     5A    -11.376274     6A    -11.357968
       7A    -11.316000     8A    -11.281645     9A    -11.265795
      10A     -1.503510    11A     -1.383484    12A     -1.260712
      13A     -1.233970    14A     -1.061052    15A     -0.970539
      16A     -0.873398    17A     -0.849315    18A     -0.793599
      19A     -0.773192    20A     -0.681962    21A     -0.678092
      22A     -0.656158    23A     -0.627647    24A     -0.620657
      25A     -0.597118    26A     -0.590907    27A     -0.554114
      28A     -0.545632    29A     -0.490852    30A     -0.471499
      31A     -0.447124    32A     -0.399318    33A     -0.354445

  @DF-RHF Final Energy:  -451.60502008556949

   => Energetics <=

    Nuclear Repulsion Energy =            432.9687588460774350
    One-Electron Energy =               -1474.3418884209645512
    Two-Electron Energy =                 589.7681094893176805
    Total Energy =                       -451.6050200855694357
  Basis Set: (AUG-CC-PVTZ AUX)
    Blend: AUG-CC-PVTZ-RI
    Molecular point group: c1

    Geometry (in Angstrom), charge = 0, multiplicity = 1:

       Center              X                  Y                   Z               Mass
    ------------   -----------------  -----------------  -----------------  -----------------
         O            1.408415029719     0.990354906858     0.009516683963    15.994914619570
         O           -1.314465970281     1.572642906858     0.009525683963    15.994914619570
         N           -1.773676970281    -0.692035093142     0.009510683963    14.003074004430
         N            0.983738029719    -1.212983093142     0.009523683963    14.003074004430
         C            0.479595029719     0.001718906858     0.009519683963    12.000000000000
         C           -0.957341970281     0.392582606858    -0.090480316037    12.000000000000
         C           -3.217355970281    -0.566343093142     0.009523683963    12.000000000000
         C            2.605483029719     0.330458906858     0.009519683963    12.000000000000
         C            2.351010029719    -1.011013093142     0.009524683963    12.000000000000
         H           -1.331267970281    -1.604435093142     0.009517683963     1.007825032230
         H           -3.649145970281    -1.030072093142     0.900810683963     1.007825032230
         H           -3.649160970281    -1.030097093142    -0.881742316037     1.007825032230
         H           -3.449233970281     0.498513906858     0.009510683963     1.007825032230
         H            3.492776029719     0.944002906858     0.009517683963     1.007825032230
         H            3.051525029719    -1.833846093142     0.009528683963     1.007825032230

  Basis Set: AUG-CC-PVTZ
    Blend: AUG-CC-PVTZ
  Basis Set: (AUG-CC-PVTZ AUX)
    Blend: AUG-CC-PVTZ-JKFIT
	 Reference Energy          =    -451.6050200855694925 [Eh]
	 Singles Energy            =      -0.0000000000000000 [Eh]
	 Same-Spin Energy          =      -0.4624839314949168 [Eh]
	 Opposite-Spin Energy      =      -1.3925980849985011 [Eh]
	 Correlation Energy        =      -1.8550820164934181 [Eh]
	 Total Energy              =    -453.4601021020629332 [Eh]

	 ================> DF-SCS-MP2 Energies <==================
	-----------------------------------------------------------
	 SCS Same-Spin Scale       =       0.3333333333333333 [-]
	 SCS Opposite-Spin Scale   =       1.2000000000000000 [-]
	 SCS Same-Spin Energy      =      -0.1541613104983056 [Eh]
	 SCS Opposite-Spin Energy  =      -1.6711177019982013 [Eh]
	 SCS Correlation Energy    =      -1.8252790124965070 [Eh]
	 SCS Total Energy          =    -453.4302990980659729 [Eh]
	-----------------------------------------------------------

  Dipole Moment: [D]
     X:     1.1378      Y:    -2.6879      Z:    -0.0974     Total:     2.9205

*** Psi4 exiting successfully. Buy a developer a beer!
