                               Psi4 1.3.2 release

  ==> Input File <==

--------------------------------------------------------------------------
#psi4
#
memory 32 gb

molecule  {
0 1
  O        1.4499930     1.0206980    -0.0000040
  O       -1.2728880     1.6029860     0.0000050
  N       -1.7320990    -0.6616920    -0.0000100
  N        1.0253160    -1.1826400     0.0000030
  C        0.5211730     0.0320620    -0.0000010
  C       -0.9157640     0.4229260    -0.0000010
  C       -3.1757780    -0.5360000     0.0000030
  C        2.6470610     0.3608020    -0.0000010
  C        2.3925880    -0.9806700     0.0000040
  H       -1.2896900    -1.5740920    -0.0000030
  H       -3.6075680    -0.9997290     0.8912900
  H       -3.6075830    -0.9997540    -0.8912630
  H       -3.4076560     0.5288570    -0.0000100
  H        3.5343539     0.9743471     0.2999970
  H        3.0931030    -1.8035030     0.0000080
units angstrom
no_reorient  #important for SAPT in psi4, default
symmetry c1  #important for SAPT in psi4, default
}

set PROPERTIES_ORIGIN ["COM"]
properties('MP2/aug-cc-pvtz', properties = ['dipole'])
--------------------------------------------------------------------------

    Molecular point group: c1
  Charge       = 0
  Multiplicity = 1
  Basis Set: AUG-CC-PVTZ
    Blend: AUG-CC-PVTZ
  Basis Set: (AUG-CC-PVTZ AUX)
    Blend: AUG-CC-PVTZ-JKFIT

    Orbital Energies [Eh]
    ---------------------

    Doubly Occupied:

       1A    -20.658901     2A    -20.533869     3A    -15.597754
       4A    -15.596647     5A    -11.375315     6A    -11.358533
       7A    -11.318372     8A    -11.282906     9A    -11.266211
      10A     -1.503646    11A     -1.385734    12A     -1.261822
      13A     -1.235306    14A     -1.060921    15A     -0.970792
      16A     -0.874280    17A     -0.846412    18A     -0.794172
      19A     -0.772609    20A     -0.684778    21A     -0.671492
      22A     -0.655596    23A     -0.628567    24A     -0.617915
      25A     -0.597293    26A     -0.589481    27A     -0.554633
      28A     -0.546661    29A     -0.491031    30A     -0.472005
      31A     -0.447902    32A     -0.400330    33A     -0.354790

  @DF-RHF Final Energy:  -451.60420813586933

   => Energetics <=

    Nuclear Repulsion Energy =            432.9838426392511224
    One-Electron Energy =               -1474.3627442819561111
    Two-Electron Energy =                 589.7746935068356606
    Total Energy =                       -451.6042081358692712
  Basis Set: (AUG-CC-PVTZ AUX)
    Blend: AUG-CC-PVTZ-RI
    Molecular point group: c1

    Geometry (in Angstrom), charge = 0, multiplicity = 1:

       Center              X                  Y                   Z               Mass
    ------------   -----------------  -----------------  -----------------  -----------------
         O            1.408415030519     0.990354869501    -0.002402648126    15.994914619570
         O           -1.314465969481     1.572642869501    -0.002393648126    15.994914619570
         N           -1.773676969481    -0.692035130499    -0.002408648126    14.003074004430
         N            0.983738030519    -1.212983130499    -0.002395648126    14.003074004430
         C            0.479595030519     0.001718869501    -0.002399648126    12.000000000000
         C           -0.957341969481     0.392582869501    -0.002399648126    12.000000000000
         C           -3.217355969481    -0.566343130499    -0.002395648126    12.000000000000
         C            2.605483030519     0.330458869501    -0.002399648126    12.000000000000
         C            2.351010030519    -1.011013130499    -0.002394648126    12.000000000000
         H           -1.331267969481    -1.604435130499    -0.002401648126     1.007825032230
         H           -3.649145969481    -1.030072130499     0.888891351874     1.007825032230
         H           -3.649160969481    -1.030097130499    -0.893661648126     1.007825032230
         H           -3.449233969481     0.498513869501    -0.002408648126     1.007825032230
         H            3.492775930519     0.944003969501     0.297598351874     1.007825032230
         H            3.051525030519    -1.833846130499    -0.002390648126     1.007825032230

  Basis Set: AUG-CC-PVTZ
    Blend: AUG-CC-PVTZ
  Basis Set: (AUG-CC-PVTZ AUX)
    Blend: AUG-CC-PVTZ-JKFIT
	 Reference Energy          =    -451.6042081358693281 [Eh]
	 Singles Energy            =      -0.0000000000000000 [Eh]
	 Same-Spin Energy          =      -0.4625006754046507 [Eh]
	 Opposite-Spin Energy      =      -1.3926514362725906 [Eh]
	 Correlation Energy        =      -1.8551521116772411 [Eh]
	 Total Energy              =    -453.4593602475465559 [Eh]

	 ================> DF-SCS-MP2 Energies <==================
	-----------------------------------------------------------
	 SCS Same-Spin Scale       =       0.3333333333333333 [-]
	 SCS Opposite-Spin Scale   =       1.2000000000000000 [-]
	 SCS Same-Spin Energy      =      -0.1541668918015502 [Eh]
	 SCS Opposite-Spin Energy  =      -1.6711817235271087 [Eh]
	 SCS Correlation Energy    =      -1.8253486153286589 [Eh]
	 SCS Total Energy          =    -453.4295567511979925 [Eh]
	-----------------------------------------------------------

  Dipole Moment: [D]
     X:     1.0825      Y:    -2.7388      Z:     0.2578     Total:     2.9562

*** Psi4 exiting successfully. Buy a developer a beer!
