                               Psi4 1.3.2 release

  ==> Input File <==

--------------------------------------------------------------------------
#psi4
#
memory 32 gb

molecule  {
0 1
  O        1.4499930     1.0206980    -0.0000040
  O       -1.2728880     1.6029860     0.0000050
  N       -1.7320990    -0.6616920    -0.0000100
  N        1.0253160    -1.1826400     0.0000030
  C        0.5211730     0.0320620    -0.0000010
  C       -0.9157640     0.4229260    -0.0000010
  C       -3.1757780    -0.5360000     0.0000030
  C        2.6470610     0.3608020    -0.0000010
  C        2.3925880    -0.9806700     0.0000040
  H       -1.2896900    -1.5740920    -0.0000030
  H       -3.6075680    -0.9997290     0.8912900
  H       -3.6075830    -0.9997540    -0.8912630
  H       -3.4076560     0.5288570    -0.0000100
  H        3.5343540     0.9743460    -0.0000030
  H        3.0931030    -1.8035030     0.0000080
units angstrom
no_reorient  #important for SAPT in psi4, default
symmetry c1  #important for SAPT in psi4, default
}

set PROPERTIES_ORIGIN ["COM"]
properties('MP2/aug-cc-pvtz', properties = ['dipole'])
--------------------------------------------------------------------------

    Molecular point group: c1
  Charge       = 0
  Multiplicity = 1
  Basis Set: AUG-CC-PVTZ
    Blend: AUG-CC-PVTZ
  Basis Set: (AUG-CC-PVTZ AUX)
    Blend: AUG-CC-PVTZ-JKFIT

    Orbital Energies [Eh]
    ---------------------

    Doubly Occupied:

       1A    -20.659207     2A    -20.533382     3A    -15.597262
       4A    -15.596178     5A    -11.374855     6A    -11.357469
       7A    -11.316109     8A    -11.281699     9A    -11.265891
      10A     -1.503631    11A     -1.385298    12A     -1.261255
      13A     -1.234802    14A     -1.061507    15A     -0.971059
      16A     -0.873927    17A     -0.849488    18A     -0.793812
      19A     -0.774026    20A     -0.680466    21A     -0.680058
      22A     -0.656826    23A     -0.627900    24A     -0.621025
      25A     -0.597818    26A     -0.591165    27A     -0.554328
      28A     -0.546517    29A     -0.491001    30A     -0.471615
      31A     -0.447438    32A     -0.399973    33A     -0.354705

  @DF-RHF Final Energy:  -451.60973044334293

   => Energetics <=

    Nuclear Repulsion Energy =            433.1394524147492007
    One-Electron Energy =               -1474.6749846391874144
    Two-Electron Energy =                 589.9258017810952879
    Total Energy =                       -451.6097304433428690
  Basis Set: (AUG-CC-PVTZ AUX)
    Blend: AUG-CC-PVTZ-RI
    Molecular point group: c1

    Geometry (in Angstrom), charge = 0, multiplicity = 1:

       Center              X                  Y                   Z               Mass
    ------------   -----------------  -----------------  -----------------  -----------------
         O            1.408415029719     0.990354878296    -0.000003881961    15.994914619570
         O           -1.314465970281     1.572642878296     0.000005118039    15.994914619570
         N           -1.773676970281    -0.692035121704    -0.000009881961    14.003074004430
         N            0.983738029719    -1.212983121704     0.000003118039    14.003074004430
         C            0.479595029719     0.001718878296    -0.000000881961    12.000000000000
         C           -0.957341970281     0.392582878296    -0.000000881961    12.000000000000
         C           -3.217355970281    -0.566343121704     0.000003118039    12.000000000000
         C            2.605483029719     0.330458878296    -0.000000881961    12.000000000000
         C            2.351010029719    -1.011013121704     0.000004118039    12.000000000000
         H           -1.331267970281    -1.604435121704    -0.000002881961     1.007825032230
         H           -3.649145970281    -1.030072121704     0.891290118039     1.007825032230
         H           -3.649160970281    -1.030097121704    -0.891262881961     1.007825032230
         H           -3.449233970281     0.498513878296    -0.000009881961     1.007825032230
         H            3.492776029719     0.944002878296    -0.000002881961     1.007825032230
         H            3.051525029719    -1.833846121704     0.000008118039     1.007825032230

  Basis Set: AUG-CC-PVTZ
    Blend: AUG-CC-PVTZ
  Basis Set: (AUG-CC-PVTZ AUX)
    Blend: AUG-CC-PVTZ-JKFIT
	 Reference Energy          =    -451.6097304433429258 [Eh]
	 Singles Energy            =      -0.0000000000000000 [Eh]
	 Same-Spin Energy          =      -0.4621897957443906 [Eh]
	 Opposite-Spin Energy      =      -1.3919221346634940 [Eh]
	 Correlation Energy        =      -1.8541119304078846 [Eh]
	 Total Energy              =    -453.4638423737508219 [Eh]

	 ================> DF-SCS-MP2 Energies <==================
	-----------------------------------------------------------
	 SCS Same-Spin Scale       =       0.3333333333333333 [-]
	 SCS Opposite-Spin Scale   =       1.2000000000000000 [-]
	 SCS Same-Spin Energy      =      -0.1540632652481302 [Eh]
	 SCS Opposite-Spin Energy  =      -1.6703065615961927 [Eh]
	 SCS Correlation Energy    =      -1.8243698268443229 [Eh]
	 SCS Total Energy          =    -453.4341002701872299 [Eh]
	-----------------------------------------------------------

  Dipole Moment: [D]
     X:     1.1475      Y:    -2.6952      Z:     0.0000     Total:     2.9293

*** Psi4 exiting successfully. Buy a developer a beer!
