                               Psi4 1.3.2 release

  ==> Input File <==

--------------------------------------------------------------------------
#psi4
#
memory 32 gb

molecule  {
0 1
  O        1.4499930     1.0206980    -0.0000040
  O       -1.2728880     1.6029860     0.0000050
  N       -1.7320990    -0.6616920    -0.0000100
  N        1.0253160    -1.1826400     0.0000030
  C        0.5211730     0.0320620    -0.0000010
  C       -0.9157640     0.4229258    -0.0500010
  C       -3.1757780    -0.5360000     0.0000030
  C        2.6470610     0.3608020    -0.0000010
  C        2.3925880    -0.9806700     0.0000040
  H       -1.2896900    -1.5740920    -0.0000030
  H       -3.6075680    -0.9997290     0.8912900
  H       -3.6075830    -0.9997540    -0.8912630
  H       -3.4076560     0.5288570    -0.0000100
  H        3.5343540     0.9743460    -0.0000030
  H        3.0931030    -1.8035030     0.0000080
units angstrom
no_reorient  #important for SAPT in psi4, default
symmetry c1  #important for SAPT in psi4, default
}

set PROPERTIES_ORIGIN ["COM"]
properties('MP2/aug-cc-pvtz', properties = ['dipole'])
--------------------------------------------------------------------------

    Molecular point group: c1
  Charge       = 0
  Multiplicity = 1
  Basis Set: AUG-CC-PVTZ
    Blend: AUG-CC-PVTZ
  Basis Set: (AUG-CC-PVTZ AUX)
    Blend: AUG-CC-PVTZ-JKFIT

    Orbital Energies [Eh]
    ---------------------

    Doubly Occupied:

       1A    -20.659168     2A    -20.533594     3A    -15.597349
       4A    -15.596124     5A    -11.375213     6A    -11.357594
       7A    -11.316082     8A    -11.281685     9A    -11.265867
      10A     -1.503600    11A     -1.384843    12A     -1.261116
      13A     -1.234594    14A     -1.061393    15A     -0.970929
      16A     -0.873794    17A     -0.849444    18A     -0.793757
      19A     -0.773817    20A     -0.681188    21A     -0.679218
      22A     -0.656658    23A     -0.627835    24A     -0.620934
      25A     -0.597640    26A     -0.591103    27A     -0.554275
      28A     -0.546294    29A     -0.490963    30A     -0.471586
      31A     -0.447358    32A     -0.399808    33A     -0.354639

  @DF-RHF Final Energy:  -451.60855408655681

   => Energetics <=

    Nuclear Repulsion Energy =            433.0966580802503358
    One-Electron Energy =               -1474.5915032932359736
    Two-Electron Energy =                 589.8862911264287732
    Total Energy =                       -451.6085540865568646
  Basis Set: (AUG-CC-PVTZ AUX)
    Blend: AUG-CC-PVTZ-RI
    Molecular point group: c1

    Geometry (in Angstrom), charge = 0, multiplicity = 1:

       Center              X                  Y                   Z               Mass
    ------------   -----------------  -----------------  -----------------  -----------------
         O            1.408415029719     0.990354897337     0.004756401001    15.994914619570
         O           -1.314465970281     1.572642897337     0.004765401001    15.994914619570
         N           -1.773676970281    -0.692035102663     0.004750401001    14.003074004430
         N            0.983738029719    -1.212983102663     0.004763401001    14.003074004430
         C            0.479595029719     0.001718897337     0.004759401001    12.000000000000
         C           -0.957341970281     0.392582697337    -0.045240598999    12.000000000000
         C           -3.217355970281    -0.566343102663     0.004763401001    12.000000000000
         C            2.605483029719     0.330458897337     0.004759401001    12.000000000000
         C            2.351010029719    -1.011013102663     0.004764401001    12.000000000000
         H           -1.331267970281    -1.604435102663     0.004757401001     1.007825032230
         H           -3.649145970281    -1.030072102663     0.896050401001     1.007825032230
         H           -3.649160970281    -1.030097102663    -0.886502598999     1.007825032230
         H           -3.449233970281     0.498513897337     0.004750401001     1.007825032230
         H            3.492776029719     0.944002897337     0.004757401001     1.007825032230
         H            3.051525029719    -1.833846102663     0.004768401001     1.007825032230

  Basis Set: AUG-CC-PVTZ
    Blend: AUG-CC-PVTZ
  Basis Set: (AUG-CC-PVTZ AUX)
    Blend: AUG-CC-PVTZ-JKFIT
	 Reference Energy          =    -451.6085540865568078 [Eh]
	 Singles Energy            =      -0.0000000000000000 [Eh]
	 Same-Spin Energy          =      -0.4622637666024432 [Eh]
	 Opposite-Spin Energy      =      -1.3920804326783074 [Eh]
	 Correlation Energy        =      -1.8543441992807506 [Eh]
	 Total Energy              =    -453.4628982858375821 [Eh]

	 ================> DF-SCS-MP2 Energies <==================
	-----------------------------------------------------------
	 SCS Same-Spin Scale       =       0.3333333333333333 [-]
	 SCS Opposite-Spin Scale   =       1.2000000000000000 [-]
	 SCS Same-Spin Energy      =      -0.1540879222008144 [Eh]
	 SCS Opposite-Spin Energy  =      -1.6704965192139689 [Eh]
	 SCS Correlation Energy    =      -1.8245844414147834 [Eh]
	 SCS Total Energy          =    -453.4331385279716073 [Eh]
	-----------------------------------------------------------

  Dipole Moment: [D]
     X:     1.1450      Y:    -2.6934      Z:    -0.0492     Total:     2.9271

*** Psi4 exiting successfully. Buy a developer a beer!
