                               Psi4 1.3.2 release

  ==> Input File <==

--------------------------------------------------------------------------
#psi4
#
memory 32 gb

molecule  {
0 1
  O        1.4499930     1.0206980    -0.0000040
  O       -1.2728880     1.6029860     0.0000050
  N       -1.7320990    -0.6616920    -0.0000100
  N        1.0253160    -1.1826400     0.0000030
  C        0.5211730     0.0320620    -0.0000010
  C       -0.9157640     0.4229260    -0.0000010
  C       -3.1757780    -0.5360000     0.0000030
  C        2.6470610     0.3608020    -0.0000010
  C        2.3925880    -0.9806700     0.0000040
  H       -1.2896900    -1.5740920    -0.0000030
  H       -3.6075680    -0.9997290     0.8912900
  H       -3.6075830    -0.9997540    -0.8912630
  H       -3.4076560     0.5288570    -0.0000100
  H        3.5343540     0.9743460    -0.0000030
  H        3.0931031    -1.8035032    -0.0499920
units angstrom
no_reorient  #important for SAPT in psi4, default
symmetry c1  #important for SAPT in psi4, default
}

set PROPERTIES_ORIGIN ["COM"]
properties('MP2/aug-cc-pvtz', properties = ['dipole'])
--------------------------------------------------------------------------

    Molecular point group: c1
  Charge       = 0
  Multiplicity = 1
  Basis Set: AUG-CC-PVTZ
    Blend: AUG-CC-PVTZ
  Basis Set: (AUG-CC-PVTZ AUX)
    Blend: AUG-CC-PVTZ-JKFIT

    Orbital Energies [Eh]
    ---------------------

    Doubly Occupied:

       1A    -20.659226     2A    -20.533389     3A    -15.597267
       4A    -15.596181     5A    -11.374862     6A    -11.357480
       7A    -11.316149     8A    -11.281786     9A    -11.265895
      10A     -1.503652    11A     -1.385306    12A     -1.261260
      13A     -1.234806    14A     -1.061502    15A     -0.971061
      16A     -0.873902    17A     -0.849428    18A     -0.793794
      19A     -0.773986    20A     -0.680518    21A     -0.680048
      22A     -0.656772    23A     -0.627916    24A     -0.620868
      25A     -0.597772    26A     -0.591135    27A     -0.554332
      28A     -0.546523    29A     -0.491017    30A     -0.471575
      31A     -0.447443    32A     -0.399977    33A     -0.354708

  @DF-RHF Final Energy:  -451.60958290820395

   => Energetics <=

    Nuclear Repulsion Energy =            433.1350382047393168
    One-Electron Energy =               -1474.6661696249857414
    Two-Electron Energy =                 589.9215485120423637
    Total Energy =                       -451.6095829082039472
  Basis Set: (AUG-CC-PVTZ AUX)
    Blend: AUG-CC-PVTZ-RI
    Molecular point group: c1

    Geometry (in Angstrom), charge = 0, multiplicity = 1:

       Center              X                  Y                   Z               Mass
    ------------   -----------------  -----------------  -----------------  -----------------
         O            1.408415028919     0.990354879895     0.000395912399    15.994914619570
         O           -1.314465971081     1.572642879895     0.000404912399    15.994914619570
         N           -1.773676971081    -0.692035120105     0.000389912399    14.003074004430
         N            0.983738028919    -1.212983120105     0.000402912399    14.003074004430
         C            0.479595028919     0.001718879895     0.000398912399    12.000000000000
         C           -0.957341971081     0.392582879895     0.000398912399    12.000000000000
         C           -3.217355971081    -0.566343120105     0.000402912399    12.000000000000
         C            2.605483028919     0.330458879895     0.000398912399    12.000000000000
         C            2.351010028919    -1.011013120105     0.000403912399    12.000000000000
         H           -1.331267971081    -1.604435120105     0.000396912399     1.007825032230
         H           -3.649145971081    -1.030072120105     0.891689912399     1.007825032230
         H           -3.649160971081    -1.030097120105    -0.890863087601     1.007825032230
         H           -3.449233971081     0.498513879895     0.000389912399     1.007825032230
         H            3.492776028919     0.944002879895     0.000396912399     1.007825032230
         H            3.051525128919    -1.833846320105    -0.049592087601     1.007825032230

  Basis Set: AUG-CC-PVTZ
    Blend: AUG-CC-PVTZ
  Basis Set: (AUG-CC-PVTZ AUX)
    Blend: AUG-CC-PVTZ-JKFIT
	 Reference Energy          =    -451.6095829082039472 [Eh]
	 Singles Energy            =      -0.0000000000000000 [Eh]
	 Same-Spin Energy          =      -0.4621971399284378 [Eh]
	 Opposite-Spin Energy      =      -1.3919373660596768 [Eh]
	 Correlation Energy        =      -1.8541345059881147 [Eh]
	 Total Energy              =    -453.4637174141920468 [Eh]

	 ================> DF-SCS-MP2 Energies <==================
	-----------------------------------------------------------
	 SCS Same-Spin Scale       =       0.3333333333333333 [-]
	 SCS Opposite-Spin Scale   =       1.2000000000000000 [-]
	 SCS Same-Spin Energy      =      -0.1540657133094793 [Eh]
	 SCS Opposite-Spin Energy  =      -1.6703248392716121 [Eh]
	 SCS Correlation Energy    =      -1.8243905525810913 [Eh]
	 SCS Total Energy          =    -453.4339734607850119 [Eh]
	-----------------------------------------------------------

  Dipole Moment: [D]
     X:     1.1460      Y:    -2.6937      Z:    -0.0373     Total:     2.9275

*** Psi4 exiting successfully. Buy a developer a beer!
