                               Psi4 1.3.2 release

  ==> Input File <==

--------------------------------------------------------------------------
#psi4
#
memory 32 gb

molecule  {
0 1
  O        1.4499930     1.0206980    -0.0000040
  O       -1.2728880     1.6029860     0.0000050
  N       -1.7320990    -0.6616920    -0.0000100
  N        1.0253160    -1.1826400     0.0000030
  C        0.5211730     0.0320620    -0.0000010
  C       -0.9157641     0.4229251    -0.3000010
  C       -3.1757780    -0.5360000     0.0000030
  C        2.6470610     0.3608020    -0.0000010
  C        2.3925880    -0.9806700     0.0000040
  H       -1.2896900    -1.5740920    -0.0000030
  H       -3.6075680    -0.9997290     0.8912900
  H       -3.6075830    -0.9997540    -0.8912630
  H       -3.4076560     0.5288570    -0.0000100
  H        3.5343540     0.9743460    -0.0000030
  H        3.0931030    -1.8035030     0.0000080
units angstrom
no_reorient  #important for SAPT in psi4, default
symmetry c1  #important for SAPT in psi4, default
}

set PROPERTIES_ORIGIN ["COM"]
properties('MP2/aug-cc-pvtz', properties = ['dipole'])
--------------------------------------------------------------------------

    Molecular point group: c1
  Charge       = 0
  Multiplicity = 1
  Basis Set: AUG-CC-PVTZ
    Blend: AUG-CC-PVTZ
  Basis Set: (AUG-CC-PVTZ AUX)
    Blend: AUG-CC-PVTZ-JKFIT

    Orbital Energies [Eh]
    ---------------------

    Doubly Occupied:

       1A    -20.657909     2A    -20.541114     3A    -15.600216
       4A    -15.594326     5A    -11.386590     6A    -11.361771
       7A    -11.315159     8A    -11.281234     9A    -11.265067
      10A     -1.502592    11A     -1.369603    12A     -1.257287
      13A     -1.227153    14A     -1.057645    15A     -0.966427
      16A     -0.869592    17A     -0.847943    18A     -0.792212
      19A     -0.766535    20A     -0.683901    21A     -0.672619
      22A     -0.650965    23A     -0.625958    24A     -0.617478
      25A     -0.593219    26A     -0.587174    27A     -0.552261
      28A     -0.539066    29A     -0.489730    30A     -0.470591
      31A     -0.445163    32A     -0.394470    33A     -0.352492

  @DF-RHF Final Energy:  -451.56704495374908

   => Energetics <=

    Nuclear Repulsion Energy =            431.6477218610864384
    One-Electron Energy =               -1471.7586107345853179
    Two-Electron Energy =                 588.5438439197498610
    Total Energy =                       -451.5670449537490185
  Basis Set: (AUG-CC-PVTZ AUX)
    Blend: AUG-CC-PVTZ-RI
    Molecular point group: c1

    Geometry (in Angstrom), charge = 0, multiplicity = 1:

       Center              X                  Y                   Z               Mass
    ------------   -----------------  -----------------  -----------------  -----------------
         O            1.408415039240     0.990354963981     0.028557815812    15.994914619570
         O           -1.314465960760     1.572642963981     0.028566815812    15.994914619570
         N           -1.773676960760    -0.692035036019     0.028551815812    14.003074004430
         N            0.983738039240    -1.212983036019     0.028564815812    14.003074004430
         C            0.479595039240     0.001718963981     0.028560815812    12.000000000000
         C           -0.957342060760     0.392582063981    -0.271439184188    12.000000000000
         C           -3.217355960760    -0.566343036019     0.028564815812    12.000000000000
         C            2.605483039240     0.330458963981     0.028560815812    12.000000000000
         C            2.351010039240    -1.011013036019     0.028565815812    12.000000000000
         H           -1.331267960760    -1.604435036019     0.028558815812     1.007825032230
         H           -3.649145960760    -1.030072036019     0.919851815812     1.007825032230
         H           -3.649160960760    -1.030097036019    -0.862701184188     1.007825032230
         H           -3.449233960760     0.498513963981     0.028551815812     1.007825032230
         H            3.492776039240     0.944002963981     0.028558815812     1.007825032230
         H            3.051525039240    -1.833846036019     0.028569815812     1.007825032230

  Basis Set: AUG-CC-PVTZ
    Blend: AUG-CC-PVTZ
  Basis Set: (AUG-CC-PVTZ AUX)
    Blend: AUG-CC-PVTZ-JKFIT
	 Reference Energy          =    -451.5670449537490754 [Eh]
	 Singles Energy            =      -0.0000000000000000 [Eh]
	 Same-Spin Energy          =      -0.4647963324004412 [Eh]
	 Opposite-Spin Energy      =      -1.3989154730190489 [Eh]
	 Correlation Energy        =      -1.8637118054194901 [Eh]
	 Total Energy              =    -453.4307567591685597 [Eh]

	 ================> DF-SCS-MP2 Energies <==================
	-----------------------------------------------------------
	 SCS Same-Spin Scale       =       0.3333333333333333 [-]
	 SCS Opposite-Spin Scale   =       1.2000000000000000 [-]
	 SCS Same-Spin Energy      =      -0.1549321108001470 [Eh]
	 SCS Opposite-Spin Energy  =      -1.6786985676228587 [Eh]
	 SCS Correlation Energy    =      -1.8336306784230059 [Eh]
	 SCS Total Energy          =    -453.4006756321720673 [Eh]
	-----------------------------------------------------------

  Dipole Moment: [D]
     X:     1.0607      Y:    -2.6300      Z:    -0.2626     Total:     2.8480

*** Psi4 exiting successfully. Buy a developer a beer!
