                               Psi4 1.3.2 release

  ==> Input File <==

--------------------------------------------------------------------------
#psi4
#
memory 32 gb

molecule  {
0 1
  O        1.4499930     1.0206980    -0.0000040
  O       -1.2728880     1.6029860     0.0000050
  N       -1.7320990    -0.6616920    -0.0000100
  N        1.0253160    -1.1826400     0.0000030
  C        0.5211730     0.0320620    -0.0000010
  C       -0.9157641     0.4229255    -0.1500010
  C       -3.1757780    -0.5360000     0.0000030
  C        2.6470610     0.3608020    -0.0000010
  C        2.3925880    -0.9806700     0.0000040
  H       -1.2896900    -1.5740920    -0.0000030
  H       -3.6075680    -0.9997290     0.8912900
  H       -3.6075830    -0.9997540    -0.8912630
  H       -3.4076560     0.5288570    -0.0000100
  H        3.5343540     0.9743460    -0.0000030
  H        3.0931030    -1.8035030     0.0000080
units angstrom
no_reorient  #important for SAPT in psi4, default
symmetry c1  #important for SAPT in psi4, default
}

set PROPERTIES_ORIGIN ["COM"]
properties('MP2/aug-cc-pvtz', properties = ['dipole'])
--------------------------------------------------------------------------

    Molecular point group: c1
  Charge       = 0
  Multiplicity = 1
  Basis Set: AUG-CC-PVTZ
    Blend: AUG-CC-PVTZ
  Basis Set: (AUG-CC-PVTZ AUX)
    Blend: AUG-CC-PVTZ-JKFIT

    Orbital Energies [Eh]
    ---------------------

    Doubly Occupied:

       1A    -20.658869     2A    -20.535296     3A    -15.598043
       4A    -15.595697     5A    -11.378007     6A    -11.358585
       7A    -11.315865     8A    -11.281580     9A    -11.265677
      10A     -1.503363    11A     -1.381242    12A     -1.260076
      13A     -1.232920    14A     -1.060494    15A     -0.969891
      16A     -0.872756    17A     -0.849100    18A     -0.793349
      19A     -0.772148    20A     -0.682625    21A     -0.676852
      22A     -0.655328    23A     -0.627348    24A     -0.620185
      25A     -0.596295    26A     -0.590536    27A     -0.553842
      28A     -0.544547    29A     -0.490671    30A     -0.471355
      31A     -0.446754    32A     -0.398517    33A     -0.354125

  @DF-RHF Final Energy:  -451.59911556009922

   => Energetics <=

    Nuclear Repulsion Energy =            432.7571856400162460
    One-Electron Energy =               -1473.9287222637151444
    Two-Electron Energy =                 589.5724210635997906
    Total Energy =                       -451.5991155600992215
  Basis Set: (AUG-CC-PVTZ AUX)
    Blend: AUG-CC-PVTZ-RI
    Molecular point group: c1

    Geometry (in Angstrom), charge = 0, multiplicity = 1:

       Center              X                  Y                   Z               Mass
    ------------   -----------------  -----------------  -----------------  -----------------
         O            1.408415039240     0.990354925899     0.014276966925    15.994914619570
         O           -1.314465960760     1.572642925899     0.014285966925    15.994914619570
         N           -1.773676960760    -0.692035074101     0.014270966925    14.003074004430
         N            0.983738039240    -1.212983074101     0.014283966925    14.003074004430
         C            0.479595039240     0.001718925899     0.014279966925    12.000000000000
         C           -0.957342060760     0.392582425899    -0.135720033075    12.000000000000
         C           -3.217355960760    -0.566343074101     0.014283966925    12.000000000000
         C            2.605483039240     0.330458925899     0.014279966925    12.000000000000
         C            2.351010039240    -1.011013074101     0.014284966925    12.000000000000
         H           -1.331267960760    -1.604435074101     0.014277966925     1.007825032230
         H           -3.649145960760    -1.030072074101     0.905570966925     1.007825032230
         H           -3.649160960760    -1.030097074101    -0.876982033075     1.007825032230
         H           -3.449233960760     0.498513925899     0.014270966925     1.007825032230
         H            3.492776039240     0.944002925899     0.014277966925     1.007825032230
         H            3.051525039240    -1.833846074101     0.014288966925     1.007825032230

  Basis Set: AUG-CC-PVTZ
    Blend: AUG-CC-PVTZ
  Basis Set: (AUG-CC-PVTZ AUX)
    Blend: AUG-CC-PVTZ-JKFIT
	 Reference Energy          =    -451.5991155600992215 [Eh]
	 Singles Energy            =      -0.0000000000000000 [Eh]
	 Same-Spin Energy          =      -0.4628485130851479 [Eh]
	 Opposite-Spin Energy      =      -1.3935258821144489 [Eh]
	 Correlation Energy        =      -1.8563743951995968 [Eh]
	 Total Energy              =    -453.4554899552988445 [Eh]

	 ================> DF-SCS-MP2 Energies <==================
	-----------------------------------------------------------
	 SCS Same-Spin Scale       =       0.3333333333333333 [-]
	 SCS Opposite-Spin Scale   =       1.2000000000000000 [-]
	 SCS Same-Spin Energy      =      -0.1542828376950493 [Eh]
	 SCS Opposite-Spin Energy  =      -1.6722310585373388 [Eh]
	 SCS Correlation Energy    =      -1.8265138962323881 [Eh]
	 SCS Total Energy          =    -453.4256294563315919 [Eh]
	-----------------------------------------------------------

  Dipole Moment: [D]
     X:     1.1257      Y:    -2.6789      Z:    -0.1437     Total:     2.9094

*** Psi4 exiting successfully. Buy a developer a beer!
