                               Psi4 1.3.2 release

  ==> Input File <==

--------------------------------------------------------------------------
#psi4
#
memory 32 gb

molecule  {
0 1
  O        1.4499930     1.0206980    -0.0000040
  O       -1.2728880     1.6029860     0.0000050
  N       -1.7320990    -0.6616920    -0.0000100
  N        1.0253160    -1.1826400     0.0000030
  C        0.5211728     0.0320614     0.0999990
  C       -0.9157640     0.4229260    -0.0000010
  C       -3.1757780    -0.5360000     0.0000030
  C        2.6470610     0.3608020    -0.0000010
  C        2.3925880    -0.9806700     0.0000040
  H       -1.2896900    -1.5740920    -0.0000030
  H       -3.6075680    -0.9997290     0.8912900
  H       -3.6075830    -0.9997540    -0.8912630
  H       -3.4076560     0.5288570    -0.0000100
  H        3.5343540     0.9743460    -0.0000030
  H        3.0931030    -1.8035030     0.0000080
units angstrom
no_reorient  #important for SAPT in psi4, default
symmetry c1  #important for SAPT in psi4, default
}

set PROPERTIES_ORIGIN ["COM"]
properties('MP2/aug-cc-pvtz', properties = ['dipole'])
--------------------------------------------------------------------------

    Molecular point group: c1
  Charge       = 0
  Multiplicity = 1
  Basis Set: AUG-CC-PVTZ
    Blend: AUG-CC-PVTZ
  Basis Set: (AUG-CC-PVTZ AUX)
    Blend: AUG-CC-PVTZ-JKFIT

    Orbital Energies [Eh]
    ---------------------

    Doubly Occupied:

       1A    -20.658965     2A    -20.533123     3A    -15.597430
       4A    -15.596965     5A    -11.374866     6A    -11.357743
       7A    -11.316666     8A    -11.281819     9A    -11.265731
      10A     -1.502195    11A     -1.384942    12A     -1.260438
      13A     -1.234365    14A     -1.060950    15A     -0.970642
      16A     -0.873063    17A     -0.848588    18A     -0.793528
      19A     -0.773348    20A     -0.682350    21A     -0.677048
      22A     -0.656565    23A     -0.627917    24A     -0.620744
      25A     -0.597122    26A     -0.590723    27A     -0.554179
      28A     -0.545903    29A     -0.492149    30A     -0.469921
      31A     -0.447033    32A     -0.399745    33A     -0.354709

  @DF-RHF Final Energy:  -451.60590609701501

   => Energetics <=

    Nuclear Repulsion Energy =            432.9696090397657144
    One-Electron Energy =               -1474.3480815510361026
    Two-Electron Energy =                 589.7725664142554933
    Total Energy =                       -451.6059060970150085
  Basis Set: (AUG-CC-PVTZ AUX)
    Blend: AUG-CC-PVTZ-RI
    Molecular point group: c1

    Geometry (in Angstrom), charge = 0, multiplicity = 1:

       Center              X                  Y                   Z               Mass
    ------------   -----------------  -----------------  -----------------  -----------------
         O            1.408415048760     0.990354935420    -0.009524447886    15.994914619570
         O           -1.314465951240     1.572642935420    -0.009515447886    15.994914619570
         N           -1.773676951240    -0.692035064580    -0.009530447886    14.003074004430
         N            0.983738048760    -1.212983064580    -0.009517447886    14.003074004430
         C            0.479594848760     0.001718335420     0.090478552114    12.000000000000
         C           -0.957341951240     0.392582935420    -0.009521447886    12.000000000000
         C           -3.217355951240    -0.566343064580    -0.009517447886    12.000000000000
         C            2.605483048760     0.330458935420    -0.009521447886    12.000000000000
         C            2.351010048760    -1.011013064580    -0.009516447886    12.000000000000
         H           -1.331267951240    -1.604435064580    -0.009523447886     1.007825032230
         H           -3.649145951240    -1.030072064580     0.881769552114     1.007825032230
         H           -3.649160951240    -1.030097064580    -0.900783447886     1.007825032230
         H           -3.449233951240     0.498513935420    -0.009530447886     1.007825032230
         H            3.492776048760     0.944002935420    -0.009523447886     1.007825032230
         H            3.051525048760    -1.833846064580    -0.009512447886     1.007825032230

  Basis Set: AUG-CC-PVTZ
    Blend: AUG-CC-PVTZ
  Basis Set: (AUG-CC-PVTZ AUX)
    Blend: AUG-CC-PVTZ-JKFIT
	 Reference Energy          =    -451.6059060970150085 [Eh]
	 Singles Energy            =      -0.0000000000000000 [Eh]
	 Same-Spin Energy          =      -0.4624762371181392 [Eh]
	 Opposite-Spin Energy      =      -1.3924793820719825 [Eh]
	 Correlation Energy        =      -1.8549556191901218 [Eh]
	 Total Energy              =    -453.4608617162051587 [Eh]

	 ================> DF-SCS-MP2 Energies <==================
	-----------------------------------------------------------
	 SCS Same-Spin Scale       =       0.3333333333333333 [-]
	 SCS Opposite-Spin Scale   =       1.2000000000000000 [-]
	 SCS Same-Spin Energy      =      -0.1541587457060464 [Eh]
	 SCS Opposite-Spin Energy  =      -1.6709752584863791 [Eh]
	 SCS Correlation Energy    =      -1.8251340041924256 [Eh]
	 SCS Total Energy          =    -453.4310401012074294 [Eh]
	-----------------------------------------------------------

  Dipole Moment: [D]
     X:     1.1683      Y:    -2.6999      Z:     0.0640     Total:     2.9425

*** Psi4 exiting successfully. Buy a developer a beer!
