                               Psi4 1.3.2 release

  ==> Input File <==

--------------------------------------------------------------------------
#psi4
#
memory 32 gb

molecule  {
0 1
  O        1.4499930     1.0206980    -0.0000040
  O       -1.2728880     1.6029860     0.0000050
  N       -1.7320990    -0.6616920    -0.0000100
  N        1.0253160    -1.1826400     0.0000030
  C        0.5211730     0.0320620    -0.0000010
  C       -0.9157640     0.4229260    -0.0000010
  C       -3.1757780    -0.5360000     0.0000030
  C        2.6470610     0.3608020    -0.0000010
  C        2.3925880    -0.9806700     0.0000040
  H       -1.2896900    -1.5740920    -0.0000030
  H       -3.6075680    -0.9997290     0.8912900
  H       -3.6075830    -0.9997540    -0.8912630
  H       -3.4076560     0.5288570    -0.0000100
  H        3.5343539     0.9743466     0.1499970
  H        3.0931030    -1.8035030     0.0000080
units angstrom
no_reorient  #important for SAPT in psi4, default
symmetry c1  #important for SAPT in psi4, default
}

set PROPERTIES_ORIGIN ["COM"]
properties('MP2/aug-cc-pvtz', properties = ['dipole'])
--------------------------------------------------------------------------

    Molecular point group: c1
  Charge       = 0
  Multiplicity = 1
  Basis Set: AUG-CC-PVTZ
    Blend: AUG-CC-PVTZ
  Basis Set: (AUG-CC-PVTZ AUX)
    Blend: AUG-CC-PVTZ-JKFIT

    Orbital Energies [Eh]
    ---------------------

    Doubly Occupied:

       1A    -20.659119     2A    -20.533506     3A    -15.597387
       4A    -15.596296     5A    -11.374972     6A    -11.357742
       7A    -11.316685     8A    -11.282007     9A    -11.265973
      10A     -1.503629    11A     -1.385409    12A     -1.261398
      13A     -1.234930    14A     -1.061344    15A     -0.970981
      16A     -0.874015    17A     -0.848640    18A     -0.793902
      19A     -0.773640    20A     -0.683157    21A     -0.676112
      22A     -0.656573    23A     -0.628096    24A     -0.620220
      25A     -0.597684    26A     -0.590844    27A     -0.554407
      28A     -0.546556    29A     -0.491013    30A     -0.471713
      31A     -0.447556    32A     -0.400064    33A     -0.354723

  @DF-RHF Final Energy:  -451.60849488299510

   => Energetics <=

    Nuclear Repulsion Energy =            433.0993004459707549
    One-Electron Energy =               -1474.5950025402878509
    Two-Electron Energy =                 589.8872072113218792
    Total Energy =                       -451.6084948829951600
  Basis Set: (AUG-CC-PVTZ AUX)
    Blend: AUG-CC-PVTZ-RI
    Molecular point group: c1

    Geometry (in Angstrom), charge = 0, multiplicity = 1:

       Center              X                  Y                   Z               Mass
    ------------   -----------------  -----------------  -----------------  -----------------
         O            1.408415030519     0.990354873499    -0.001203265044    15.994914619570
         O           -1.314465969481     1.572642873499    -0.001194265044    15.994914619570
         N           -1.773676969481    -0.692035126501    -0.001209265044    14.003074004430
         N            0.983738030519    -1.212983126501    -0.001196265044    14.003074004430
         C            0.479595030519     0.001718873499    -0.001200265044    12.000000000000
         C           -0.957341969481     0.392582873499    -0.001200265044    12.000000000000
         C           -3.217355969481    -0.566343126501    -0.001196265044    12.000000000000
         C            2.605483030519     0.330458873499    -0.001200265044    12.000000000000
         C            2.351010030519    -1.011013126501    -0.001195265044    12.000000000000
         H           -1.331267969481    -1.604435126501    -0.001202265044     1.007825032230
         H           -3.649145969481    -1.030072126501     0.890090734956     1.007825032230
         H           -3.649160969481    -1.030097126501    -0.892462265044     1.007825032230
         H           -3.449233969481     0.498513873499    -0.001209265044     1.007825032230
         H            3.492775930519     0.944003473499     0.148797734956     1.007825032230
         H            3.051525030519    -1.833846126501    -0.001191265044     1.007825032230

  Basis Set: AUG-CC-PVTZ
    Blend: AUG-CC-PVTZ
  Basis Set: (AUG-CC-PVTZ AUX)
    Blend: AUG-CC-PVTZ-JKFIT
	 Reference Energy          =    -451.6084948829951031 [Eh]
	 Singles Energy            =      -0.0000000000000000 [Eh]
	 Same-Spin Energy          =      -0.4622686757946474 [Eh]
	 Opposite-Spin Energy      =      -1.3920896513034460 [Eh]
	 Correlation Energy        =      -1.8543583270980935 [Eh]
	 Total Energy              =    -453.4628532100932148 [Eh]

	 ================> DF-SCS-MP2 Energies <==================
	-----------------------------------------------------------
	 SCS Same-Spin Scale       =       0.3333333333333333 [-]
	 SCS Opposite-Spin Scale   =       1.2000000000000000 [-]
	 SCS Same-Spin Energy      =      -0.1540895585982158 [Eh]
	 SCS Opposite-Spin Energy  =      -1.6705075815641350 [Eh]
	 SCS Correlation Energy    =      -1.8245971401623509 [Eh]
	 SCS Total Energy          =    -453.4330920231574282 [Eh]
	-----------------------------------------------------------

  Dipole Moment: [D]
     X:     1.1308      Y:    -2.7065      Z:     0.1307     Total:     2.9361

*** Psi4 exiting successfully. Buy a developer a beer!
