                               Psi4 1.3.2 release

  ==> Input File <==

--------------------------------------------------------------------------
#psi4
#
memory 32 gb

molecule  {
0 1
  O        1.4499930     1.0206980    -0.0000040
  O       -1.2728880     1.6029860     0.0000050
  N       -1.7320990    -0.6616920    -0.0000100
  N        1.0253160    -1.1826400     0.0000030
  C        0.5211724     0.0320601     0.2999990
  C       -0.9157640     0.4229260    -0.0000010
  C       -3.1757780    -0.5360000     0.0000030
  C        2.6470610     0.3608020    -0.0000010
  C        2.3925880    -0.9806700     0.0000040
  H       -1.2896900    -1.5740920    -0.0000030
  H       -3.6075680    -0.9997290     0.8912900
  H       -3.6075830    -0.9997540    -0.8912630
  H       -3.4076560     0.5288570    -0.0000100
  H        3.5343540     0.9743460    -0.0000030
  H        3.0931030    -1.8035030     0.0000080
units angstrom
no_reorient  #important for SAPT in psi4, default
symmetry c1  #important for SAPT in psi4, default
}

set PROPERTIES_ORIGIN ["COM"]
properties('MP2/aug-cc-pvtz', properties = ['dipole'])
--------------------------------------------------------------------------

    Molecular point group: c1
  Charge       = 0
  Multiplicity = 1
  Basis Set: AUG-CC-PVTZ
    Blend: AUG-CC-PVTZ
  Basis Set: (AUG-CC-PVTZ AUX)
    Blend: AUG-CC-PVTZ-JKFIT

    Orbital Energies [Eh]
    ---------------------

    Doubly Occupied:

       1A    -20.656979     2A    -20.531059     3A    -15.607228
       4A    -15.594673     5A    -11.374559     6A    -11.359119
       7A    -11.321650     8A    -11.283101     9A    -11.264436
      10A     -1.491328    11A     -1.382099    12A     -1.254592
      13A     -1.230961    14A     -1.056717    15A     -0.967556
      16A     -0.867075    17A     -0.841806    18A     -0.791333
      19A     -0.768079    20A     -0.683768    21A     -0.667231
      22A     -0.654485    23A     -0.627536    24A     -0.618845
      25A     -0.591846    26A     -0.587059    27A     -0.552924
      28A     -0.541119    29A     -0.498166    30A     -0.460205
      31A     -0.443738    32A     -0.397850    33A     -0.355028

  @DF-RHF Final Energy:  -451.57574567057134

   => Energetics <=

    Nuclear Repulsion Energy =            431.6506431685214693
    One-Electron Energy =               -1471.8044776103615732
    Two-Electron Energy =                 588.5780887712686535
    Total Energy =                       -451.5757456705713366
  Basis Set: (AUG-CC-PVTZ AUX)
    Blend: AUG-CC-PVTZ-RI
    Molecular point group: c1

    Geometry (in Angstrom), charge = 0, multiplicity = 1:

       Center              X                  Y                   Z               Mass
    ------------   -----------------  -----------------  -----------------  -----------------
         O            1.408415086842     0.990355059187    -0.028565579734    15.994914619570
         O           -1.314465913158     1.572643059187    -0.028556579734    15.994914619570
         N           -1.773676913158    -0.692034940813    -0.028571579734    14.003074004430
         N            0.983738086842    -1.212982940813    -0.028558579734    14.003074004430
         C            0.479594486842     0.001717159187     0.271437420266    12.000000000000
         C           -0.957341913158     0.392583059187    -0.028562579734    12.000000000000
         C           -3.217355913158    -0.566342940813    -0.028558579734    12.000000000000
         C            2.605483086842     0.330459059187    -0.028562579734    12.000000000000
         C            2.351010086842    -1.011012940813    -0.028557579734    12.000000000000
         H           -1.331267913158    -1.604434940813    -0.028564579734     1.007825032230
         H           -3.649145913158    -1.030071940813     0.862728420266     1.007825032230
         H           -3.649160913158    -1.030096940813    -0.919824579734     1.007825032230
         H           -3.449233913158     0.498514059187    -0.028571579734     1.007825032230
         H            3.492776086842     0.944003059187    -0.028564579734     1.007825032230
         H            3.051525086842    -1.833845940813    -0.028553579734     1.007825032230

  Basis Set: AUG-CC-PVTZ
    Blend: AUG-CC-PVTZ
  Basis Set: (AUG-CC-PVTZ AUX)
    Blend: AUG-CC-PVTZ-JKFIT
	 Reference Energy          =    -451.5757456705713366 [Eh]
	 Singles Energy            =      -0.0000000000000000 [Eh]
	 Same-Spin Energy          =      -0.4646576725597353 [Eh]
	 Opposite-Spin Energy      =      -1.3976007952141800 [Eh]
	 Correlation Energy        =      -1.8622584677739153 [Eh]
	 Total Energy              =    -453.4380041383452635 [Eh]

	 ================> DF-SCS-MP2 Energies <==================
	-----------------------------------------------------------
	 SCS Same-Spin Scale       =       0.3333333333333333 [-]
	 SCS Opposite-Spin Scale   =       1.2000000000000000 [-]
	 SCS Same-Spin Energy      =      -0.1548858908532451 [Eh]
	 SCS Opposite-Spin Energy  =      -1.6771209542570160 [Eh]
	 SCS Correlation Energy    =      -1.8320068451102611 [Eh]
	 SCS Total Energy          =    -453.4077525156815796 [Eh]
	-----------------------------------------------------------

  Dipole Moment: [D]
     X:     1.3170      Y:    -2.7323      Z:     0.1638     Total:     3.0375

*** Psi4 exiting successfully. Buy a developer a beer!
