                               Psi4 1.3.2 release

  ==> Input File <==

--------------------------------------------------------------------------
#psi4
#
memory 32 gb

molecule  {
0 1
  O        1.4499930     1.0206980    -0.0000040
  O       -1.2728880     1.6029860     0.0000050
  N       -1.7320990    -0.6616920    -0.0000100
  N        1.0253160    -1.1826400     0.0000030
  C        0.5211730     0.0320620    -0.0000010
  C       -0.9157641     0.4229252    -0.2500010
  C       -3.1757780    -0.5360000     0.0000030
  C        2.6470610     0.3608020    -0.0000010
  C        2.3925880    -0.9806700     0.0000040
  H       -1.2896900    -1.5740920    -0.0000030
  H       -3.6075680    -0.9997290     0.8912900
  H       -3.6075830    -0.9997540    -0.8912630
  H       -3.4076560     0.5288570    -0.0000100
  H        3.5343540     0.9743460    -0.0000030
  H        3.0931030    -1.8035030     0.0000080
units angstrom
no_reorient  #important for SAPT in psi4, default
symmetry c1  #important for SAPT in psi4, default
}

set PROPERTIES_ORIGIN ["COM"]
properties('MP2/aug-cc-pvtz', properties = ['dipole'])
--------------------------------------------------------------------------

    Molecular point group: c1
  Charge       = 0
  Multiplicity = 1
  Basis Set: AUG-CC-PVTZ
    Blend: AUG-CC-PVTZ
  Basis Set: (AUG-CC-PVTZ AUX)
    Blend: AUG-CC-PVTZ-JKFIT

    Orbital Energies [Eh]
    ---------------------

    Doubly Occupied:

       1A    -20.658293     2A    -20.538729     3A    -15.599365
       4A    -15.594873     5A    -11.383247     6A    -11.360504
       7A    -11.315443     8A    -11.281375     9A    -11.265311
      10A     -1.502902    11A     -1.374251    12A     -1.258309
      13A     -1.229510    14A     -1.058773    15A     -0.967831
      16A     -0.870822    17A     -0.848414    18A     -0.792638
      19A     -0.768810    20A     -0.683595    21A     -0.674099
      22A     -0.652716    23A     -0.626489    24A     -0.618607
      25A     -0.594176    26A     -0.588840    27A     -0.552928
      28A     -0.541225    29A     -0.490106    30A     -0.470900
      31A     -0.445733    32A     -0.396064    33A     -0.353140

  @DF-RHF Final Energy:  -451.58013450357015

   => Energetics <=

    Nuclear Repulsion Energy =            432.0931584230463613
    One-Electron Energy =               -1472.6305485349155333
    Two-Electron Energy =                 588.9572556082989649
    Total Energy =                       -451.5801345035702070
  Basis Set: (AUG-CC-PVTZ AUX)
    Blend: AUG-CC-PVTZ-RI
    Molecular point group: c1

    Geometry (in Angstrom), charge = 0, multiplicity = 1:

       Center              X                  Y                   Z               Mass
    ------------   -----------------  -----------------  -----------------  -----------------
         O            1.408415039240     0.990354954461     0.023797532849    15.994914619570
         O           -1.314465960760     1.572642954461     0.023806532849    15.994914619570
         N           -1.773676960760    -0.692035045539     0.023791532849    14.003074004430
         N            0.983738039240    -1.212983045539     0.023804532849    14.003074004430
         C            0.479595039240     0.001718954461     0.023800532849    12.000000000000
         C           -0.957342060760     0.392582154461    -0.226199467151    12.000000000000
         C           -3.217355960760    -0.566343045539     0.023804532849    12.000000000000
         C            2.605483039240     0.330458954461     0.023800532849    12.000000000000
         C            2.351010039240    -1.011013045539     0.023805532849    12.000000000000
         H           -1.331267960760    -1.604435045539     0.023798532849     1.007825032230
         H           -3.649145960760    -1.030072045539     0.915091532849     1.007825032230
         H           -3.649160960760    -1.030097045539    -0.867461467151     1.007825032230
         H           -3.449233960760     0.498513954461     0.023791532849     1.007825032230
         H            3.492776039240     0.944002954461     0.023798532849     1.007825032230
         H            3.051525039240    -1.833846045539     0.023809532849     1.007825032230

  Basis Set: AUG-CC-PVTZ
    Blend: AUG-CC-PVTZ
  Basis Set: (AUG-CC-PVTZ AUX)
    Blend: AUG-CC-PVTZ-JKFIT
	 Reference Energy          =    -451.5801345035701502 [Eh]
	 Singles Energy            =      -0.0000000000000000 [Eh]
	 Same-Spin Energy          =      -0.4640070778011050 [Eh]
	 Opposite-Spin Energy      =      -1.3966781258733074 [Eh]
	 Correlation Energy        =      -1.8606852036744124 [Eh]
	 Total Energy              =    -453.4408197072445432 [Eh]

	 ================> DF-SCS-MP2 Energies <==================
	-----------------------------------------------------------
	 SCS Same-Spin Scale       =       0.3333333333333333 [-]
	 SCS Opposite-Spin Scale   =       1.2000000000000000 [-]
	 SCS Same-Spin Energy      =      -0.1546690259337017 [Eh]
	 SCS Opposite-Spin Energy  =      -1.6760137510479689 [Eh]
	 SCS Correlation Energy    =      -1.8306827769816705 [Eh]
	 SCS Total Energy          =    -453.4108172805518393 [Eh]
	-----------------------------------------------------------

  Dipole Moment: [D]
     X:     1.0871      Y:    -2.6500      Z:    -0.2271     Total:     2.8733

*** Psi4 exiting successfully. Buy a developer a beer!
