                               Psi4 1.3.2 release

  ==> Input File <==

--------------------------------------------------------------------------
#psi4
#
memory 32 gb

molecule  {
0 1
  O        1.4499930     1.0206980    -0.0000040
  O       -1.2728880     1.6029860     0.0000050
  N       -1.7320990    -0.6616920    -0.0000100
  N        1.0253160    -1.1826400     0.0000030
  C        0.5211730     0.0320620    -0.0000010
  C       -0.9157640     0.4229260    -0.0000010
  C       -3.1757780    -0.5360000     0.0000030
  C        2.6470610     0.3608020    -0.0000010
  C        2.3925880    -0.9806700     0.0000040
  H       -1.2896900    -1.5740920    -0.0000030
  H       -3.6075680    -0.9997290     0.8912900
  H       -3.6075830    -0.9997540    -0.8912630
  H       -3.4076560     0.5288570    -0.0000100
  H        3.5343540     0.9743464     0.0999970
  H        3.0931030    -1.8035030     0.0000080
units angstrom
no_reorient  #important for SAPT in psi4, default
symmetry c1  #important for SAPT in psi4, default
}

set PROPERTIES_ORIGIN ["COM"]
properties('MP2/aug-cc-pvtz', properties = ['dipole'])
--------------------------------------------------------------------------

    Molecular point group: c1
  Charge       = 0
  Multiplicity = 1
  Basis Set: AUG-CC-PVTZ
    Blend: AUG-CC-PVTZ
  Basis Set: (AUG-CC-PVTZ AUX)
    Blend: AUG-CC-PVTZ-JKFIT

    Orbital Energies [Eh]
    ---------------------

    Doubly Occupied:

       1A    -20.659167     2A    -20.533438     3A    -15.597318
       4A    -15.596230     5A    -11.374907     6A    -11.357591
       7A    -11.316366     8A    -11.281836     9A    -11.265928
      10A     -1.503630    11A     -1.385348    12A     -1.261319
      13A     -1.234859    14A     -1.061433    15A     -0.971023
      16A     -0.873966    17A     -0.849104    18A     -0.793852
      19A     -0.773852    20A     -0.682347    21A     -0.677603
      22A     -0.656718    23A     -0.627991    24A     -0.620665
      25A     -0.597758    26A     -0.591030    27A     -0.554363
      28A     -0.546535    29A     -0.491006    30A     -0.471658
      31A     -0.447491    32A     -0.400013    33A     -0.354712

  @DF-RHF Final Energy:  -451.60919474391659

   => Energetics <=

    Nuclear Repulsion Energy =            433.1214985165020153
    One-Electron Energy =               -1474.6392725080334003
    Two-Electron Energy =                 589.9085792476148526
    Total Energy =                       -451.6091947439165324
  Basis Set: (AUG-CC-PVTZ AUX)
    Blend: AUG-CC-PVTZ-RI
    Molecular point group: c1

    Geometry (in Angstrom), charge = 0, multiplicity = 1:

       Center              X                  Y                   Z               Mass
    ------------   -----------------  -----------------  -----------------  -----------------
         O            1.408415029719     0.990354875098    -0.000803470683    15.994914619570
         O           -1.314465970281     1.572642875098    -0.000794470683    15.994914619570
         N           -1.773676970281    -0.692035124902    -0.000809470683    14.003074004430
         N            0.983738029719    -1.212983124902    -0.000796470683    14.003074004430
         C            0.479595029719     0.001718875098    -0.000800470683    12.000000000000
         C           -0.957341970281     0.392582875098    -0.000800470683    12.000000000000
         C           -3.217355970281    -0.566343124902    -0.000796470683    12.000000000000
         C            2.605483029719     0.330458875098    -0.000800470683    12.000000000000
         C            2.351010029719    -1.011013124902    -0.000795470683    12.000000000000
         H           -1.331267970281    -1.604435124902    -0.000802470683     1.007825032230
         H           -3.649145970281    -1.030072124902     0.890490529317     1.007825032230
         H           -3.649160970281    -1.030097124902    -0.892062470683     1.007825032230
         H           -3.449233970281     0.498513875098    -0.000809470683     1.007825032230
         H            3.492776029719     0.944003275098     0.099197529317     1.007825032230
         H            3.051525029719    -1.833846124902    -0.000791470683     1.007825032230

  Basis Set: AUG-CC-PVTZ
    Blend: AUG-CC-PVTZ
  Basis Set: (AUG-CC-PVTZ AUX)
    Blend: AUG-CC-PVTZ-JKFIT
	 Reference Energy          =    -451.6091947439165892 [Eh]
	 Singles Energy            =      -0.0000000000000000 [Eh]
	 Same-Spin Energy          =      -0.4622248841568859 [Eh]
	 Opposite-Spin Energy      =      -1.3919943426067554 [Eh]
	 Correlation Energy        =      -1.8542192267636413 [Eh]
	 Total Energy              =    -453.4634139706802216 [Eh]

	 ================> DF-SCS-MP2 Energies <==================
	-----------------------------------------------------------
	 SCS Same-Spin Scale       =       0.3333333333333333 [-]
	 SCS Opposite-Spin Scale   =       1.2000000000000000 [-]
	 SCS Same-Spin Energy      =      -0.1540749613856286 [Eh]
	 SCS Opposite-Spin Energy  =      -1.6703932111281063 [Eh]
	 SCS Correlation Energy    =      -1.8244681725137351 [Eh]
	 SCS Total Energy          =    -453.4336629164303076 [Eh]
	-----------------------------------------------------------

  Dipole Moment: [D]
     X:     1.1400      Y:    -2.7002      Z:     0.0874     Total:     2.9323

*** Psi4 exiting successfully. Buy a developer a beer!
