                               Psi4 1.3.2 release

  ==> Input File <==

--------------------------------------------------------------------------
#psi4
#
memory 32 gb

molecule  {
0 1
  O        1.4499930     1.0206980    -0.0000040
  O       -1.2728880     1.6029860     0.0000050
  N       -1.7320990    -0.6616920    -0.0000100
  N        1.0253160    -1.1826400     0.0000030
  C        0.5211730     0.0320620    -0.0000010
  C       -0.9157640     0.4229260    -0.0000010
  C       -3.1757780    -0.5360000     0.0000030
  C        2.6470610     0.3608020    -0.0000010
  C        2.3925880    -0.9806700     0.0000040
  H       -1.2896900    -1.5740920    -0.0000030
  H       -3.6075680    -0.9997290     0.8912900
  H       -3.6075830    -0.9997540    -0.8912630
  H       -3.4076560     0.5288570    -0.0000100
  H        3.5343540     0.9743460    -0.0000030
  H        3.0931032    -1.8035036    -0.1499920
units angstrom
no_reorient  #important for SAPT in psi4, default
symmetry c1  #important for SAPT in psi4, default
}

set PROPERTIES_ORIGIN ["COM"]
properties('MP2/aug-cc-pvtz', properties = ['dipole'])
--------------------------------------------------------------------------

    Molecular point group: c1
  Charge       = 0
  Multiplicity = 1
  Basis Set: AUG-CC-PVTZ
    Blend: AUG-CC-PVTZ
  Basis Set: (AUG-CC-PVTZ AUX)
    Blend: AUG-CC-PVTZ-JKFIT

    Orbital Energies [Eh]
    ---------------------

    Doubly Occupied:

       1A    -20.659383     2A    -20.533449     3A    -15.597308
       4A    -15.596211     5A    -11.374915     6A    -11.357564
       7A    -11.316466     8A    -11.282483     9A    -11.265925
      10A     -1.503818    11A     -1.385365    12A     -1.261304
      13A     -1.234842    14A     -1.061466    15A     -0.971080
      16A     -0.873710    17A     -0.848965    18A     -0.793661
      19A     -0.773677    20A     -0.680838    21A     -0.680053
      22A     -0.656371    23A     -0.628028    24A     -0.619667
      25A     -0.597398    26A     -0.590847    27A     -0.554361
      28A     -0.546571    29A     -0.491142    30A     -0.471257
      31A     -0.447479    32A     -0.400009    33A     -0.354738

  @DF-RHF Final Energy:  -451.60835655663556

   => Energetics <=

    Nuclear Repulsion Energy =            433.1001115295040336
    One-Electron Energy =               -1474.5962335466626882
    Two-Electron Energy =                 589.8877654605229282
    Total Energy =                       -451.6083565566356128
  Basis Set: (AUG-CC-PVTZ AUX)
    Blend: AUG-CC-PVTZ-RI
    Molecular point group: c1

    Geometry (in Angstrom), charge = 0, multiplicity = 1:

       Center              X                  Y                   Z               Mass
    ------------   -----------------  -----------------  -----------------  -----------------
         O            1.408415028120     0.990354883094     0.001195501121    15.994914619570
         O           -1.314465971880     1.572642883094     0.001204501121    15.994914619570
         N           -1.773676971880    -0.692035116906     0.001189501121    14.003074004430
         N            0.983738028120    -1.212983116906     0.001202501121    14.003074004430
         C            0.479595028120     0.001718883094     0.001198501121    12.000000000000
         C           -0.957341971880     0.392582883094     0.001198501121    12.000000000000
         C           -3.217355971880    -0.566343116906     0.001202501121    12.000000000000
         C            2.605483028120     0.330458883094     0.001198501121    12.000000000000
         C            2.351010028120    -1.011013116906     0.001203501121    12.000000000000
         H           -1.331267971880    -1.604435116906     0.001196501121     1.007825032230
         H           -3.649145971880    -1.030072116906     0.892489501121     1.007825032230
         H           -3.649160971880    -1.030097116906    -0.890063498879     1.007825032230
         H           -3.449233971880     0.498513883094     0.001189501121     1.007825032230
         H            3.492776028120     0.944002883094     0.001196501121     1.007825032230
         H            3.051525228120    -1.833846716906    -0.148792498879     1.007825032230

  Basis Set: AUG-CC-PVTZ
    Blend: AUG-CC-PVTZ
  Basis Set: (AUG-CC-PVTZ AUX)
    Blend: AUG-CC-PVTZ-JKFIT
	 Reference Energy          =    -451.6083565566355560 [Eh]
	 Singles Energy            =      -0.0000000000000000 [Eh]
	 Same-Spin Energy          =      -0.4622558973296685 [Eh]
	 Opposite-Spin Energy      =      -1.3920715483111195 [Eh]
	 Correlation Energy        =      -1.8543274456407879 [Eh]
	 Total Energy              =    -453.4626840022763190 [Eh]

	 ================> DF-SCS-MP2 Energies <==================
	-----------------------------------------------------------
	 SCS Same-Spin Scale       =       0.3333333333333333 [-]
	 SCS Opposite-Spin Scale   =       1.2000000000000000 [-]
	 SCS Same-Spin Energy      =      -0.1540852991098895 [Eh]
	 SCS Opposite-Spin Energy  =      -1.6704858579733433 [Eh]
	 SCS Correlation Energy    =      -1.8245711570832328 [Eh]
	 SCS Total Energy          =    -453.4329277137188114 [Eh]
	-----------------------------------------------------------

  Dipole Moment: [D]
     X:     1.1340      Y:    -2.6819      Z:    -0.1116     Total:     2.9139

*** Psi4 exiting successfully. Buy a developer a beer!
