                               Psi4 1.3.2 release

  ==> Input File <==

--------------------------------------------------------------------------
#psi4
#
memory 32 gb

molecule  {
0 1
  O        1.4499930     1.0206980    -0.0000040
  O       -1.2728880     1.6029860     0.0000050
  N       -1.7320990    -0.6616920    -0.0000100
  N        1.0253160    -1.1826400     0.0000030
  C        0.5211730     0.0320620    -0.0000010
  C       -0.9157640     0.4229260    -0.0000010
  C       -3.1757780    -0.5360000     0.0000030
  C        2.6470610     0.3608020    -0.0000010
  C        2.3925880    -0.9806700     0.0000040
  H       -1.2896900    -1.5740920    -0.0000030
  H       -3.6075680    -0.9997290     0.8912900
  H       -3.6075830    -0.9997540    -0.8912630
  H       -3.4076560     0.5288570    -0.0000100
  H        3.5343540     0.9743460    -0.0000030
  H        3.0931031    -1.8035034    -0.0999920
units angstrom
no_reorient  #important for SAPT in psi4, default
symmetry c1  #important for SAPT in psi4, default
}

set PROPERTIES_ORIGIN ["COM"]
properties('MP2/aug-cc-pvtz', properties = ['dipole'])
--------------------------------------------------------------------------

    Molecular point group: c1
  Charge       = 0
  Multiplicity = 1
  Basis Set: AUG-CC-PVTZ
    Blend: AUG-CC-PVTZ
  Basis Set: (AUG-CC-PVTZ AUX)
    Blend: AUG-CC-PVTZ-JKFIT

    Orbital Energies [Eh]
    ---------------------

    Doubly Occupied:

       1A    -20.659285     2A    -20.533412     3A    -15.597282
       4A    -15.596192     5A    -11.374882     6A    -11.357511
       7A    -11.316268     8A    -11.282049     9A    -11.265906
      10A     -1.503714    11A     -1.385328    12A     -1.261277
      13A     -1.234820    14A     -1.061488    15A     -0.971068
      16A     -0.873827    17A     -0.849252    18A     -0.793743
      19A     -0.773870    20A     -0.680652    21A     -0.680037
      22A     -0.656616    23A     -0.627961    24A     -0.620406
      25A     -0.597632    26A     -0.591036    27A     -0.554342
      28A     -0.546541    29A     -0.491064    30A     -0.471455
      31A     -0.447456    32A     -0.399989    33A     -0.354719

  @DF-RHF Final Energy:  -451.60913247036552

   => Energetics <=

    Nuclear Repulsion Energy =            433.1218611126823248
    One-Electron Energy =               -1474.6398233193608576
    Two-Electron Energy =                 589.9088297363130096
    Total Energy =                       -451.6091324703654664
  Basis Set: (AUG-CC-PVTZ AUX)
    Blend: AUG-CC-PVTZ-RI
    Molecular point group: c1

    Geometry (in Angstrom), charge = 0, multiplicity = 1:

       Center              X                  Y                   Z               Mass
    ------------   -----------------  -----------------  -----------------  -----------------
         O            1.408415028919     0.990354881495     0.000795706760    15.994914619570
         O           -1.314465971081     1.572642881495     0.000804706760    15.994914619570
         N           -1.773676971081    -0.692035118505     0.000789706760    14.003074004430
         N            0.983738028919    -1.212983118505     0.000802706760    14.003074004430
         C            0.479595028919     0.001718881495     0.000798706760    12.000000000000
         C           -0.957341971081     0.392582881495     0.000798706760    12.000000000000
         C           -3.217355971081    -0.566343118505     0.000802706760    12.000000000000
         C            2.605483028919     0.330458881495     0.000798706760    12.000000000000
         C            2.351010028919    -1.011013118505     0.000803706760    12.000000000000
         H           -1.331267971081    -1.604435118505     0.000796706760     1.007825032230
         H           -3.649145971081    -1.030072118505     0.892089706760     1.007825032230
         H           -3.649160971081    -1.030097118505    -0.890463293240     1.007825032230
         H           -3.449233971081     0.498513881495     0.000789706760     1.007825032230
         H            3.492776028919     0.944002881495     0.000796706760     1.007825032230
         H            3.051525128919    -1.833846518505    -0.099192293240     1.007825032230

  Basis Set: AUG-CC-PVTZ
    Blend: AUG-CC-PVTZ
  Basis Set: (AUG-CC-PVTZ AUX)
    Blend: AUG-CC-PVTZ-JKFIT
	 Reference Energy          =    -451.6091324703655232 [Eh]
	 Singles Energy            =      -0.0000000000000000 [Eh]
	 Same-Spin Energy          =      -0.4622191847577630 [Eh]
	 Opposite-Spin Energy      =      -1.3919853960787361 [Eh]
	 Correlation Energy        =      -1.8542045808364991 [Eh]
	 Total Energy              =    -453.4633370512020178 [Eh]

	 ================> DF-SCS-MP2 Energies <==================
	-----------------------------------------------------------
	 SCS Same-Spin Scale       =       0.3333333333333333 [-]
	 SCS Opposite-Spin Scale   =       1.2000000000000000 [-]
	 SCS Same-Spin Energy      =      -0.1540730615859210 [Eh]
	 SCS Opposite-Spin Energy  =      -1.6703824752944831 [Eh]
	 SCS Correlation Energy    =      -1.8244555368804041 [Eh]
	 SCS Total Energy          =    -453.4335880072459304 [Eh]
	-----------------------------------------------------------

  Dipole Moment: [D]
     X:     1.1414      Y:    -2.6892      Z:    -0.0746     Total:     2.9224

*** Psi4 exiting successfully. Buy a developer a beer!
