                               Psi4 1.3.2 release

  ==> Input File <==

--------------------------------------------------------------------------
#psi4
#
memory 32 gb

molecule  {
0 1
  O        1.4499930     1.0206980    -0.0000040
  O       -1.2728880     1.6029860     0.0000050
  N       -1.7320990    -0.6616920    -0.0000100
  N        1.0253160    -1.1826400     0.0000030
  C        0.5211730     0.0320620    -0.0000010
  C       -0.9157641     0.4229254    -0.2000010
  C       -3.1757780    -0.5360000     0.0000030
  C        2.6470610     0.3608020    -0.0000010
  C        2.3925880    -0.9806700     0.0000040
  H       -1.2896900    -1.5740920    -0.0000030
  H       -3.6075680    -0.9997290     0.8912900
  H       -3.6075830    -0.9997540    -0.8912630
  H       -3.4076560     0.5288570    -0.0000100
  H        3.5343540     0.9743460    -0.0000030
  H        3.0931030    -1.8035030     0.0000080
units angstrom
no_reorient  #important for SAPT in psi4, default
symmetry c1  #important for SAPT in psi4, default
}

set PROPERTIES_ORIGIN ["COM"]
properties('MP2/aug-cc-pvtz', properties = ['dipole'])
--------------------------------------------------------------------------

    Molecular point group: c1
  Charge       = 0
  Multiplicity = 1
  Basis Set: AUG-CC-PVTZ
    Blend: AUG-CC-PVTZ
  Basis Set: (AUG-CC-PVTZ AUX)
    Blend: AUG-CC-PVTZ-JKFIT

    Orbital Energies [Eh]
    ---------------------

    Doubly Occupied:

       1A    -20.658614     2A    -20.536794     3A    -15.598633
       4A    -15.595332     5A    -11.380356     6A    -11.359436
       7A    -11.315679     8A    -11.281490     9A    -11.265516
      10A     -1.503159    11A     -1.378150    12A     -1.259257
      13A     -1.231435    14A     -1.059729    15A     -0.968987
      16A     -0.871888    17A     -0.848800    18A     -0.793023
      19A     -0.770686    20A     -0.683169    21A     -0.675516
      22A     -0.654177    23A     -0.626957    24A     -0.619506
      25A     -0.595261    26A     -0.589900    27A     -0.553450
      28A     -0.543067    29A     -0.490421    30A     -0.471156
      31A     -0.446278    32A     -0.397424    33A     -0.353688

  @DF-RHF Final Energy:  -451.59082450751953

   => Energetics <=

    Nuclear Repulsion Energy =            432.4642688628577503
    One-Electron Energy =               -1473.3563209225428636
    Two-Electron Energy =                 589.3012275521655283
    Total Energy =                       -451.5908245075195282
  Basis Set: (AUG-CC-PVTZ AUX)
    Blend: AUG-CC-PVTZ-RI
    Molecular point group: c1

    Geometry (in Angstrom), charge = 0, multiplicity = 1:

       Center              X                  Y                   Z               Mass
    ------------   -----------------  -----------------  -----------------  -----------------
         O            1.408415039240     0.990354935420     0.019037249887    15.994914619570
         O           -1.314465960760     1.572642935420     0.019046249887    15.994914619570
         N           -1.773676960760    -0.692035064580     0.019031249887    14.003074004430
         N            0.983738039240    -1.212983064580     0.019044249887    14.003074004430
         C            0.479595039240     0.001718935420     0.019040249887    12.000000000000
         C           -0.957342060760     0.392582335420    -0.180959750113    12.000000000000
         C           -3.217355960760    -0.566343064580     0.019044249887    12.000000000000
         C            2.605483039240     0.330458935420     0.019040249887    12.000000000000
         C            2.351010039240    -1.011013064580     0.019045249887    12.000000000000
         H           -1.331267960760    -1.604435064580     0.019038249887     1.007825032230
         H           -3.649145960760    -1.030072064580     0.910331249887     1.007825032230
         H           -3.649160960760    -1.030097064580    -0.872221750113     1.007825032230
         H           -3.449233960760     0.498513935420     0.019031249887     1.007825032230
         H            3.492776039240     0.944002935420     0.019038249887     1.007825032230
         H            3.051525039240    -1.833846064580     0.019049249887     1.007825032230

  Basis Set: AUG-CC-PVTZ
    Blend: AUG-CC-PVTZ
  Basis Set: (AUG-CC-PVTZ AUX)
    Blend: AUG-CC-PVTZ-JKFIT
	 Reference Energy          =    -451.5908245075195282 [Eh]
	 Singles Energy            =      -0.0000000000000000 [Eh]
	 Same-Spin Energy          =      -0.4633567444108082 [Eh]
	 Opposite-Spin Energy      =      -1.3948832093657328 [Eh]
	 Correlation Energy        =      -1.8582399537765411 [Eh]
	 Total Energy              =    -453.4490644612960750 [Eh]

	 ================> DF-SCS-MP2 Energies <==================
	-----------------------------------------------------------
	 SCS Same-Spin Scale       =       0.3333333333333333 [-]
	 SCS Opposite-Spin Scale   =       1.2000000000000000 [-]
	 SCS Same-Spin Energy      =      -0.1544522481369361 [Eh]
	 SCS Opposite-Spin Energy  =      -1.6738598512388794 [Eh]
	 SCS Correlation Energy    =      -1.8283120993758155 [Eh]
	 SCS Total Energy          =    -453.4191366068953357 [Eh]
	-----------------------------------------------------------

  Dipole Moment: [D]
     X:     1.1088      Y:    -2.6662      Z:    -0.1872     Total:     2.8937

*** Psi4 exiting successfully. Buy a developer a beer!
