                               Psi4 1.3.2 release

  ==> Input File <==

--------------------------------------------------------------------------
#psi4
#
memory 32 gb

molecule  {
0 1
  O        1.4499930     1.0206980    -0.0000040
  O       -1.2728880     1.6029860     0.0000050
  N       -1.7320990    -0.6616920    -0.0000100
  N        1.0253160    -1.1826400     0.0000030
  C        0.5211730     0.0320620    -0.0000010
  C       -0.9157640     0.4229260    -0.0000010
  C       -3.1757780    -0.5360000     0.0000030
  C        2.6470610     0.3608020    -0.0000010
  C        2.3925880    -0.9806700     0.0000040
  H       -1.2896900    -1.5740920    -0.0000030
  H       -3.6075680    -0.9997290     0.8912900
  H       -3.6075830    -0.9997540    -0.8912630
  H       -3.4076560     0.5288570    -0.0000100
  H        3.5343540     0.9743460    -0.0000030
  H        3.0931032    -1.8035038    -0.1999920
units angstrom
no_reorient  #important for SAPT in psi4, default
symmetry c1  #important for SAPT in psi4, default
}

set PROPERTIES_ORIGIN ["COM"]
properties('MP2/aug-cc-pvtz', properties = ['dipole'])
--------------------------------------------------------------------------

    Molecular point group: c1
  Charge       = 0
  Multiplicity = 1
  Basis Set: AUG-CC-PVTZ
    Blend: AUG-CC-PVTZ
  Basis Set: (AUG-CC-PVTZ AUX)
    Blend: AUG-CC-PVTZ-JKFIT

    Orbital Energies [Eh]
    ---------------------

    Doubly Occupied:

       1A    -20.659519     2A    -20.533501     3A    -15.597343
       4A    -15.596239     5A    -11.374962     6A    -11.357638
       7A    -11.316740     8A    -11.283086     9A    -11.265950
      10A     -1.503963    11A     -1.385416    12A     -1.261344
      13A     -1.234875    14A     -1.061439    15A     -0.971097
      16A     -0.873563    17A     -0.848577    18A     -0.793552
      19A     -0.773411    20A     -0.681060    21A     -0.680105
      22A     -0.656058    23A     -0.628107    24A     -0.618695
      25A     -0.597074    26A     -0.590522    27A     -0.554386
      28A     -0.546613    29A     -0.491247    30A     -0.470987
      31A     -0.447510    32A     -0.400038    33A     -0.354765

  @DF-RHF Final Energy:  -451.60722042598235

   => Energetics <=

    Nuclear Repulsion Energy =            433.0700982962279681
    One-Electron Energy =               -1474.5358740312749433
    Two-Electron Energy =                 589.8585553090645135
    Total Energy =                       -451.6072204259824048
  Basis Set: (AUG-CC-PVTZ AUX)
    Blend: AUG-CC-PVTZ-RI
    Molecular point group: c1

    Geometry (in Angstrom), charge = 0, multiplicity = 1:

       Center              X                  Y                   Z               Mass
    ------------   -----------------  -----------------  -----------------  -----------------
         O            1.408415028120     0.990354884693     0.001595295482    15.994914619570
         O           -1.314465971880     1.572642884693     0.001604295482    15.994914619570
         N           -1.773676971880    -0.692035115307     0.001589295482    14.003074004430
         N            0.983738028120    -1.212983115307     0.001602295482    14.003074004430
         C            0.479595028120     0.001718884693     0.001598295482    12.000000000000
         C           -0.957341971880     0.392582884693     0.001598295482    12.000000000000
         C           -3.217355971880    -0.566343115307     0.001602295482    12.000000000000
         C            2.605483028120     0.330458884693     0.001598295482    12.000000000000
         C            2.351010028120    -1.011013115307     0.001603295482    12.000000000000
         H           -1.331267971880    -1.604435115307     0.001596295482     1.007825032230
         H           -3.649145971880    -1.030072115307     0.892889295482     1.007825032230
         H           -3.649160971880    -1.030097115307    -0.889663704518     1.007825032230
         H           -3.449233971880     0.498513884693     0.001589295482     1.007825032230
         H            3.492776028120     0.944002884693     0.001596295482     1.007825032230
         H            3.051525228120    -1.833846915307    -0.198392704518     1.007825032230

  Basis Set: AUG-CC-PVTZ
    Blend: AUG-CC-PVTZ
  Basis Set: (AUG-CC-PVTZ AUX)
    Blend: AUG-CC-PVTZ-JKFIT
	 Reference Energy          =    -451.6072204259823479 [Eh]
	 Singles Energy            =      -0.0000000000000000 [Eh]
	 Same-Spin Energy          =      -0.4623070824955307 [Eh]
	 Opposite-Spin Energy      =      -1.3922010798887539 [Eh]
	 Correlation Energy        =      -1.8545081623842845 [Eh]
	 Total Energy              =    -453.4617285883666113 [Eh]

	 ================> DF-SCS-MP2 Energies <==================
	-----------------------------------------------------------
	 SCS Same-Spin Scale       =       0.3333333333333333 [-]
	 SCS Opposite-Spin Scale   =       1.2000000000000000 [-]
	 SCS Same-Spin Energy      =      -0.1541023608318435 [Eh]
	 SCS Opposite-Spin Energy  =      -1.6706412958665047 [Eh]
	 SCS Correlation Energy    =      -1.8247436566983481 [Eh]
	 SCS Total Energy          =    -453.4319640826806790 [Eh]
	-----------------------------------------------------------

  Dipole Moment: [D]
     X:     1.1236      Y:    -2.6718      Z:    -0.1484     Total:     2.9022

*** Psi4 exiting successfully. Buy a developer a beer!
