                               Psi4 1.3.2 release

  ==> Input File <==

--------------------------------------------------------------------------
#psi4
#
memory 32 gb

molecule  {
0 1
  O        1.4499930     1.0206980    -0.0000040
  O       -1.2728880     1.6029860     0.0000050
  N       -1.7320990    -0.6616920    -0.0000100
  N        1.0253160    -1.1826400     0.0000030
  C        0.5211730     0.0320620    -0.0000010
  C       -0.9157640     0.4229260    -0.0000010
  C       -3.1757780    -0.5360000     0.0000030
  C        2.6470610     0.3608020    -0.0000010
  C        2.3925880    -0.9806700     0.0000040
  H       -1.2896900    -1.5740920    -0.0000030
  H       -3.6075680    -0.9997290     0.8912900
  H       -3.6075830    -0.9997540    -0.8912630
  H       -3.4076560     0.5288570    -0.0000100
  H        3.5343540     0.9743460    -0.0000030
  H        3.0931034    -1.8035042    -0.2999920
units angstrom
no_reorient  #important for SAPT in psi4, default
symmetry c1  #important for SAPT in psi4, default
}

set PROPERTIES_ORIGIN ["COM"]
properties('MP2/aug-cc-pvtz', properties = ['dipole'])
--------------------------------------------------------------------------

    Molecular point group: c1
  Charge       = 0
  Multiplicity = 1
  Basis Set: AUG-CC-PVTZ
    Blend: AUG-CC-PVTZ
  Basis Set: (AUG-CC-PVTZ AUX)
    Blend: AUG-CC-PVTZ-JKFIT

    Orbital Energies [Eh]
    ---------------------

    Doubly Occupied:

       1A    -20.659905     2A    -20.533649     3A    -15.597446
       4A    -15.596328     5A    -11.375097     6A    -11.357850
       7A    -11.317509     8A    -11.284768     9A    -11.266024
      10A     -1.504372    11A     -1.385562    12A     -1.261460
      13A     -1.234970    14A     -1.061380    15A     -0.971156
      16A     -0.873228    17A     -0.847556    18A     -0.793280
      19A     -0.772678    20A     -0.681571    21A     -0.680329
      22A     -0.655321    23A     -0.628285    24A     -0.616310
      25A     -0.596255    26A     -0.589111    27A     -0.554458
      28A     -0.546732    29A     -0.491527    30A     -0.470243
      31A     -0.447597    32A     -0.400121    33A     -0.354848

  @DF-RHF Final Energy:  -451.60369114418313

   => Energetics <=

    Nuclear Repulsion Energy =            432.9870057354909250
    One-Electron Energy =               -1474.3675424195910182
    Two-Electron Energy =                 589.7768455399170762
    Total Energy =                       -451.6036911441831307
  Basis Set: (AUG-CC-PVTZ AUX)
    Blend: AUG-CC-PVTZ-RI
    Molecular point group: c1

    Geometry (in Angstrom), charge = 0, multiplicity = 1:

       Center              X                  Y                   Z               Mass
    ------------   -----------------  -----------------  -----------------  -----------------
         O            1.408415026521     0.990354887891     0.002394884203    15.994914619570
         O           -1.314465973479     1.572642887891     0.002403884203    15.994914619570
         N           -1.773676973479    -0.692035112109     0.002388884203    14.003074004430
         N            0.983738026521    -1.212983112109     0.002401884203    14.003074004430
         C            0.479595026521     0.001718887891     0.002397884203    12.000000000000
         C           -0.957341973479     0.392582887891     0.002397884203    12.000000000000
         C           -3.217355973479    -0.566343112109     0.002401884203    12.000000000000
         C            2.605483026521     0.330458887891     0.002397884203    12.000000000000
         C            2.351010026521    -1.011013112109     0.002402884203    12.000000000000
         H           -1.331267973479    -1.604435112109     0.002395884203     1.007825032230
         H           -3.649145973479    -1.030072112109     0.893688884203     1.007825032230
         H           -3.649160973479    -1.030097112109    -0.888864115797     1.007825032230
         H           -3.449233973479     0.498513887891     0.002388884203     1.007825032230
         H            3.492776026521     0.944002887891     0.002395884203     1.007825032230
         H            3.051525426521    -1.833847312109    -0.297593115797     1.007825032230

  Basis Set: AUG-CC-PVTZ
    Blend: AUG-CC-PVTZ
  Basis Set: (AUG-CC-PVTZ AUX)
    Blend: AUG-CC-PVTZ-JKFIT
	 Reference Energy          =    -451.6036911441831307 [Eh]
	 Singles Energy            =      -0.0000000000000000 [Eh]
	 Same-Spin Energy          =      -0.4624510878620117 [Eh]
	 Opposite-Spin Energy      =      -1.3926022405698930 [Eh]
	 Correlation Energy        =      -1.8550533284319046 [Eh]
	 Total Energy              =    -453.4587444726150238 [Eh]

	 ================> DF-SCS-MP2 Energies <==================
	-----------------------------------------------------------
	 SCS Same-Spin Scale       =       0.3333333333333333 [-]
	 SCS Opposite-Spin Scale   =       1.2000000000000000 [-]
	 SCS Same-Spin Energy      =      -0.1541503626206706 [Eh]
	 SCS Opposite-Spin Energy  =      -1.6711226886838715 [Eh]
	 SCS Correlation Energy    =      -1.8252730513045421 [Eh]
	 SCS Total Energy          =    -453.4289641954876515 [Eh]
	-----------------------------------------------------------

  Dipole Moment: [D]
     X:     1.0945      Y:    -2.6436      Z:    -0.2208     Total:     2.8698

*** Psi4 exiting successfully. Buy a developer a beer!
