                               Psi4 1.3.2 release

  ==> Input File <==

--------------------------------------------------------------------------
#psi4
#
memory 32 gb

molecule  {
0 1
  O        1.4499930     1.0206980    -0.0000040
  O       -1.2728880     1.6029860     0.0000050
  N       -1.7320990    -0.6616920    -0.0000100
  N        1.0253160    -1.1826400     0.0000030
  C        0.5211730     0.0320620    -0.0000010
  C       -0.9157640     0.4229260    -0.0000010
  C       -3.1757780    -0.5360000     0.0000030
  C        2.6470610     0.3608020    -0.0000010
  C        2.3925880    -0.9806700     0.0000040
  H       -1.2896900    -1.5740920    -0.0000030
  H       -3.6075680    -0.9997290     0.8912900
  H       -3.6075830    -0.9997540    -0.8912630
  H       -3.4076560     0.5288570    -0.0000100
  H        3.5343539     0.9743470     0.2499970
  H        3.0931030    -1.8035030     0.0000080
units angstrom
no_reorient  #important for SAPT in psi4, default
symmetry c1  #important for SAPT in psi4, default
}

set PROPERTIES_ORIGIN ["COM"]
properties('MP2/aug-cc-pvtz', properties = ['dipole'])
--------------------------------------------------------------------------

    Molecular point group: c1
  Charge       = 0
  Multiplicity = 1
  Basis Set: AUG-CC-PVTZ
    Blend: AUG-CC-PVTZ
  Basis Set: (AUG-CC-PVTZ AUX)
    Blend: AUG-CC-PVTZ-JKFIT

    Orbital Energies [Eh]
    ---------------------

    Doubly Occupied:

       1A    -20.658983     2A    -20.533723     3A    -15.597607
       4A    -15.596504     5A    -11.375177     6A    -11.358215
       7A    -11.317692     8A    -11.282544     9A    -11.266116
      10A     -1.503636    11A     -1.385603    12A     -1.261651
      13A     -1.235155    14A     -1.061082    15A     -0.970862
      16A     -0.874172    17A     -0.847266    18A     -0.794062
      19A     -0.773007    20A     -0.684361    21A     -0.672994
      22A     -0.656031    23A     -0.628392    24A     -0.618832
      25A     -0.597447    26A     -0.590116    27A     -0.554543
      28A     -0.546621    29A     -0.491027    30A     -0.471886
      31A     -0.447763    32A     -0.400223    33A     -0.354760

  @DF-RHF Final Energy:  -451.60604984340426

   => Energetics <=

    Nuclear Repulsion Energy =            433.0300118334757826
    One-Electron Energy =               -1474.4560158519077504
    Two-Electron Energy =                 589.8199541750276467
    Total Energy =                       -451.6060498434043211
  Basis Set: (AUG-CC-PVTZ AUX)
    Blend: AUG-CC-PVTZ-RI
    Molecular point group: c1

    Geometry (in Angstrom), charge = 0, multiplicity = 1:

       Center              X                  Y                   Z               Mass
    ------------   -----------------  -----------------  -----------------  -----------------
         O            1.408415030519     0.990354870300    -0.002002853765    15.994914619570
         O           -1.314465969481     1.572642870300    -0.001993853765    15.994914619570
         N           -1.773676969481    -0.692035129700    -0.002008853765    14.003074004430
         N            0.983738030519    -1.212983129700    -0.001995853765    14.003074004430
         C            0.479595030519     0.001718870300    -0.001999853765    12.000000000000
         C           -0.957341969481     0.392582870300    -0.001999853765    12.000000000000
         C           -3.217355969481    -0.566343129700    -0.001995853765    12.000000000000
         C            2.605483030519     0.330458870300    -0.001999853765    12.000000000000
         C            2.351010030519    -1.011013129700    -0.001994853765    12.000000000000
         H           -1.331267969481    -1.604435129700    -0.002001853765     1.007825032230
         H           -3.649145969481    -1.030072129700     0.889291146235     1.007825032230
         H           -3.649160969481    -1.030097129700    -0.893261853765     1.007825032230
         H           -3.449233969481     0.498513870300    -0.002008853765     1.007825032230
         H            3.492775930519     0.944003870300     0.247998146235     1.007825032230
         H            3.051525030519    -1.833846129700    -0.001990853765     1.007825032230

  Basis Set: AUG-CC-PVTZ
    Blend: AUG-CC-PVTZ
  Basis Set: (AUG-CC-PVTZ AUX)
    Blend: AUG-CC-PVTZ-JKFIT
	 Reference Energy          =    -451.6060498434042643 [Eh]
	 Singles Energy            =      -0.0000000000000000 [Eh]
	 Same-Spin Energy          =      -0.4624072422678353 [Eh]
	 Opposite-Spin Energy      =      -1.3924163225456152 [Eh]
	 Correlation Energy        =      -1.8548235648134503 [Eh]
	 Total Energy              =    -453.4608734082177079 [Eh]

	 ================> DF-SCS-MP2 Energies <==================
	-----------------------------------------------------------
	 SCS Same-Spin Scale       =       0.3333333333333333 [-]
	 SCS Opposite-Spin Scale   =       1.2000000000000000 [-]
	 SCS Same-Spin Energy      =      -0.1541357474226117 [Eh]
	 SCS Opposite-Spin Energy  =      -1.6708995870547383 [Eh]
	 SCS Correlation Energy    =      -1.8250353344773500 [Eh]
	 SCS Total Energy          =    -453.4310851778816414 [Eh]
	-----------------------------------------------------------

  Dipole Moment: [D]
     X:     1.1019      Y:    -2.7259      Z:     0.2160     Total:     2.9481

*** Psi4 exiting successfully. Buy a developer a beer!
