                               Psi4 1.3.2 release

  ==> Input File <==

--------------------------------------------------------------------------
#psi4
#
memory 32 gb

molecule  {
0 1
  O        1.4499930     1.0206980    -0.0000040
  O       -1.2728880     1.6029860     0.0000050
  N       -1.7320990    -0.6616920    -0.0000100
  N        1.0253160    -1.1826400     0.0000030
  C        0.5211726     0.0320608     0.1999990
  C       -0.9157640     0.4229260    -0.0000010
  C       -3.1757780    -0.5360000     0.0000030
  C        2.6470610     0.3608020    -0.0000010
  C        2.3925880    -0.9806700     0.0000040
  H       -1.2896900    -1.5740920    -0.0000030
  H       -3.6075680    -0.9997290     0.8912900
  H       -3.6075830    -0.9997540    -0.8912630
  H       -3.4076560     0.5288570    -0.0000100
  H        3.5343540     0.9743460    -0.0000030
  H        3.0931030    -1.8035030     0.0000080
units angstrom
no_reorient  #important for SAPT in psi4, default
symmetry c1  #important for SAPT in psi4, default
}

set PROPERTIES_ORIGIN ["COM"]
properties('MP2/aug-cc-pvtz', properties = ['dipole'])
--------------------------------------------------------------------------

    Molecular point group: c1
  Charge       = 0
  Multiplicity = 1
  Basis Set: AUG-CC-PVTZ
    Blend: AUG-CC-PVTZ
  Basis Set: (AUG-CC-PVTZ AUX)
    Blend: AUG-CC-PVTZ-JKFIT

    Orbital Energies [Eh]
    ---------------------

    Doubly Occupied:

       1A    -20.658240     2A    -20.532349     3A    -15.601156
       4A    -15.596093     5A    -11.374834     6A    -11.358428
       7A    -11.318433     8A    -11.282239     9A    -11.265248
      10A     -1.497999    11A     -1.383878    12A     -1.258111
      13A     -1.233072    14A     -1.059322    15A     -0.969436
      16A     -0.870631    17A     -0.845964    18A     -0.792695
      19A     -0.771337    20A     -0.683463    21A     -0.672669
      22A     -0.655787    23A     -0.627867    24A     -0.619979
      25A     -0.595081    26A     -0.589387    27A     -0.553720
      28A     -0.544085    29A     -0.494854    30A     -0.465706
      31A     -0.445812    32A     -0.399050    33A     -0.354775

  @DF-RHF Final Energy:  -451.59449489288693

   => Energetics <=

    Nuclear Repulsion Energy =            432.4668448564927985
    One-Electron Energy =               -1473.3792793343277481
    Two-Electron Energy =                 589.3179395849480215
    Total Energy =                       -451.5944948928869280
  Basis Set: (AUG-CC-PVTZ AUX)
    Blend: AUG-CC-PVTZ-RI
    Molecular point group: c1

    Geometry (in Angstrom), charge = 0, multiplicity = 1:

       Center              X                  Y                   Z               Mass
    ------------   -----------------  -----------------  -----------------  -----------------
         O            1.408415067801     0.990354992543    -0.019045013810    15.994914619570
         O           -1.314465932199     1.572642992543    -0.019036013810    15.994914619570
         N           -1.773676932199    -0.692035007457    -0.019051013810    14.003074004430
         N            0.983738067801    -1.212983007457    -0.019038013810    14.003074004430
         C            0.479594667801     0.001717792543     0.180957986190    12.000000000000
         C           -0.957341932199     0.392582992543    -0.019042013810    12.000000000000
         C           -3.217355932199    -0.566343007457    -0.019038013810    12.000000000000
         C            2.605483067801     0.330458992543    -0.019042013810    12.000000000000
         C            2.351010067801    -1.011013007457    -0.019037013810    12.000000000000
         H           -1.331267932199    -1.604435007457    -0.019044013810     1.007825032230
         H           -3.649145932199    -1.030072007457     0.872248986190     1.007825032230
         H           -3.649160932199    -1.030097007457    -0.910304013810     1.007825032230
         H           -3.449233932199     0.498513992543    -0.019051013810     1.007825032230
         H            3.492776067801     0.944002992543    -0.019044013810     1.007825032230
         H            3.051525067801    -1.833846007457    -0.019033013810     1.007825032230

  Basis Set: AUG-CC-PVTZ
    Blend: AUG-CC-PVTZ
  Basis Set: (AUG-CC-PVTZ AUX)
    Blend: AUG-CC-PVTZ-JKFIT
	 Reference Energy          =    -451.5944948928869280 [Eh]
	 Singles Energy            =      -0.0000000000000000 [Eh]
	 Same-Spin Energy          =      -0.4633172138895252 [Eh]
	 Opposite-Spin Energy      =      -1.3943630057549856 [Eh]
	 Correlation Energy        =      -1.8576802196445108 [Eh]
	 Total Energy              =    -453.4521751125314495 [Eh]

	 ================> DF-SCS-MP2 Energies <==================
	-----------------------------------------------------------
	 SCS Same-Spin Scale       =       0.3333333333333333 [-]
	 SCS Opposite-Spin Scale   =       1.2000000000000000 [-]
	 SCS Same-Spin Energy      =      -0.1544390712965084 [Eh]
	 SCS Opposite-Spin Energy  =      -1.6732356069059826 [Eh]
	 SCS Correlation Energy    =      -1.8276746782024911 [Eh]
	 SCS Total Energy          =    -453.4221695710893982 [Eh]
	-----------------------------------------------------------

  Dipole Moment: [D]
     X:     1.2287      Y:    -2.7134      Z:     0.1201     Total:     2.9810

*** Psi4 exiting successfully. Buy a developer a beer!
