                               Psi4 1.3.2 release

  ==> Input File <==

--------------------------------------------------------------------------
#psi4
#
memory 32 gb

molecule  {
0 1
  O        1.4499930     1.0206980    -0.0000040
  O       -1.2728880     1.6029860     0.0000050
  N       -1.7320990    -0.6616920    -0.0000100
  N        1.0253160    -1.1826400     0.0000030
  C        0.5211730     0.0320620    -0.0000010
  C       -0.9157640     0.4229260    -0.0000010
  C       -3.1757780    -0.5360000     0.0000030
  C        2.6470610     0.3608020    -0.0000010
  C        2.3925880    -0.9806700     0.0000040
  H       -1.2896900    -1.5740920    -0.0000030
  H       -3.6075680    -0.9997290     0.8912900
  H       -3.6075830    -0.9997540    -0.8912630
  H       -3.4076560     0.5288570    -0.0000100
  H        3.5343539     0.9743468     0.1999970
  H        3.0931030    -1.8035030     0.0000080
units angstrom
no_reorient  #important for SAPT in psi4, default
symmetry c1  #important for SAPT in psi4, default
}

set PROPERTIES_ORIGIN ["COM"]
properties('MP2/aug-cc-pvtz', properties = ['dipole'])
--------------------------------------------------------------------------

    Molecular point group: c1
  Charge       = 0
  Multiplicity = 1
  Basis Set: AUG-CC-PVTZ
    Blend: AUG-CC-PVTZ
  Basis Set: (AUG-CC-PVTZ AUX)
    Blend: AUG-CC-PVTZ-JKFIT

    Orbital Energies [Eh]
    ---------------------

    Doubly Occupied:

       1A    -20.659057     2A    -20.533602     3A    -15.597484
       4A    -15.596387     5A    -11.375062     6A    -11.357950
       7A    -11.317128     8A    -11.282243     9A    -11.266036
      10A     -1.503631    11A     -1.385495    12A     -1.261509
      13A     -1.235029    14A     -1.061225    15A     -0.970926
      16A     -0.874084    17A     -0.848019    18A     -0.793972
      19A     -0.773355    20A     -0.683825    21A     -0.674557
      22A     -0.656350    23A     -0.628233    24A     -0.619606
      25A     -0.597579    26A     -0.590553    27A     -0.554467
      28A     -0.546586    29A     -0.491020    30A     -0.471788
      31A     -0.447647    32A     -0.400134    33A     -0.354738

  @DF-RHF Final Energy:  -451.60746195746327

   => Energetics <=

    Nuclear Repulsion Energy =            433.0686655591991325
    One-Electron Energy =               -1474.5337003363388249
    Two-Electron Energy =                 589.8575728196763066
    Total Energy =                       -451.6074619574633289
  Basis Set: (AUG-CC-PVTZ AUX)
    Blend: AUG-CC-PVTZ-RI
    Molecular point group: c1

    Geometry (in Angstrom), charge = 0, multiplicity = 1:

       Center              X                  Y                   Z               Mass
    ------------   -----------------  -----------------  -----------------  -----------------
         O            1.408415030519     0.990354871899    -0.001603059405    15.994914619570
         O           -1.314465969481     1.572642871899    -0.001594059405    15.994914619570
         N           -1.773676969481    -0.692035128101    -0.001609059405    14.003074004430
         N            0.983738030519    -1.212983128101    -0.001596059405    14.003074004430
         C            0.479595030519     0.001718871899    -0.001600059405    12.000000000000
         C           -0.957341969481     0.392582871899    -0.001600059405    12.000000000000
         C           -3.217355969481    -0.566343128101    -0.001596059405    12.000000000000
         C            2.605483030519     0.330458871899    -0.001600059405    12.000000000000
         C            2.351010030519    -1.011013128101    -0.001595059405    12.000000000000
         H           -1.331267969481    -1.604435128101    -0.001602059405     1.007825032230
         H           -3.649145969481    -1.030072128101     0.889690940595     1.007825032230
         H           -3.649160969481    -1.030097128101    -0.892862059405     1.007825032230
         H           -3.449233969481     0.498513871899    -0.001609059405     1.007825032230
         H            3.492775930519     0.944003671899     0.198397940595     1.007825032230
         H            3.051525030519    -1.833846128101    -0.001591059405     1.007825032230

  Basis Set: AUG-CC-PVTZ
    Blend: AUG-CC-PVTZ
  Basis Set: (AUG-CC-PVTZ AUX)
    Blend: AUG-CC-PVTZ-JKFIT
	 Reference Energy          =    -451.6074619574632720 [Eh]
	 Singles Energy            =      -0.0000000000000000 [Eh]
	 Same-Spin Energy          =      -0.4623296480384578 [Eh]
	 Opposite-Spin Energy      =      -1.3922294614370720 [Eh]
	 Correlation Energy        =      -1.8545591094755298 [Eh]
	 Total Energy              =    -453.4620210669388030 [Eh]

	 ================> DF-SCS-MP2 Energies <==================
	-----------------------------------------------------------
	 SCS Same-Spin Scale       =       0.3333333333333333 [-]
	 SCS Opposite-Spin Scale   =       1.2000000000000000 [-]
	 SCS Same-Spin Energy      =      -0.1541098826794859 [Eh]
	 SCS Opposite-Spin Energy  =      -1.6706753537244865 [Eh]
	 SCS Correlation Energy    =      -1.8247852364039725 [Eh]
	 SCS Total Energy          =    -453.4322471938672265 [Eh]
	-----------------------------------------------------------

  Dipole Moment: [D]
     X:     1.1180      Y:    -2.7151      Z:     0.1736     Total:     2.9414

*** Psi4 exiting successfully. Buy a developer a beer!
