                               Psi4 1.3.2 release

  ==> Input File <==

--------------------------------------------------------------------------
#psi4
#
memory 32 gb

molecule  {
0 1
  O        1.4499930     1.0206980    -0.0000040
  O       -1.2728880     1.6029860     0.0000050
  N       -1.7320990    -0.6616920    -0.0000100
  N        1.0253160    -1.1826400     0.0000030
  C        0.5211730     0.0320620    -0.0000010
  C       -0.9157640     0.4229260    -0.0000010
  C       -3.1757780    -0.5360000     0.0000030
  C        2.6470610     0.3608020    -0.0000010
  C        2.3925880    -0.9806700     0.0000040
  H       -1.2896900    -1.5740920    -0.0000030
  H       -3.6075680    -0.9997290     0.8912900
  H       -3.6075830    -0.9997540    -0.8912630
  H       -3.4076560     0.5288570    -0.0000100
  H        3.5343540     0.9743462     0.0499970
  H        3.0931030    -1.8035030     0.0000080
units angstrom
no_reorient  #important for SAPT in psi4, default
symmetry c1  #important for SAPT in psi4, default
}

set PROPERTIES_ORIGIN ["COM"]
properties('MP2/aug-cc-pvtz', properties = ['dipole'])
--------------------------------------------------------------------------

    Molecular point group: c1
  Charge       = 0
  Multiplicity = 1
  Basis Set: AUG-CC-PVTZ
    Blend: AUG-CC-PVTZ
  Basis Set: (AUG-CC-PVTZ AUX)
    Blend: AUG-CC-PVTZ-JKFIT

    Orbital Energies [Eh]
    ---------------------

    Doubly Occupied:

       1A    -20.659197     2A    -20.533396     3A    -15.597276
       4A    -15.596191     5A    -11.374868     6A    -11.357500
       7A    -11.316174     8A    -11.281733     9A    -11.265901
      10A     -1.503630    11A     -1.385311    12A     -1.261271
      13A     -1.234816    14A     -1.061489    15A     -0.971050
      16A     -0.873937    17A     -0.849390    18A     -0.793822
      19A     -0.773982    20A     -0.681393    21A     -0.678985
      22A     -0.656800    23A     -0.627923    24A     -0.620935
      25A     -0.597803    26A     -0.591133    27A     -0.554337
      28A     -0.546522    29A     -0.491002    30A     -0.471626
      31A     -0.447451    32A     -0.399983    33A     -0.354707

  @DF-RHF Final Energy:  -451.60959859297122

   => Energetics <=

    Nuclear Repulsion Energy =            433.1349474235377670
    One-Electron Energy =               -1474.6660317035298249
    Two-Electron Energy =                 589.9214856870207768
    Total Energy =                       -451.6095985929712242
  Basis Set: (AUG-CC-PVTZ AUX)
    Blend: AUG-CC-PVTZ-RI
    Molecular point group: c1

    Geometry (in Angstrom), charge = 0, multiplicity = 1:

       Center              X                  Y                   Z               Mass
    ------------   -----------------  -----------------  -----------------  -----------------
         O            1.408415029719     0.990354876697    -0.000403676322    15.994914619570
         O           -1.314465970281     1.572642876697    -0.000394676322    15.994914619570
         N           -1.773676970281    -0.692035123303    -0.000409676322    14.003074004430
         N            0.983738029719    -1.212983123303    -0.000396676322    14.003074004430
         C            0.479595029719     0.001718876697    -0.000400676322    12.000000000000
         C           -0.957341970281     0.392582876697    -0.000400676322    12.000000000000
         C           -3.217355970281    -0.566343123303    -0.000396676322    12.000000000000
         C            2.605483029719     0.330458876697    -0.000400676322    12.000000000000
         C            2.351010029719    -1.011013123303    -0.000395676322    12.000000000000
         H           -1.331267970281    -1.604435123303    -0.000402676322     1.007825032230
         H           -3.649145970281    -1.030072123303     0.890890323678     1.007825032230
         H           -3.649160970281    -1.030097123303    -0.891662676322     1.007825032230
         H           -3.449233970281     0.498513876697    -0.000409676322     1.007825032230
         H            3.492776029719     0.944003076697     0.049597323678     1.007825032230
         H            3.051525029719    -1.833846123303    -0.000391676322     1.007825032230

  Basis Set: AUG-CC-PVTZ
    Blend: AUG-CC-PVTZ
  Basis Set: (AUG-CC-PVTZ AUX)
    Blend: AUG-CC-PVTZ-JKFIT
	 Reference Energy          =    -451.6095985929712242 [Eh]
	 Singles Energy            =      -0.0000000000000000 [Eh]
	 Same-Spin Energy          =      -0.4621985664349076 [Eh]
	 Opposite-Spin Energy      =      -1.3919397690828661 [Eh]
	 Correlation Energy        =      -1.8541383355177739 [Eh]
	 Total Energy              =    -453.4637369284889701 [Eh]

	 ================> DF-SCS-MP2 Energies <==================
	-----------------------------------------------------------
	 SCS Same-Spin Scale       =       0.3333333333333333 [-]
	 SCS Opposite-Spin Scale   =       1.2000000000000000 [-]
	 SCS Same-Spin Energy      =      -0.1540661888116359 [Eh]
	 SCS Opposite-Spin Energy  =      -1.6703277228994393 [Eh]
	 SCS Correlation Energy    =      -1.8243939117110752 [Eh]
	 SCS Total Energy          =    -453.4339925046822941 [Eh]
	-----------------------------------------------------------

  Dipole Moment: [D]
     X:     1.1456      Y:    -2.6964      Z:     0.0437     Total:     2.9300

*** Psi4 exiting successfully. Buy a developer a beer!
