                               Psi4 1.4a2.dev612

  ==> Input File <==

--------------------------------------------------------------------------
#psi4
#
memory 32 gb

molecule  {
0 1
  O        1.5890300     1.0650170     0.1165590
  O        1.2943400    -1.1672870    -0.2725970
  N       -1.2047650    -1.1860200     0.0435410
  C       -0.6307558     0.1756920     0.2148560
  C       -1.2872470     1.2925570    -0.2818200
  C        0.9223610     0.0094930     0.0395840
  H       -0.6685550     0.2311640     1.4926420
  H       -1.7458480    -1.1434940    -0.8256840
  H       -1.8050530    -1.5837490     0.7705650
  H       -2.3371450     1.3649650     0.0138330
  H       -0.7761520     2.2140110    -0.0029500
  H       -1.2289870     1.1856370    -1.3693840
  H       -0.3506960    -1.7809300    -0.1207870
units angstrom
no_reorient  #important for SAPT in psi4, default
symmetry c1  #important for SAPT in psi4, default
}

set PROPERTIES_ORIGIN ["COM"]
properties('MP2/aug-cc-pvtz', properties = ['dipole'])
--------------------------------------------------------------------------

    Molecular point group: c1
  Charge       = 0
  Multiplicity = 1
  Basis Set: AUG-CC-PVTZ
    Blend: AUG-CC-PVTZ
  Basis Set: (AUG-CC-PVTZ AUX)
    Blend: AUG-CC-PVTZ-JKFIT

    Orbital Energies [Eh]
    ---------------------

    Doubly Occupied:

       1A    -20.490907     2A    -20.473617     3A    -15.714100
       4A    -11.332179     5A    -11.320673     6A    -11.247899
       7A     -1.370758     8A     -1.326748     9A     -1.256107
      10A     -1.090763    11A     -0.902361    12A     -0.804749
      13A     -0.789198    14A     -0.730045    15A     -0.666930
      16A     -0.638934    17A     -0.605622    18A     -0.573813
      19A     -0.568239    20A     -0.543466    21A     -0.477648
      22A     -0.406661    23A     -0.384006    24A     -0.378471

  @DF-RHF Final Energy:  -321.91274817357288

   => Energetics <=

    Nuclear Repulsion Energy =            250.8414516266583689
    One-Electron Energy =                -937.3206062705938848
    Two-Electron Energy =                 364.5664064703626650
    Total Energy =                       -321.9127481735728793
  Basis Set: (AUG-CC-PVTZ AUX)
    Blend: AUG-CC-PVTZ-RI
    Molecular point group: c1

    Geometry (in Angstrom), charge = 0, multiplicity = 1:

       Center              X                  Y                   Z               Mass
    ------------   -----------------  -----------------  -----------------  -----------------
         O            1.495608521105     1.065234885881     0.141902259852    15.994914619570
         O            1.200918521105    -1.167069114119    -0.247253740148    15.994914619570
         N           -1.298186478895    -1.185802114119     0.068884259852    14.003074004430
         C           -0.724177278895     0.175909885881     0.240199259852    12.000000000000
         C           -1.380668478895     1.292774885881    -0.256476740148    12.000000000000
         C            0.828939521105     0.009710885881     0.064927259852    12.000000000000
         H           -0.761976478895     0.231381885881     1.517985259852     1.007825032230
         H           -1.839269478895    -1.143276114119    -0.800340740148     1.007825032230
         H           -1.898474478895    -1.583531114119     0.795908259852     1.007825032230
         H           -2.430566478895     1.365182885881     0.039176259852     1.007825032230
         H           -0.869573478895     2.214228885881     0.022393259852     1.007825032230
         H           -1.322408478895     1.185854885881    -1.344040740148     1.007825032230
         H           -0.444117478895    -1.780712114119    -0.095443740148     1.007825032230

  Basis Set: AUG-CC-PVTZ
    Blend: AUG-CC-PVTZ
  Basis Set: (AUG-CC-PVTZ AUX)
    Blend: AUG-CC-PVTZ-JKFIT
	 Reference Energy          =    -321.9127481735728793 [Eh]
	 Singles Energy            =      -0.0000000000000000 [Eh]
	 Same-Spin Energy          =      -0.3244350847748468 [Eh]
	 Opposite-Spin Energy      =      -1.0101667984575848 [Eh]
	 Correlation Energy        =      -1.3346018832324318 [Eh]
	 Total Energy              =    -323.2473500568053169 [Eh]

	 ================> DF-SCS-MP2 Energies <==================
	-----------------------------------------------------------
	 SCS Same-Spin Scale       =       0.3333333333333333 [-]
	 SCS Opposite-Spin Scale   =       1.2000000000000000 [-]
	 SCS Same-Spin Energy      =      -0.1081450282582823 [Eh]
	 SCS Opposite-Spin Energy  =      -1.2122001581491018 [Eh]
	 SCS Correlation Energy    =      -1.3203451864073841 [Eh]
	 SCS Total Energy          =    -323.2330933599802734 [Eh]
	-----------------------------------------------------------

  Dipole Moment: [D]
     X:    -9.7620      Y:    -2.7608      Z:     0.4420     Total:    10.1545

*** Psi4 exiting successfully. Buy a developer a beer!
