                               Psi4 1.4a2.dev612

  ==> Input File <==

--------------------------------------------------------------------------
#psi4
#
memory 32 gb

molecule  {
0 1
  O        1.5890300     1.0650170     0.1165590
  O        1.2943400    -1.1672870    -0.2725970
  N       -1.2047650    -1.1860200     0.0435410
  C       -0.6202276     0.1659520     0.2627548
  C       -1.2872470     1.2925570    -0.2818200
  C        0.9223610     0.0094930     0.0395840
  H       -0.6685550     0.2311640     1.4926420
  H       -1.7458480    -1.1434940    -0.8256840
  H       -1.8050530    -1.5837490     0.7705650
  H       -2.3371450     1.3649650     0.0138330
  H       -0.7761520     2.2140110    -0.0029500
  H       -1.2289870     1.1856370    -1.3693840
  H       -0.3506960    -1.7809300    -0.1207870
units angstrom
no_reorient  #important for SAPT in psi4, default
symmetry c1  #important for SAPT in psi4, default
}

set PROPERTIES_ORIGIN ["COM"]
properties('MP2/aug-cc-pvtz', properties = ['dipole'])
--------------------------------------------------------------------------

    Molecular point group: c1
  Charge       = 0
  Multiplicity = 1
  Basis Set: AUG-CC-PVTZ
    Blend: AUG-CC-PVTZ
  Basis Set: (AUG-CC-PVTZ AUX)
    Blend: AUG-CC-PVTZ-JKFIT

    Orbital Energies [Eh]
    ---------------------

    Doubly Occupied:

       1A    -20.490434     2A    -20.473322     3A    -15.712917
       4A    -11.330496     5A    -11.317658     6A    -11.248533
       7A     -1.370042     8A     -1.325674     9A     -1.255646
      10A     -1.081917    11A     -0.904242    12A     -0.804880
      13A     -0.787073    14A     -0.729585    15A     -0.666257
      16A     -0.635759    17A     -0.599513    18A     -0.573082
      19A     -0.567852    20A     -0.544477    21A     -0.490229
      22A     -0.406934    23A     -0.384353    24A     -0.378072

  @DF-RHF Final Energy:  -321.93027380176784

   => Energetics <=

    Nuclear Repulsion Energy =            250.6277367767303872
    One-Electron Energy =                -936.9581221841234537
    Two-Electron Energy =                 364.4001116056252840
    Total Energy =                       -321.9302738017678394
  Basis Set: (AUG-CC-PVTZ AUX)
    Blend: AUG-CC-PVTZ-RI
    Molecular point group: c1

    Geometry (in Angstrom), charge = 0, multiplicity = 1:

       Center              X                  Y                   Z               Mass
    ------------   -----------------  -----------------  -----------------  -----------------
         O            1.494189748576     1.066547441155     0.135447452608    15.994914619570
         O            1.199499748576    -1.165756558845    -0.253708547392    15.994914619570
         N           -1.299605251424    -1.184489558845     0.062429452608    14.003074004430
         C           -0.715067851424     0.167482441155     0.281643252608    12.000000000000
         C           -1.382087251424     1.294087441155    -0.262931547392    12.000000000000
         C            0.827520748576     0.011023441155     0.058472452608    12.000000000000
         H           -0.763395251424     0.232694441155     1.511530452608     1.007825032230
         H           -1.840688251424    -1.141963558845    -0.806795547392     1.007825032230
         H           -1.899893251424    -1.582218558845     0.789453452608     1.007825032230
         H           -2.431985251424     1.366495441155     0.032721452608     1.007825032230
         H           -0.870992251424     2.215541441155     0.015938452608     1.007825032230
         H           -1.323827251424     1.187167441155    -1.350495547392     1.007825032230
         H           -0.445536251424    -1.779399558845    -0.101898547392     1.007825032230

  Basis Set: AUG-CC-PVTZ
    Blend: AUG-CC-PVTZ
  Basis Set: (AUG-CC-PVTZ AUX)
    Blend: AUG-CC-PVTZ-JKFIT
	 Reference Energy          =    -321.9302738017678394 [Eh]
	 Singles Energy            =      -0.0000000000000000 [Eh]
	 Same-Spin Energy          =      -0.3236784306020422 [Eh]
	 Opposite-Spin Energy      =      -1.0088912994117740 [Eh]
	 Correlation Energy        =      -1.3325697300138162 [Eh]
	 Total Energy              =    -323.2628435317816411 [Eh]

	 ================> DF-SCS-MP2 Energies <==================
	-----------------------------------------------------------
	 SCS Same-Spin Scale       =       0.3333333333333333 [-]
	 SCS Opposite-Spin Scale   =       1.2000000000000000 [-]
	 SCS Same-Spin Energy      =      -0.1078928102006807 [Eh]
	 SCS Opposite-Spin Energy  =      -1.2106695592941288 [Eh]
	 SCS Correlation Energy    =      -1.3185623694948094 [Eh]
	 SCS Total Energy          =    -323.2488361712626670 [Eh]
	-----------------------------------------------------------

  Dipole Moment: [D]
     X:    -9.7555      Y:    -2.7855      Z:     0.5221     Total:    10.1588

*** Psi4 exiting successfully. Buy a developer a beer!
