                               Psi4 1.4a2.dev612

  ==> Input File <==

--------------------------------------------------------------------------
#psi4
#
memory 32 gb

molecule  {
0 1
  O        1.5890300     1.0650170     0.1165590
  O        1.2943400    -1.1672870    -0.2725970
  N       -1.2047650    -1.1860200     0.0435410
  C       -0.6412840     0.1854320     0.1669573
  C       -1.2872470     1.2925570    -0.2818200
  C        0.9223610     0.0094930     0.0395840
  H       -0.6685550     0.2311640     1.4926420
  H       -1.7458480    -1.1434940    -0.8256840
  H       -1.8050530    -1.5837490     0.7705650
  H       -2.3371450     1.3649650     0.0138330
  H       -0.7761520     2.2140110    -0.0029500
  H       -1.2289870     1.1856370    -1.3693840
  H       -0.3506960    -1.7809300    -0.1207870
units angstrom
no_reorient  #important for SAPT in psi4, default
symmetry c1  #important for SAPT in psi4, default
}

set PROPERTIES_ORIGIN ["COM"]
properties('MP2/aug-cc-pvtz', properties = ['dipole'])
--------------------------------------------------------------------------

    Molecular point group: c1
  Charge       = 0
  Multiplicity = 1
  Basis Set: AUG-CC-PVTZ
    Blend: AUG-CC-PVTZ
  Basis Set: (AUG-CC-PVTZ AUX)
    Blend: AUG-CC-PVTZ-JKFIT

    Orbital Energies [Eh]
    ---------------------

    Doubly Occupied:

       1A    -20.491484     2A    -20.474041     3A    -15.715328
       4A    -11.334279     5A    -11.324142     6A    -11.247547
       7A     -1.371394     8A     -1.327692     9A     -1.256676
      10A     -1.100348    11A     -0.900458    12A     -0.805067
      13A     -0.790783    14A     -0.730069    15A     -0.669527
      16A     -0.642263    17A     -0.611072    18A     -0.574556
      19A     -0.568367    20A     -0.543060    21A     -0.464057
      22A     -0.406239    23A     -0.383472    24A     -0.378954

  @DF-RHF Final Energy:  -321.89115248469574

   => Energetics <=

    Nuclear Repulsion Energy =            251.0239085236286769
    One-Electron Energy =                -937.6083710545548229
    Two-Electron Energy =                 364.6933100462304651
    Total Energy =                       -321.8911524846957377
  Basis Set: (AUG-CC-PVTZ AUX)
    Blend: AUG-CC-PVTZ-RI
    Molecular point group: c1

    Geometry (in Angstrom), charge = 0, multiplicity = 1:

       Center              X                  Y                   Z               Mass
    ------------   -----------------  -----------------  -----------------  -----------------
         O            1.497027293634     1.063922330607     0.148357053619    15.994914619570
         O            1.202337293634    -1.168381669393    -0.240798946381    15.994914619570
         N           -1.296767706366    -1.187114669393     0.075339053619    14.003074004430
         C           -0.733286706366     0.184337330607     0.198755353619    12.000000000000
         C           -1.379249706366     1.291462330607    -0.250021946381    12.000000000000
         C            0.830358293634     0.008398330607     0.071382053619    12.000000000000
         H           -0.760557706366     0.230069330607     1.524440053619     1.007825032230
         H           -1.837850706366    -1.144588669393    -0.793885946381     1.007825032230
         H           -1.897055706366    -1.584843669393     0.802363053619     1.007825032230
         H           -2.429147706366     1.363870330607     0.045631053619     1.007825032230
         H           -0.868154706366     2.212916330607     0.028848053619     1.007825032230
         H           -1.320989706366     1.184542330607    -1.337585946381     1.007825032230
         H           -0.442698706366    -1.782024669393    -0.088988946381     1.007825032230

  Basis Set: AUG-CC-PVTZ
    Blend: AUG-CC-PVTZ
  Basis Set: (AUG-CC-PVTZ AUX)
    Blend: AUG-CC-PVTZ-JKFIT
	 Reference Energy          =    -321.8911524846957377 [Eh]
	 Singles Energy            =      -0.0000000000000000 [Eh]
	 Same-Spin Energy          =      -0.3253090205577317 [Eh]
	 Opposite-Spin Energy      =      -1.0117051674085169 [Eh]
	 Correlation Energy        =      -1.3370141879662487 [Eh]
	 Total Energy              =    -323.2281666726619846 [Eh]

	 ================> DF-SCS-MP2 Energies <==================
	-----------------------------------------------------------
	 SCS Same-Spin Scale       =       0.3333333333333333 [-]
	 SCS Opposite-Spin Scale   =       1.2000000000000000 [-]
	 SCS Same-Spin Energy      =      -0.1084363401859106 [Eh]
	 SCS Opposite-Spin Energy  =      -1.2140462008902202 [Eh]
	 SCS Correlation Energy    =      -1.3224825410761307 [Eh]
	 SCS Total Energy          =    -323.2136350257718505 [Eh]
	-----------------------------------------------------------

  Dipole Moment: [D]
     X:    -9.7645      Y:    -2.7304      Z:     0.3525     Total:    10.1452

*** Psi4 exiting successfully. Buy a developer a beer!
