                               Psi4 1.4a2.dev612

  ==> Input File <==

--------------------------------------------------------------------------
#psi4
#
memory 32 gb

molecule  {
0 1
  O        1.5890300     1.0650170     0.1165590
  O        1.2943400    -1.1672870    -0.2725970
  N       -1.2047650    -1.1860200     0.0435410
  C       -0.6518121     0.1951720     0.1190585
  C       -1.2872470     1.2925570    -0.2818200
  C        0.9223610     0.0094930     0.0395840
  H       -0.6685550     0.2311640     1.4926420
  H       -1.7458480    -1.1434940    -0.8256840
  H       -1.8050530    -1.5837490     0.7705650
  H       -2.3371450     1.3649650     0.0138330
  H       -0.7761520     2.2140110    -0.0029500
  H       -1.2289870     1.1856370    -1.3693840
  H       -0.3506960    -1.7809300    -0.1207870
units angstrom
no_reorient  #important for SAPT in psi4, default
symmetry c1  #important for SAPT in psi4, default
}

set PROPERTIES_ORIGIN ["COM"]
properties('MP2/aug-cc-pvtz', properties = ['dipole'])
--------------------------------------------------------------------------

    Molecular point group: c1
  Charge       = 0
  Multiplicity = 1
  Basis Set: AUG-CC-PVTZ
    Blend: AUG-CC-PVTZ
  Basis Set: (AUG-CC-PVTZ AUX)
    Blend: AUG-CC-PVTZ-JKFIT

    Orbital Energies [Eh]
    ---------------------

    Doubly Occupied:

       1A    -20.492162     2A    -20.474604     3A    -15.716579
       4A    -11.336781     5A    -11.328054     6A    -11.247531
       7A     -1.371939     8A     -1.328508     9A     -1.257357
      10A     -1.110627    11A     -0.898502    12A     -0.805906
      13A     -0.791673    14A     -0.729742    15A     -0.673941
      16A     -0.645474    17A     -0.615805    18A     -0.575324
      19A     -0.568381    20A     -0.543020    21A     -0.450351
      22A     -0.405550    23A     -0.382604    24A     -0.379503

  @DF-RHF Final Energy:  -321.86579322191858

   => Energetics <=

    Nuclear Repulsion Energy =            251.1736592457312440
    One-Electron Energy =                -937.8190680041460610
    Two-Electron Energy =                 364.7796155364961805
    Total Energy =                       -321.8657932219185795
  Basis Set: (AUG-CC-PVTZ AUX)
    Blend: AUG-CC-PVTZ-RI
    Molecular point group: c1

    Geometry (in Angstrom), charge = 0, multiplicity = 1:

       Center              X                  Y                   Z               Mass
    ------------   -----------------  -----------------  -----------------  -----------------
         O            1.498446052688     1.062609775333     0.154811860863    15.994914619570
         O            1.203756052688    -1.169694224667    -0.234344139137    15.994914619570
         N           -1.295348947312    -1.188427224667     0.081793860863    14.003074004430
         C           -0.742396047312     0.192764775333     0.157311360863    12.000000000000
         C           -1.377830947312     1.290149775333    -0.243567139137    12.000000000000
         C            0.831777052688     0.007085775333     0.077836860863    12.000000000000
         H           -0.759138947312     0.228756775333     1.530894860863     1.007825032230
         H           -1.836431947312    -1.145901224667    -0.787431139137     1.007825032230
         H           -1.895636947312    -1.586156224667     0.808817860863     1.007825032230
         H           -2.427728947312     1.362557775333     0.052085860863     1.007825032230
         H           -0.866735947312     2.211603775333     0.035302860863     1.007825032230
         H           -1.319570947312     1.183229775333    -1.331131139137     1.007825032230
         H           -0.441279947312    -1.783337224667    -0.082534139137     1.007825032230

  Basis Set: AUG-CC-PVTZ
    Blend: AUG-CC-PVTZ
  Basis Set: (AUG-CC-PVTZ AUX)
    Blend: AUG-CC-PVTZ-JKFIT
	 Reference Energy          =    -321.8657932219185795 [Eh]
	 Singles Energy            =      -0.0000000000000000 [Eh]
	 Same-Spin Energy          =      -0.3262967242690248 [Eh]
	 Opposite-Spin Energy      =      -1.0135015732776553 [Eh]
	 Correlation Energy        =      -1.3397982975466802 [Eh]
	 Total Energy              =    -323.2055915194652584 [Eh]

	 ================> DF-SCS-MP2 Energies <==================
	-----------------------------------------------------------
	 SCS Same-Spin Scale       =       0.3333333333333333 [-]
	 SCS Opposite-Spin Scale   =       1.2000000000000000 [-]
	 SCS Same-Spin Energy      =      -0.1087655747563416 [Eh]
	 SCS Opposite-Spin Energy  =      -1.2162018879331864 [Eh]
	 SCS Correlation Energy    =      -1.3249674626895280 [Eh]
	 SCS Total Energy          =    -323.1907606846081080 [Eh]
	-----------------------------------------------------------

  Dipole Moment: [D]
     X:    -9.7635      Y:    -2.6929      Z:     0.2527     Total:    10.1312

*** Psi4 exiting successfully. Buy a developer a beer!
