                               Psi4 1.4a2.dev612

  ==> Input File <==

--------------------------------------------------------------------------
#psi4
#
memory 32 gb

molecule  {
0 1
  O        1.5890300     1.0650170     0.1165590
  O        1.2943400    -1.1672870    -0.2725970
  N       -1.2047650    -1.1860200     0.0435410
  C       -0.5991712     0.1464720     0.3585523
  C       -1.2872470     1.2925570    -0.2818200
  C        0.9223610     0.0094930     0.0395840
  H       -0.6685550     0.2311640     1.4926420
  H       -1.7458480    -1.1434940    -0.8256840
  H       -1.8050530    -1.5837490     0.7705650
  H       -2.3371450     1.3649650     0.0138330
  H       -0.7761520     2.2140110    -0.0029500
  H       -1.2289870     1.1856370    -1.3693840
  H       -0.3506960    -1.7809300    -0.1207870
units angstrom
no_reorient  #important for SAPT in psi4, default
symmetry c1  #important for SAPT in psi4, default
}

set PROPERTIES_ORIGIN ["COM"]
properties('MP2/aug-cc-pvtz', properties = ['dipole'])
--------------------------------------------------------------------------

    Molecular point group: c1
  Charge       = 0
  Multiplicity = 1
  Basis Set: AUG-CC-PVTZ
    Blend: AUG-CC-PVTZ
  Basis Set: (AUG-CC-PVTZ AUX)
    Blend: AUG-CC-PVTZ-JKFIT

    Orbital Energies [Eh]
    ---------------------

    Doubly Occupied:

       1A    -20.489794     2A    -20.473083     3A    -15.710734
       4A    -11.328432     5A    -11.312982     6A    -11.250462
       7A     -1.368423     8A     -1.323102     9A     -1.255032
      10A     -1.066609    11A     -0.908116    12A     -0.805958
      13A     -0.782077    14A     -0.727096    15A     -0.670654
      16A     -0.630731    17A     -0.587429    18A     -0.571885
      19A     -0.564741    20A     -0.549662    21A     -0.508420
      22A     -0.407230    23A     -0.384773    24A     -0.377530

  @DF-RHF Final Energy:  -321.95184211723898

   => Energetics <=

    Nuclear Repulsion Energy =            250.1131199583534510
    One-Electron Energy =                -936.0200135807335755
    Two-Electron Energy =                 363.9550515051411708
    Total Energy =                       -321.9518421172389822
  Basis Set: (AUG-CC-PVTZ AUX)
    Blend: AUG-CC-PVTZ-RI
    Molecular point group: c1

    Geometry (in Angstrom), charge = 0, multiplicity = 1:

       Center              X                  Y                   Z               Mass
    ------------   -----------------  -----------------  -----------------  -----------------
         O            1.491352203518     1.069172551702     0.122537851597    15.994914619570
         O            1.196662203518    -1.163131448298    -0.266618148403    15.994914619570
         N           -1.302442796482    -1.181864448298     0.049519851597    14.003074004430
         C           -0.696848996482     0.150627551702     0.364531151597    12.000000000000
         C           -1.384924796482     1.296712551702    -0.275841148403    12.000000000000
         C            0.824683203518     0.013648551702     0.045562851597    12.000000000000
         H           -0.766232796482     0.235319551702     1.498620851597     1.007825032230
         H           -1.843525796482    -1.139338448298    -0.819705148403     1.007825032230
         H           -1.902730796482    -1.579593448298     0.776543851597     1.007825032230
         H           -2.434822796482     1.369120551702     0.019811851597     1.007825032230
         H           -0.873829796482     2.218166551702     0.003028851597     1.007825032230
         H           -1.326664796482     1.189792551702    -1.363405148403     1.007825032230
         H           -0.448373796482    -1.776774448298    -0.114808148403     1.007825032230

  Basis Set: AUG-CC-PVTZ
    Blend: AUG-CC-PVTZ
  Basis Set: (AUG-CC-PVTZ AUX)
    Blend: AUG-CC-PVTZ-JKFIT
	 Reference Energy          =    -321.9518421172389822 [Eh]
	 Singles Energy            =      -0.0000000000000000 [Eh]
	 Same-Spin Energy          =      -0.3225229318373325 [Eh]
	 Opposite-Spin Energy      =      -1.0071569060221899 [Eh]
	 Correlation Energy        =      -1.3296798378595225 [Eh]
	 Total Energy              =    -323.2815219550985262 [Eh]

	 ================> DF-SCS-MP2 Energies <==================
	-----------------------------------------------------------
	 SCS Same-Spin Scale       =       0.3333333333333333 [-]
	 SCS Opposite-Spin Scale   =       1.2000000000000000 [-]
	 SCS Same-Spin Energy      =      -0.1075076439457775 [Eh]
	 SCS Opposite-Spin Energy  =      -1.2085882872266278 [Eh]
	 SCS Correlation Energy    =      -1.3160959311724054 [Eh]
	 SCS Total Energy          =    -323.2679380484113949 [Eh]
	-----------------------------------------------------------

  Dipole Moment: [D]
     X:    -9.7293      Y:    -2.8209      Z:     0.6571     Total:    10.1513

*** Psi4 exiting successfully. Buy a developer a beer!
