                               Psi4 1.4a2.dev612

  ==> Input File <==

--------------------------------------------------------------------------
#psi4
#
memory 32 gb

molecule  {
0 1
  O        1.5890300     1.0650170     0.1165590
  O        1.2943400    -1.1672870    -0.2725970
  N       -1.2047650    -1.1860200     0.0435410
  C       -0.6096994     0.1562120     0.3106535
  C       -1.2872470     1.2925570    -0.2818200
  C        0.9223610     0.0094930     0.0395840
  H       -0.6685550     0.2311640     1.4926420
  H       -1.7458480    -1.1434940    -0.8256840
  H       -1.8050530    -1.5837490     0.7705650
  H       -2.3371450     1.3649650     0.0138330
  H       -0.7761520     2.2140110    -0.0029500
  H       -1.2289870     1.1856370    -1.3693840
  H       -0.3506960    -1.7809300    -0.1207870
units angstrom
no_reorient  #important for SAPT in psi4, default
symmetry c1  #important for SAPT in psi4, default
}

set PROPERTIES_ORIGIN ["COM"]
properties('MP2/aug-cc-pvtz', properties = ['dipole'])
--------------------------------------------------------------------------

    Molecular point group: c1
  Charge       = 0
  Multiplicity = 1
  Basis Set: AUG-CC-PVTZ
    Blend: AUG-CC-PVTZ
  Basis Set: (AUG-CC-PVTZ AUX)
    Blend: AUG-CC-PVTZ-JKFIT

    Orbital Energies [Eh]
    ---------------------

    Doubly Occupied:

       1A    -20.490063     2A    -20.473146     3A    -15.711793
       4A    -11.329244     5A    -11.315097     6A    -11.249400
       7A     -1.369258     8A     -1.324462     9A     -1.255289
      10A     -1.073853    11A     -0.906144    12A     -0.805321
      13A     -0.784632    14A     -0.728618    15A     -0.667502
      16A     -0.632993    17A     -0.593167    18A     -0.572398
      19A     -0.566877    20A     -0.546448    21A     -0.500818
      22A     -0.407113    23A     -0.384593    24A     -0.377758

  @DF-RHF Final Energy:  -321.94341824722886

   => Energetics <=

    Nuclear Repulsion Energy =            250.3843661130151759
    One-Electron Energy =                -936.5235939301772987
    Two-Electron Energy =                 364.1958095699332603
    Total Energy =                       -321.9434182472288626
  Basis Set: (AUG-CC-PVTZ AUX)
    Blend: AUG-CC-PVTZ-RI
    Molecular point group: c1

    Geometry (in Angstrom), charge = 0, multiplicity = 1:

       Center              X                  Y                   Z               Mass
    ------------   -----------------  -----------------  -----------------  -----------------
         O            1.492770976047     1.067859996429     0.128992658841    15.994914619570
         O            1.198080976047    -1.164444003571    -0.260163341159    15.994914619570
         N           -1.301024023953    -1.183177003571     0.055974658841    14.003074004430
         C           -0.705958423953     0.159054996429     0.323087158841    12.000000000000
         C           -1.383506023953     1.295399996429    -0.269386341159    12.000000000000
         C            0.826101976047     0.012335996429     0.052017658841    12.000000000000
         H           -0.764814023953     0.234006996429     1.505075658841     1.007825032230
         H           -1.842107023953    -1.140651003571    -0.813250341159     1.007825032230
         H           -1.901312023953    -1.580906003571     0.782998658841     1.007825032230
         H           -2.433404023953     1.367807996429     0.026266658841     1.007825032230
         H           -0.872411023953     2.216853996429     0.009483658841     1.007825032230
         H           -1.325246023953     1.188479996429    -1.356950341159     1.007825032230
         H           -0.446955023953    -1.778087003571    -0.108353341159     1.007825032230

  Basis Set: AUG-CC-PVTZ
    Blend: AUG-CC-PVTZ
  Basis Set: (AUG-CC-PVTZ AUX)
    Blend: AUG-CC-PVTZ-JKFIT
	 Reference Energy          =    -321.9434182472288626 [Eh]
	 Singles Energy            =      -0.0000000000000000 [Eh]
	 Same-Spin Energy          =      -0.3230407349854880 [Eh]
	 Opposite-Spin Energy      =      -1.0078845697095737 [Eh]
	 Correlation Energy        =      -1.3309253046950618 [Eh]
	 Total Energy              =    -323.2743435519239483 [Eh]

	 ================> DF-SCS-MP2 Energies <==================
	-----------------------------------------------------------
	 SCS Same-Spin Scale       =       0.3333333333333333 [-]
	 SCS Opposite-Spin Scale   =       1.2000000000000000 [-]
	 SCS Same-Spin Energy      =      -0.1076802449951627 [Eh]
	 SCS Opposite-Spin Energy  =      -1.2094614836514885 [Eh]
	 SCS Correlation Energy    =      -1.3171417286466511 [Eh]
	 SCS Total Energy          =    -323.2605599758755375 [Eh]
	-----------------------------------------------------------

  Dipole Moment: [D]
     X:    -9.7447      Y:    -2.8053      Z:     0.5935     Total:    10.1578

*** Psi4 exiting successfully. Buy a developer a beer!
