                               Psi4 1.4a2.dev612

  ==> Input File <==

--------------------------------------------------------------------------
#psi4
#
memory 32 gb

molecule  {
0 1
  O        1.5890300     1.0650170     0.1165590
  O        1.2943400    -1.1672870    -0.2725970
  N       -1.2047650    -1.1860200     0.0435410
  C       -0.5886430     0.1367320     0.4064510
  C       -1.2872470     1.2925570    -0.2818200
  C        0.9223610     0.0094930     0.0395840
  H       -0.6685550     0.2311640     1.4926420
  H       -1.7458480    -1.1434940    -0.8256840
  H       -1.8050530    -1.5837490     0.7705650
  H       -2.3371450     1.3649650     0.0138330
  H       -0.7761520     2.2140110    -0.0029500
  H       -1.2289870     1.1856370    -1.3693840
  H       -0.3506960    -1.7809300    -0.1207870
units angstrom
no_reorient  #important for SAPT in psi4, default
symmetry c1  #important for SAPT in psi4, default
}

set PROPERTIES_ORIGIN ["COM"]
properties('MP2/aug-cc-pvtz', properties = ['dipole'])
--------------------------------------------------------------------------

    Molecular point group: c1
  Charge       = 0
  Multiplicity = 1
  Basis Set: AUG-CC-PVTZ
    Blend: AUG-CC-PVTZ
  Basis Set: (AUG-CC-PVTZ AUX)
    Blend: AUG-CC-PVTZ-JKFIT

    Orbital Energies [Eh]
    ---------------------

    Doubly Occupied:

       1A    -20.489629     2A    -20.473127     3A    -15.709736
       4A    -11.328069     5A    -11.311296     6A    -11.251685
       7A     -1.367558     8A     -1.321582     9A     -1.254871
      10A     -1.060235    11A     -0.910217    12A     -0.806720
      13A     -0.779567    14A     -0.725015    15A     -0.675671
      16A     -0.628939    17A     -0.583225    18A     -0.571661
      19A     -0.561360    20A     -0.553536    21A     -0.512487
      22A     -0.407301    23A     -0.384920    24A     -0.377386

  @DF-RHF Final Energy:  -321.95515265270200

   => Energetics <=

    Nuclear Repulsion Energy =            249.8159874758217711
    One-Electron Energy =                -935.4506911528943647
    Two-Electron Energy =                 363.6795510243705962
    Total Energy =                       -321.9551526527019973
  Basis Set: (AUG-CC-PVTZ AUX)
    Blend: AUG-CC-PVTZ-RI
    Molecular point group: c1

    Geometry (in Angstrom), charge = 0, multiplicity = 1:

       Center              X                  Y                   Z               Mass
    ------------   -----------------  -----------------  -----------------  -----------------
         O            1.489933430989     1.070485106976     0.116083057830    15.994914619570
         O            1.195243430989    -1.161818893024    -0.273072942170    15.994914619570
         N           -1.303861569011    -1.180551893024     0.043065057830    14.003074004430
         C           -0.687739569011     0.142200106976     0.405975057830    12.000000000000
         C           -1.386343569011     1.298025106976    -0.282295942170    12.000000000000
         C            0.823264430989     0.014961106976     0.039108057830    12.000000000000
         H           -0.767651569011     0.236632106976     1.492166057830     1.007825032230
         H           -1.844944569011    -1.138025893024    -0.826159942170     1.007825032230
         H           -1.904149569011    -1.578280893024     0.770089057830     1.007825032230
         H           -2.436241569011     1.370433106976     0.013357057830     1.007825032230
         H           -0.875248569011     2.219479106976    -0.003425942170     1.007825032230
         H           -1.328083569011     1.191105106976    -1.369859942170     1.007825032230
         H           -0.449792569011    -1.775461893024    -0.121262942170     1.007825032230

  Basis Set: AUG-CC-PVTZ
    Blend: AUG-CC-PVTZ
  Basis Set: (AUG-CC-PVTZ AUX)
    Blend: AUG-CC-PVTZ-JKFIT
	 Reference Energy          =    -321.9551526527019973 [Eh]
	 Singles Energy            =      -0.0000000000000000 [Eh]
	 Same-Spin Energy          =      -0.3221259386002329 [Eh]
	 Opposite-Spin Energy      =      -1.0067239516007054 [Eh]
	 Correlation Energy        =      -1.3288498902009382 [Eh]
	 Total Energy              =    -323.2840025429029538 [Eh]

	 ================> DF-SCS-MP2 Energies <==================
	-----------------------------------------------------------
	 SCS Same-Spin Scale       =       0.3333333333333333 [-]
	 SCS Opposite-Spin Scale   =       1.2000000000000000 [-]
	 SCS Same-Spin Energy      =      -0.1073753128667443 [Eh]
	 SCS Opposite-Spin Energy  =      -1.2080687419208465 [Eh]
	 SCS Correlation Energy    =      -1.3154440547875907 [Eh]
	 SCS Total Energy          =    -323.2705967074895739 [Eh]
	-----------------------------------------------------------

  Dipole Moment: [D]
     X:    -9.7091      Y:    -2.8331      Z:     0.7136     Total:    10.1391

*** Psi4 exiting successfully. Buy a developer a beer!
