                               Psi4 1.3.2 release

  ==> Input File <==

--------------------------------------------------------------------------
#psi4
#
memory 32 gb

molecule  {
0 1
  S       -0.0195840    -0.9182215     0.0038561
  C        1.4128680     0.2392510    -0.2347660
  C       -1.4128850     0.2392870     0.2347580
  C        1.6248350     1.1731860     0.9503430
  C        2.6401330    -0.6379020    -0.4731570
  C       -1.6249850     1.1730530    -0.9504290
  C       -2.6400040    -0.6379180     0.4735190
  H        1.2307130     0.8299810    -1.1389880
  H       -1.2303680     0.8300180     1.1389060
  H        2.5085220     1.7977530     0.7780440
  H        0.7732350     1.8400660     1.1083290
  H        1.7816100     0.5938770     1.8649360
  H        3.5150250    -0.0075390    -0.6610770
  H        2.4981610    -1.2958220    -1.3346530
  H        2.8465490    -1.2576700     0.4045140
  H       -2.5085150     1.7978030    -0.7780110
  H       -0.7733120     1.8397630    -1.1087700
  H       -1.7821140     0.5936310    -1.8648980
  H       -3.5149340    -0.0075940     0.6613800
  H       -2.4978860    -1.2956150     1.3351630
  H       -2.8465220    -1.2579300    -0.4039620
units angstrom
no_reorient  #important for SAPT in psi4, default
symmetry c1  #important for SAPT in psi4, default
}

set PROPERTIES_ORIGIN ["COM"]
properties('MP2/aug-cc-pvtz', properties = ['dipole'])
--------------------------------------------------------------------------

    Molecular point group: c1
  Charge       = 0
  Multiplicity = 1
  Basis Set: AUG-CC-PVTZ
    Blend: AUG-CC-PVTZ
  Basis Set: (AUG-CC-PVTZ AUX)
    Blend: AUG-CC-PVTZ-JKFIT

    Orbital Energies [Eh]
    ---------------------

    Doubly Occupied:

       1A    -91.932860     2A    -11.259925     3A    -11.257490
       4A    -11.220204     5A    -11.219744     6A    -11.219043
       7A    -11.218616     8A     -8.933383     9A     -6.614550
      10A     -6.613562    11A     -6.612726    12A     -1.105468
      13A     -1.063906    14A     -0.938649    15A     -0.934796
      16A     -0.918038    17A     -0.799199    18A     -0.746634
      19A     -0.643081    20A     -0.627356    21A     -0.602851
      22A     -0.581685    23A     -0.561903    24A     -0.556299
      25A     -0.541297    26A     -0.540779    27A     -0.497358
      28A     -0.493647    29A     -0.493296    30A     -0.483128
      31A     -0.434942    32A     -0.410736    33A     -0.332397

  @DF-RHF Final Energy:  -632.99278307447310

   => Energetics <=

    Nuclear Repulsion Energy =            399.7324671291884215
    One-Electron Energy =               -1660.6314037742768051
    Two-Electron Energy =                 627.9061535706151744
    Total Energy =                       -632.9927830744730954
  Basis Set: (AUG-CC-PVTZ AUX)
    Blend: AUG-CC-PVTZ-RI
    Molecular point group: c1

    Geometry (in Angstrom), charge = 0, multiplicity = 1:

       Center              X                  Y                   Z               Mass
    ------------   -----------------  -----------------  -----------------  -----------------
         S           -0.014278925849    -0.869694843081     0.002776985010    31.972071174400
         C            1.418173074151     0.287777656919    -0.235845114990    12.000000000000
         C           -1.407579925849     0.287813656919     0.233678885010    12.000000000000
         C            1.630140074151     1.221712656919     0.949263885010    12.000000000000
         C            2.645438074151    -0.589375343081    -0.474236114990    12.000000000000
         C           -1.619679925849     1.221579656919    -0.951508114990    12.000000000000
         C           -2.634698925849    -0.589391343081     0.472439885010    12.000000000000
         H            1.236018074151     0.878507656919    -1.140067114990     1.007825032230
         H           -1.225062925849     0.878544656919     1.137826885010     1.007825032230
         H            2.513827074151     1.846279656919     0.776964885010     1.007825032230
         H            0.778540074151     1.888592656919     1.107249885010     1.007825032230
         H            1.786915074151     0.642403656919     1.863856885010     1.007825032230
         H            3.520330074151     0.040987656919    -0.662156114990     1.007825032230
         H            2.503466074151    -1.247295343081    -1.335732114990     1.007825032230
         H            2.851854074151    -1.209143343081     0.403434885010     1.007825032230
         H           -2.503209925849     1.846329656919    -0.779090114990     1.007825032230
         H           -0.768006925849     1.888289656919    -1.109849114990     1.007825032230
         H           -1.776808925849     0.642157656919    -1.865977114990     1.007825032230
         H           -3.509628925849     0.040932656919     0.660300885010     1.007825032230
         H           -2.492580925849    -1.247088343081     1.334083885010     1.007825032230
         H           -2.841216925849    -1.209403343081    -0.405041114990     1.007825032230

  Basis Set: AUG-CC-PVTZ
    Blend: AUG-CC-PVTZ
  Basis Set: (AUG-CC-PVTZ AUX)
    Blend: AUG-CC-PVTZ-JKFIT
	 Reference Energy          =    -632.9927830744730954 [Eh]
	 Singles Energy            =      -0.0000000000000000 [Eh]
	 Same-Spin Energy          =      -0.3133618580778273 [Eh]
	 Opposite-Spin Energy      =      -1.1130872622604446 [Eh]
	 Correlation Energy        =      -1.4264491203382719 [Eh]
	 Total Energy              =    -634.4192321948113431 [Eh]

	 ================> DF-SCS-MP2 Energies <==================
	-----------------------------------------------------------
	 SCS Same-Spin Scale       =       0.3333333333333333 [-]
	 SCS Opposite-Spin Scale   =       1.2000000000000000 [-]
	 SCS Same-Spin Energy      =      -0.1044539526926091 [Eh]
	 SCS Opposite-Spin Energy  =      -1.3357047147125336 [Eh]
	 SCS Correlation Energy    =      -1.4401586674051428 [Eh]
	 SCS Total Energy          =    -634.4329417418782668 [Eh]
	-----------------------------------------------------------

  Dipole Moment: [D]
     X:     0.0230      Y:     1.6647      Z:     0.0003     Total:     1.6648

*** Psi4 exiting successfully. Buy a developer a beer!
