                               Psi4 1.3.2 release

  ==> Input File <==

--------------------------------------------------------------------------
#psi4
#
memory 32 gb

molecule  {
0 1
  S        0.0000040    -0.8934040    -0.0001570
  C        1.5219184     0.0833395    -0.2529065
  C       -1.4128850     0.2392870     0.2347580
  C        1.6248350     1.1731860     0.9503430
  C        2.6401330    -0.6379020    -0.4731570
  C       -1.6249850     1.1730530    -0.9504290
  C       -2.6400040    -0.6379180     0.4735190
  H        1.2307130     0.8299810    -1.1389880
  H       -1.2303680     0.8300180     1.1389060
  H        2.5085220     1.7977530     0.7780440
  H        0.7732350     1.8400660     1.1083290
  H        1.7816100     0.5938770     1.8649360
  H        3.5150250    -0.0075390    -0.6610770
  H        2.4981610    -1.2958220    -1.3346530
  H        2.8465490    -1.2576700     0.4045140
  H       -2.5085150     1.7978030    -0.7780110
  H       -0.7733120     1.8397630    -1.1087700
  H       -1.7821140     0.5936310    -1.8648980
  H       -3.5149340    -0.0075940     0.6613800
  H       -2.4978860    -1.2956150     1.3351630
  H       -2.8465220    -1.2579300    -0.4039620
units angstrom
no_reorient  #important for SAPT in psi4, default
symmetry c1  #important for SAPT in psi4, default
}

set PROPERTIES_ORIGIN ["COM"]
properties('MP2/aug-cc-pvtz', properties = ['dipole'])
--------------------------------------------------------------------------

    Molecular point group: c1
  Charge       = 0
  Multiplicity = 1
  Basis Set: AUG-CC-PVTZ
    Blend: AUG-CC-PVTZ
  Basis Set: (AUG-CC-PVTZ AUX)
    Blend: AUG-CC-PVTZ-JKFIT

    Orbital Energies [Eh]
    ---------------------

    Doubly Occupied:

       1A    -91.930336     2A    -11.264828     3A    -11.261770
       4A    -11.223716     5A    -11.221412     6A    -11.220283
       7A    -11.212400     8A     -8.931576     9A     -6.612769
      10A     -6.612010    11A     -6.611050    12A     -1.118632
      13A     -1.078509    14A     -0.944796    15A     -0.937522
      16A     -0.920057    17A     -0.796881    18A     -0.736964
      19A     -0.648434    20A     -0.634322    21A     -0.612621
      22A     -0.582575    23A     -0.578101    24A     -0.554247
      25A     -0.542732    26A     -0.542427    27A     -0.522206
      28A     -0.494769    29A     -0.492008    30A     -0.451778
      31A     -0.445290    32A     -0.394966    33A     -0.324052

  @DF-RHF Final Energy:  -632.95292639889681

   => Energetics <=

    Nuclear Repulsion Energy =            400.6114685783233540
    One-Electron Energy =               -1662.2167127965904001
    Two-Electron Energy =                 628.6523178193701824
    Total Energy =                       -632.9529263988968069
  Basis Set: (AUG-CC-PVTZ AUX)
    Blend: AUG-CC-PVTZ-RI
    Molecular point group: c1

    Geometry (in Angstrom), charge = 0, multiplicity = 1:

       Center              X                  Y                   Z               Mass
    ------------   -----------------  -----------------  -----------------  -----------------
         S           -0.011076826581    -0.835752543567     0.001694003297    31.972071174400
         C            1.510837573419     0.140990956433    -0.251055496703    12.000000000000
         C           -1.423965826581     0.296938456433     0.236609003297    12.000000000000
         C            1.613754173419     1.230837456433     0.952194003297    12.000000000000
         C            2.629052173419    -0.580250543567    -0.471305996703    12.000000000000
         C           -1.636065826581     1.230704456433    -0.948577996703    12.000000000000
         C           -2.651084826581    -0.580266543567     0.475370003297    12.000000000000
         H            1.219632173419     0.887632456433    -1.137136996703     1.007825032230
         H           -1.241448826581     0.887669456433     1.140757003297     1.007825032230
         H            2.497441173419     1.855404456433     0.779895003297     1.007825032230
         H            0.762154173419     1.897717456433     1.110180003297     1.007825032230
         H            1.770529173419     0.651528456433     1.866787003297     1.007825032230
         H            3.503944173419     0.050112456433    -0.659225996703     1.007825032230
         H            2.487080173419    -1.238170543567    -1.332801996703     1.007825032230
         H            2.835468173419    -1.200018543567     0.406365003297     1.007825032230
         H           -2.519595826581     1.855454456433    -0.776159996703     1.007825032230
         H           -0.784392826581     1.897414456433    -1.106918996703     1.007825032230
         H           -1.793194826581     0.651282456433    -1.863046996703     1.007825032230
         H           -3.526014826581     0.050057456433     0.663231003297     1.007825032230
         H           -2.508966826581    -1.237963543567     1.337014003297     1.007825032230
         H           -2.857602826581    -1.200278543567    -0.402110996703     1.007825032230

  Basis Set: AUG-CC-PVTZ
    Blend: AUG-CC-PVTZ
  Basis Set: (AUG-CC-PVTZ AUX)
    Blend: AUG-CC-PVTZ-JKFIT
	 Reference Energy          =    -632.9529263988968069 [Eh]
	 Singles Energy            =      -0.0000000000000000 [Eh]
	 Same-Spin Energy          =      -0.3152144774911009 [Eh]
	 Opposite-Spin Energy      =      -1.1153502456302342 [Eh]
	 Correlation Energy        =      -1.4305647231213352 [Eh]
	 Total Energy              =    -634.3834911220180857 [Eh]

	 ================> DF-SCS-MP2 Energies <==================
	-----------------------------------------------------------
	 SCS Same-Spin Scale       =       0.3333333333333333 [-]
	 SCS Opposite-Spin Scale   =       1.2000000000000000 [-]
	 SCS Same-Spin Energy      =      -0.1050714924970336 [Eh]
	 SCS Opposite-Spin Energy  =      -1.3384202947562811 [Eh]
	 SCS Correlation Energy    =      -1.4434917872533148 [Eh]
	 SCS Total Energy          =    -634.3964181861500720 [Eh]
	-----------------------------------------------------------

  Dipole Moment: [D]
     X:     0.0097      Y:     1.6439      Z:    -0.0367     Total:     1.6443

*** Psi4 exiting successfully. Buy a developer a beer!
