                               Psi4 1.3.2 release

  ==> Input File <==

--------------------------------------------------------------------------
#psi4
#
memory 32 gb

molecule  {
0 1
  S        0.0000040    -0.8934040    -0.0001570
  C        1.2581151     0.1151897    -0.2090690
  C       -1.4128850     0.2392870     0.2347580
  C        1.6248350     1.1731860     0.9503430
  C        2.6401330    -0.6379020    -0.4731570
  C       -1.6249850     1.1730530    -0.9504290
  C       -2.6400040    -0.6379180     0.4735190
  H        1.2307130     0.8299810    -1.1389880
  H       -1.2303680     0.8300180     1.1389060
  H        2.5085220     1.7977530     0.7780440
  H        0.7732350     1.8400660     1.1083290
  H        1.7816100     0.5938770     1.8649360
  H        3.5150250    -0.0075390    -0.6610770
  H        2.4981610    -1.2958220    -1.3346530
  H        2.8465490    -1.2576700     0.4045140
  H       -2.5085150     1.7978030    -0.7780110
  H       -0.7733120     1.8397630    -1.1087700
  H       -1.7821140     0.5936310    -1.8648980
  H       -3.5149340    -0.0075940     0.6613800
  H       -2.4978860    -1.2956150     1.3351630
  H       -2.8465220    -1.2579300    -0.4039620
units angstrom
no_reorient  #important for SAPT in psi4, default
symmetry c1  #important for SAPT in psi4, default
}

set PROPERTIES_ORIGIN ["COM"]
properties('MP2/aug-cc-pvtz', properties = ['dipole'])
--------------------------------------------------------------------------

    Molecular point group: c1
  Charge       = 0
  Multiplicity = 1
  Basis Set: AUG-CC-PVTZ
    Blend: AUG-CC-PVTZ
  Basis Set: (AUG-CC-PVTZ AUX)
    Blend: AUG-CC-PVTZ-JKFIT

    Orbital Energies [Eh]
    ---------------------

    Doubly Occupied:

       1A    -91.933707     2A    -11.261032     3A    -11.259026
       4A    -11.223380     5A    -11.221979     6A    -11.220939
       7A    -11.220214     8A     -8.938681     9A     -6.620481
      10A     -6.618872    11A     -6.617943    12A     -1.123439
      13A     -1.059161    14A     -0.941173    15A     -0.938335
      16A     -0.923983    17A     -0.806049    18A     -0.733397
      19A     -0.649018    20A     -0.623106    21A     -0.598354
      22A     -0.581298    23A     -0.563527    24A     -0.555373
      25A     -0.543784    26A     -0.535676    27A     -0.502433
      28A     -0.495631    29A     -0.479808    30A     -0.473407
      31A     -0.465955    32A     -0.406393    33A     -0.325721

  @DF-RHF Final Energy:  -632.95595430089168

   => Energetics <=

    Nuclear Repulsion Energy =            403.2902759281305975
    One-Electron Energy =               -1667.5699086822507979
    Two-Electron Energy =                 631.3236784532285810
    Total Energy =                       -632.9559543008916762
  Basis Set: (AUG-CC-PVTZ AUX)
    Blend: AUG-CC-PVTZ-RI
    Molecular point group: c1

    Geometry (in Angstrom), charge = 0, multiplicity = 1:

       Center              X                  Y                   Z               Mass
    ------------   -----------------  -----------------  -----------------  -----------------
         S            0.015732083700    -0.838989308059    -0.002760966010    31.972071174400
         C            1.273843183700     0.169604391941    -0.211672966010    12.000000000000
         C           -1.397156916300     0.293701691941     0.232154033990    12.000000000000
         C            1.640563083700     1.227600691941     0.947739033990    12.000000000000
         C            2.655861083700    -0.583487308059    -0.475760966010    12.000000000000
         C           -1.609256916300     1.227467691941    -0.953032966010    12.000000000000
         C           -2.624275916300    -0.583503308059     0.470915033990    12.000000000000
         H            1.246441083700     0.884395691941    -1.141591966010     1.007825032230
         H           -1.214639916300     0.884432691941     1.136302033990     1.007825032230
         H            2.524250083700     1.852167691941     0.775440033990     1.007825032230
         H            0.788963083700     1.894480691941     1.105725033990     1.007825032230
         H            1.797338083700     0.648291691941     1.862332033990     1.007825032230
         H            3.530753083700     0.046875691941    -0.663680966010     1.007825032230
         H            2.513889083700    -1.241407308059    -1.337256966010     1.007825032230
         H            2.862277083700    -1.203255308059     0.401910033990     1.007825032230
         H           -2.492786916300     1.852217691941    -0.780614966010     1.007825032230
         H           -0.757583916300     1.894177691941    -1.111373966010     1.007825032230
         H           -1.766385916300     0.648045691941    -1.867501966010     1.007825032230
         H           -3.499205916300     0.046820691941     0.658776033990     1.007825032230
         H           -2.482157916300    -1.241200308059     1.332559033990     1.007825032230
         H           -2.830793916300    -1.203515308059    -0.406565966010     1.007825032230

  Basis Set: AUG-CC-PVTZ
    Blend: AUG-CC-PVTZ
  Basis Set: (AUG-CC-PVTZ AUX)
    Blend: AUG-CC-PVTZ-JKFIT
	 Reference Energy          =    -632.9559543008916762 [Eh]
	 Singles Energy            =      -0.0000000000000000 [Eh]
	 Same-Spin Energy          =      -0.3156771229425234 [Eh]
	 Opposite-Spin Energy      =      -1.1158354710577243 [Eh]
	 Correlation Energy        =      -1.4315125940002478 [Eh]
	 Total Energy              =    -634.3874668948918725 [Eh]

	 ================> DF-SCS-MP2 Energies <==================
	-----------------------------------------------------------
	 SCS Same-Spin Scale       =       0.3333333333333333 [-]
	 SCS Opposite-Spin Scale   =       1.2000000000000000 [-]
	 SCS Same-Spin Energy      =      -0.1052257076475078 [Eh]
	 SCS Opposite-Spin Energy  =      -1.3390025652692692 [Eh]
	 SCS Correlation Energy    =      -1.4442282729167770 [Eh]
	 SCS Total Energy          =    -634.4001825738084790 [Eh]
	-----------------------------------------------------------

  Dipole Moment: [D]
     X:    -0.2903      Y:     1.4769      Z:    -0.0171     Total:     1.5053

*** Psi4 exiting successfully. Buy a developer a beer!
