                               Psi4 1.3.2 release

  ==> Input File <==

--------------------------------------------------------------------------
#psi4
#
memory 32 gb

molecule  {
0 1
  S       -0.0581192    -0.9370176    -0.1048688
  C        1.4128680     0.2392510    -0.2347660
  C       -1.4128850     0.2392870     0.2347580
  C        1.6248350     1.1731860     0.9503430
  C        2.6401330    -0.6379020    -0.4731570
  C       -1.6249850     1.1730530    -0.9504290
  C       -2.6400040    -0.6379180     0.4735190
  H        1.2307130     0.8299810    -1.1389880
  H       -1.2303680     0.8300180     1.1389060
  H        2.5085220     1.7977530     0.7780440
  H        0.7732350     1.8400660     1.1083290
  H        1.7816100     0.5938770     1.8649360
  H        3.5150250    -0.0075390    -0.6610770
  H        2.4981610    -1.2958220    -1.3346530
  H        2.8465490    -1.2576700     0.4045140
  H       -2.5085150     1.7978030    -0.7780110
  H       -0.7733120     1.8397630    -1.1087700
  H       -1.7821140     0.5936310    -1.8648980
  H       -3.5149340    -0.0075940     0.6613800
  H       -2.4978860    -1.2956150     1.3351630
  H       -2.8465220    -1.2579300    -0.4039620
units angstrom
no_reorient  #important for SAPT in psi4, default
symmetry c1  #important for SAPT in psi4, default
}

set PROPERTIES_ORIGIN ["COM"]
properties('MP2/aug-cc-pvtz', properties = ['dipole'])
--------------------------------------------------------------------------

    Molecular point group: c1
  Charge       = 0
  Multiplicity = 1
  Basis Set: AUG-CC-PVTZ
    Blend: AUG-CC-PVTZ
  Basis Set: (AUG-CC-PVTZ AUX)
    Blend: AUG-CC-PVTZ-JKFIT

    Orbital Energies [Eh]
    ---------------------

    Doubly Occupied:

       1A    -91.934097     2A    -11.261980     3A    -11.257308
       4A    -11.222310     5A    -11.218910     6A    -11.218113
       7A    -11.218017     8A     -8.934171     9A     -6.615295
      10A     -6.614289    11A     -6.613473    12A     -1.103487
      13A     -1.063199    14A     -0.938700    15A     -0.934665
      16A     -0.915627    17A     -0.797770    18A     -0.748007
      19A     -0.641729    20A     -0.627191    21A     -0.601999
      22A     -0.581855    23A     -0.561792    24A     -0.556134
      25A     -0.541270    26A     -0.540717    27A     -0.497100
      28A     -0.493427    29A     -0.492683    30A     -0.482900
      31A     -0.431430    32A     -0.410918    33A     -0.332788

  @DF-RHF Final Energy:  -632.98997999102949

   => Energetics <=

    Nuclear Repulsion Energy =            398.9378274534352045
    One-Electron Energy =               -1659.0489171407280082
    Two-Electron Energy =                 627.1211096962633746
    Total Energy =                       -632.9899799910294860
  Basis Set: (AUG-CC-PVTZ AUX)
    Blend: AUG-CC-PVTZ-RI
    Molecular point group: c1

    Geometry (in Angstrom), charge = 0, multiplicity = 1:

       Center              X                  Y                   Z               Mass
    ------------   -----------------  -----------------  -----------------  -----------------
         S           -0.042380240032    -0.883401664676    -0.076509292845    31.972071174400
         C            1.428606959968     0.292866935324    -0.206406492845    12.000000000000
         C           -1.397146040032     0.292902935324     0.263117507155    12.000000000000
         C            1.640573959968     1.226801935324     0.978702507155    12.000000000000
         C            2.655871959968    -0.584286064676    -0.444797492845    12.000000000000
         C           -1.609246040032     1.226668935324    -0.922069492845    12.000000000000
         C           -2.624265040032    -0.584302064676     0.501878507155    12.000000000000
         H            1.246451959968     0.883596935324    -1.110628492845     1.007825032230
         H           -1.214629040032     0.883633935324     1.167265507155     1.007825032230
         H            2.524260959968     1.851368935324     0.806403507155     1.007825032230
         H            0.788973959968     1.893681935324     1.136688507155     1.007825032230
         H            1.797348959968     0.647492935324     1.893295507155     1.007825032230
         H            3.530763959968     0.046076935324    -0.632717492845     1.007825032230
         H            2.513899959968    -1.242206064676    -1.306293492845     1.007825032230
         H            2.862287959968    -1.204054064676     0.432873507155     1.007825032230
         H           -2.492776040032     1.851418935324    -0.749651492845     1.007825032230
         H           -0.757573040032     1.893378935324    -1.080410492845     1.007825032230
         H           -1.766375040032     0.647246935324    -1.836538492845     1.007825032230
         H           -3.499195040032     0.046021935324     0.689739507155     1.007825032230
         H           -2.482147040032    -1.241999064676     1.363522507155     1.007825032230
         H           -2.830783040032    -1.204314064676    -0.375602492845     1.007825032230

  Basis Set: AUG-CC-PVTZ
    Blend: AUG-CC-PVTZ
  Basis Set: (AUG-CC-PVTZ AUX)
    Blend: AUG-CC-PVTZ-JKFIT
	 Reference Energy          =    -632.9899799910294860 [Eh]
	 Singles Energy            =      -0.0000000000000000 [Eh]
	 Same-Spin Energy          =      -0.3133010749620015 [Eh]
	 Opposite-Spin Energy      =      -1.1134488362021495 [Eh]
	 Correlation Energy        =      -1.4267499111641511 [Eh]
	 Total Energy              =    -634.4167299021936515 [Eh]

	 ================> DF-SCS-MP2 Energies <==================
	-----------------------------------------------------------
	 SCS Same-Spin Scale       =       0.3333333333333333 [-]
	 SCS Opposite-Spin Scale   =       1.2000000000000000 [-]
	 SCS Same-Spin Energy      =      -0.1044336916540005 [Eh]
	 SCS Opposite-Spin Energy  =      -1.3361386034425793 [Eh]
	 SCS Correlation Energy    =      -1.4405722950965798 [Eh]
	 SCS Total Energy          =    -634.4305522861260442 [Eh]
	-----------------------------------------------------------

  Dipole Moment: [D]
     X:     0.0883      Y:     1.6741      Z:     0.1223     Total:     1.6809

*** Psi4 exiting successfully. Buy a developer a beer!
