                               Psi4 1.3.2 release

  ==> Input File <==

--------------------------------------------------------------------------
#psi4
#
memory 32 gb

molecule  {
0 1
  S        0.0000040    -0.8934040    -0.0001570
  C        1.3314871     0.3363978    -0.2212309
  C       -1.4128850     0.2392870     0.2347580
  C        1.6248350     1.1731860     0.9503430
  C        2.6401330    -0.6379020    -0.4731570
  C       -1.6249850     1.1730530    -0.9504290
  C       -2.6400040    -0.6379180     0.4735190
  H        1.2307130     0.8299810    -1.1389880
  H       -1.2303680     0.8300180     1.1389060
  H        2.5085220     1.7977530     0.7780440
  H        0.7732350     1.8400660     1.1083290
  H        1.7816100     0.5938770     1.8649360
  H        3.5150250    -0.0075390    -0.6610770
  H        2.4981610    -1.2958220    -1.3346530
  H        2.8465490    -1.2576700     0.4045140
  H       -2.5085150     1.7978030    -0.7780110
  H       -0.7733120     1.8397630    -1.1087700
  H       -1.7821140     0.5936310    -1.8648980
  H       -3.5149340    -0.0075940     0.6613800
  H       -2.4978860    -1.2956150     1.3351630
  H       -2.8465220    -1.2579300    -0.4039620
units angstrom
no_reorient  #important for SAPT in psi4, default
symmetry c1  #important for SAPT in psi4, default
}

set PROPERTIES_ORIGIN ["COM"]
properties('MP2/aug-cc-pvtz', properties = ['dipole'])
--------------------------------------------------------------------------

    Molecular point group: c1
  Charge       = 0
  Multiplicity = 1
  Basis Set: AUG-CC-PVTZ
    Blend: AUG-CC-PVTZ
  Basis Set: (AUG-CC-PVTZ AUX)
    Blend: AUG-CC-PVTZ-JKFIT

    Orbital Energies [Eh]
    ---------------------

    Doubly Occupied:

       1A    -91.933881     2A    -11.256181     3A    -11.255692
       4A    -11.221867     5A    -11.219474     6A    -11.218177
       7A    -11.218000     8A     -8.934610     9A     -6.615819
      10A     -6.614717    11A     -6.613901    12A     -1.107731
      13A     -1.061125    14A     -0.937451    15A     -0.933420
      16A     -0.916733    17A     -0.804567    18A     -0.750368
      19A     -0.644102    20A     -0.624715    21A     -0.598899
      22A     -0.585560    23A     -0.561042    24A     -0.557719
      25A     -0.540432    26A     -0.539394    27A     -0.511466
      28A     -0.494561    29A     -0.490804    30A     -0.471383
      31A     -0.425909    32A     -0.411975    33A     -0.334643

  @DF-RHF Final Energy:  -632.97938923707693

   => Energetics <=

    Nuclear Repulsion Energy =            400.7347534381411833
    One-Electron Energy =               -1662.6156463177935620
    Two-Electron Energy =                 628.9015036425755625
    Total Energy =                       -632.9793892370769299
  Basis Set: (AUG-CC-PVTZ AUX)
    Blend: AUG-CC-PVTZ-RI
    Molecular point group: c1

    Geometry (in Angstrom), charge = 0, multiplicity = 1:

       Center              X                  Y                   Z               Mass
    ------------   -----------------  -----------------  -----------------  -----------------
         S            0.008275682036    -0.861469497300    -0.001525017536    31.972071174400
         C            1.339758782036     0.368332302700    -0.222598917536    12.000000000000
         C           -1.404613317964     0.271221502700     0.233389982464    12.000000000000
         C            1.633106682036     1.205120502700     0.948974982464    12.000000000000
         C            2.648404682036    -0.605967497300    -0.474525017536    12.000000000000
         C           -1.616713317964     1.204987502700    -0.951797017536    12.000000000000
         C           -2.631732317964    -0.605983497300     0.472150982464    12.000000000000
         H            1.238984682036     0.861915502700    -1.140356017536     1.007825032230
         H           -1.222096317964     0.861952502700     1.137537982464     1.007825032230
         H            2.516793682036     1.829687502700     0.776675982464     1.007825032230
         H            0.781506682036     1.872000502700     1.106960982464     1.007825032230
         H            1.789881682036     0.625811502700     1.863567982464     1.007825032230
         H            3.523296682036     0.024395502700    -0.662445017536     1.007825032230
         H            2.506432682036    -1.263887497300    -1.336021017536     1.007825032230
         H            2.854820682036    -1.225735497300     0.403145982464     1.007825032230
         H           -2.500243317964     1.829737502700    -0.779379017536     1.007825032230
         H           -0.765040317964     1.871697502700    -1.110138017536     1.007825032230
         H           -1.773842317964     0.625565502700    -1.866266017536     1.007825032230
         H           -3.506662317964     0.024340502700     0.660011982464     1.007825032230
         H           -2.489614317964    -1.263680497300     1.333794982464     1.007825032230
         H           -2.838250317964    -1.225995497300    -0.405330017536     1.007825032230

  Basis Set: AUG-CC-PVTZ
    Blend: AUG-CC-PVTZ
  Basis Set: (AUG-CC-PVTZ AUX)
    Blend: AUG-CC-PVTZ-JKFIT
	 Reference Energy          =    -632.9793892370769299 [Eh]
	 Singles Energy            =      -0.0000000000000000 [Eh]
	 Same-Spin Energy          =      -0.3140514623550842 [Eh]
	 Opposite-Spin Energy      =      -1.1143631637264226 [Eh]
	 Correlation Energy        =      -1.4284146260815067 [Eh]
	 Total Energy              =    -634.4078038631583922 [Eh]

	 ================> DF-SCS-MP2 Energies <==================
	-----------------------------------------------------------
	 SCS Same-Spin Scale       =       0.3333333333333333 [-]
	 SCS Opposite-Spin Scale   =       1.2000000000000000 [-]
	 SCS Same-Spin Energy      =      -0.1046838207850281 [Eh]
	 SCS Opposite-Spin Energy  =      -1.3372357964717072 [Eh]
	 SCS Correlation Energy    =      -1.4419196172567352 [Eh]
	 SCS Total Energy          =    -634.4213088543336880 [Eh]
	-----------------------------------------------------------

  Dipole Moment: [D]
     X:    -0.0129      Y:     1.6331      Z:     0.0302     Total:     1.6334

*** Psi4 exiting successfully. Buy a developer a beer!
