                               Psi4 1.3.2 release

  ==> Input File <==

--------------------------------------------------------------------------
#psi4
#
memory 32 gb

molecule  {
0 1
  S        0.0000040    -0.8934040    -0.0001570
  C        1.4510007     0.1885776    -0.2411088
  C       -1.4128850     0.2392870     0.2347580
  C        1.6248350     1.1731860     0.9503430
  C        2.6401330    -0.6379020    -0.4731570
  C       -1.6249850     1.1730530    -0.9504290
  C       -2.6400040    -0.6379180     0.4735190
  H        1.2307130     0.8299810    -1.1389880
  H       -1.2303680     0.8300180     1.1389060
  H        2.5085220     1.7977530     0.7780440
  H        0.7732350     1.8400660     1.1083290
  H        1.7816100     0.5938770     1.8649360
  H        3.5150250    -0.0075390    -0.6610770
  H        2.4981610    -1.2958220    -1.3346530
  H        2.8465490    -1.2576700     0.4045140
  H       -2.5085150     1.7978030    -0.7780110
  H       -0.7733120     1.8397630    -1.1087700
  H       -1.7821140     0.5936310    -1.8648980
  H       -3.5149340    -0.0075940     0.6613800
  H       -2.4978860    -1.2956150     1.3351630
  H       -2.8465220    -1.2579300    -0.4039620
units angstrom
no_reorient  #important for SAPT in psi4, default
symmetry c1  #important for SAPT in psi4, default
}

set PROPERTIES_ORIGIN ["COM"]
properties('MP2/aug-cc-pvtz', properties = ['dipole'])
--------------------------------------------------------------------------

    Molecular point group: c1
  Charge       = 0
  Multiplicity = 1
  Basis Set: AUG-CC-PVTZ
    Blend: AUG-CC-PVTZ
  Basis Set: (AUG-CC-PVTZ AUX)
    Blend: AUG-CC-PVTZ-JKFIT

    Orbital Energies [Eh]
    ---------------------

    Doubly Occupied:

       1A    -91.930631     2A    -11.259582     3A    -11.258964
       4A    -11.220974     5A    -11.219936     6A    -11.219896
       7A    -11.217244     8A     -8.931804     9A     -6.613011
      10A     -6.612105    11A     -6.611211    12A     -1.109593
      13A     -1.068373    14A     -0.940207    15A     -0.936055
      16A     -0.920782    17A     -0.799243    18A     -0.742682
      19A     -0.645213    20A     -0.629463    21A     -0.606112
      22A     -0.580734    23A     -0.566320    24A     -0.555524
      25A     -0.541974    26A     -0.541423    27A     -0.505628
      28A     -0.494506    29A     -0.491869    30A     -0.475323
      31A     -0.443972    32A     -0.405401    33A     -0.329164

  @DF-RHF Final Energy:  -632.98938527238397

   => Energetics <=

    Nuclear Repulsion Energy =            400.5680159992143672
    One-Electron Energy =               -1662.2649618755044685
    Two-Electron Energy =                 628.7075606039061313
    Total Energy =                       -632.9893852723839700
  Basis Set: (AUG-CC-PVTZ AUX)
    Blend: AUG-CC-PVTZ-RI
    Molecular point group: c1

    Geometry (in Angstrom), charge = 0, multiplicity = 1:

       Center              X                  Y                   Z               Mass
    ------------   -----------------  -----------------  -----------------  -----------------
         S           -0.003869842223    -0.846447325555     0.000495066510    31.972071174400
         C            1.447126857777     0.235534274445    -0.240456733490    12.000000000000
         C           -1.416758842223     0.286243674445     0.235410066510    12.000000000000
         C            1.620961157777     1.220142674445     0.950995066510    12.000000000000
         C            2.636259157777    -0.590945325555    -0.472504933490    12.000000000000
         C           -1.628858842223     1.220009674445    -0.949776933490    12.000000000000
         C           -2.643877842223    -0.590961325555     0.474171066510    12.000000000000
         H            1.226839157777     0.876937674445    -1.138335933490     1.007825032230
         H           -1.234241842223     0.876974674445     1.139558066510     1.007825032230
         H            2.504648157777     1.844709674445     0.778696066510     1.007825032230
         H            0.769361157777     1.887022674445     1.108981066510     1.007825032230
         H            1.777736157777     0.640833674445     1.865588066510     1.007825032230
         H            3.511151157777     0.039417674445    -0.660424933490     1.007825032230
         H            2.494287157777    -1.248865325555    -1.334000933490     1.007825032230
         H            2.842675157777    -1.210713325555     0.405166066510     1.007825032230
         H           -2.512388842223     1.844759674445    -0.777358933490     1.007825032230
         H           -0.777185842223     1.886719674445    -1.108117933490     1.007825032230
         H           -1.785987842223     0.640587674445    -1.864245933490     1.007825032230
         H           -3.518807842223     0.039362674445     0.662032066510     1.007825032230
         H           -2.501759842223    -1.248658325555     1.335815066510     1.007825032230
         H           -2.850395842223    -1.210973325555    -0.403309933490     1.007825032230

  Basis Set: AUG-CC-PVTZ
    Blend: AUG-CC-PVTZ
  Basis Set: (AUG-CC-PVTZ AUX)
    Blend: AUG-CC-PVTZ-JKFIT
	 Reference Energy          =    -632.9893852723839700 [Eh]
	 Singles Energy            =      -0.0000000000000000 [Eh]
	 Same-Spin Energy          =      -0.3137395936192722 [Eh]
	 Opposite-Spin Energy      =      -1.1130874841705201 [Eh]
	 Correlation Energy        =      -1.4268270777897922 [Eh]
	 Total Energy              =    -634.4162123501737369 [Eh]

	 ================> DF-SCS-MP2 Energies <==================
	-----------------------------------------------------------
	 SCS Same-Spin Scale       =       0.3333333333333333 [-]
	 SCS Opposite-Spin Scale   =       1.2000000000000000 [-]
	 SCS Same-Spin Energy      =      -0.1045798645397574 [Eh]
	 SCS Opposite-Spin Energy  =      -1.3357049810046240 [Eh]
	 SCS Correlation Energy    =      -1.4402848455443813 [Eh]
	 SCS Total Energy          =    -634.4296701179283673 [Eh]
	-----------------------------------------------------------

  Dipole Moment: [D]
     X:     0.0019      Y:     1.6577      Z:    -0.0129     Total:     1.6577

*** Psi4 exiting successfully. Buy a developer a beer!
