                               Psi4 1.3.2 release

  ==> Input File <==

--------------------------------------------------------------------------
#psi4
#
memory 32 gb

molecule  {
0 1
  S        0.0000040    -0.8934040    -0.0001570
  C        1.3354915     0.1772204    -0.2219175
  C       -1.4128850     0.2392870     0.2347580
  C        1.6248350     1.1731860     0.9503430
  C        2.6401330    -0.6379020    -0.4731570
  C       -1.6249850     1.1730530    -0.9504290
  C       -2.6400040    -0.6379180     0.4735190
  H        1.2307130     0.8299810    -1.1389880
  H       -1.2303680     0.8300180     1.1389060
  H        2.5085220     1.7977530     0.7780440
  H        0.7732350     1.8400660     1.1083290
  H        1.7816100     0.5938770     1.8649360
  H        3.5150250    -0.0075390    -0.6610770
  H        2.4981610    -1.2958220    -1.3346530
  H        2.8465490    -1.2576700     0.4045140
  H       -2.5085150     1.7978030    -0.7780110
  H       -0.7733120     1.8397630    -1.1087700
  H       -1.7821140     0.5936310    -1.8648980
  H       -3.5149340    -0.0075940     0.6613800
  H       -2.4978860    -1.2956150     1.3351630
  H       -2.8465220    -1.2579300    -0.4039620
units angstrom
no_reorient  #important for SAPT in psi4, default
symmetry c1  #important for SAPT in psi4, default
}

set PROPERTIES_ORIGIN ["COM"]
properties('MP2/aug-cc-pvtz', properties = ['dipole'])
--------------------------------------------------------------------------

    Molecular point group: c1
  Charge       = 0
  Multiplicity = 1
  Basis Set: AUG-CC-PVTZ
    Blend: AUG-CC-PVTZ
  Basis Set: (AUG-CC-PVTZ AUX)
    Blend: AUG-CC-PVTZ-JKFIT

    Orbital Energies [Eh]
    ---------------------

    Doubly Occupied:

       1A    -91.933636     2A    -11.259641     3A    -11.257272
       4A    -11.220862     5A    -11.220467     6A    -11.220345
       7A    -11.219506     8A     -8.936184     9A     -6.617616
      10A     -6.616466    11A     -6.615554    12A     -1.113663
      13A     -1.060918    14A     -0.938607    15A     -0.931069
      16A     -0.928770    17A     -0.802913    18A     -0.740242
      19A     -0.646804    20A     -0.624390    21A     -0.600933
      22A     -0.581367    23A     -0.562455    24A     -0.555689
      25A     -0.542656    26A     -0.538019    27A     -0.497352
      28A     -0.495231    29A     -0.483072    30A     -0.477190
      31A     -0.456352    32A     -0.412810    33A     -0.330447

  @DF-RHF Final Energy:  -632.98455067135319

   => Energetics <=

    Nuclear Repulsion Energy =            401.8773887364670827
    One-Electron Energy =               -1664.8468777627276722
    Two-Electron Energy =                 629.9849383549073991
    Total Energy =                       -632.9845506713531904
  Basis Set: (AUG-CC-PVTZ AUX)
    Blend: AUG-CC-PVTZ-RI
    Molecular point group: c1

    Geometry (in Angstrom), charge = 0, multiplicity = 1:

       Center              X                  Y                   Z               Mass
    ------------   -----------------  -----------------  -----------------  -----------------
         S            0.007868736405    -0.845293154413    -0.001455242072    31.972071174400
         C            1.343356236405     0.225331245587    -0.223215742072    12.000000000000
         C           -1.405020263595     0.287397845587     0.233459757928    12.000000000000
         C            1.632699736405     1.221296845587     0.949044757928    12.000000000000
         C            2.647997736405    -0.589791154413    -0.474455242072    12.000000000000
         C           -1.617120263595     1.221163845587    -0.951727242072    12.000000000000
         C           -2.632139263595    -0.589807154413     0.472220757928    12.000000000000
         H            1.238577736405     0.878091845587    -1.140286242072     1.007825032230
         H           -1.222503263595     0.878128845587     1.137607757928     1.007825032230
         H            2.516386736405     1.845863845587     0.776745757928     1.007825032230
         H            0.781099736405     1.888176845587     1.107030757928     1.007825032230
         H            1.789474736405     0.641987845587     1.863637757928     1.007825032230
         H            3.522889736405     0.040571845587    -0.662375242072     1.007825032230
         H            2.506025736405    -1.247711154413    -1.335951242072     1.007825032230
         H            2.854413736405    -1.209559154413     0.403215757928     1.007825032230
         H           -2.500650263595     1.845913845587    -0.779309242072     1.007825032230
         H           -0.765447263595     1.887873845587    -1.110068242072     1.007825032230
         H           -1.774249263595     0.641741845587    -1.866196242072     1.007825032230
         H           -3.507069263595     0.040516845587     0.660081757928     1.007825032230
         H           -2.490021263595    -1.247504154413     1.333864757928     1.007825032230
         H           -2.838657263595    -1.209819154413    -0.405260242072     1.007825032230

  Basis Set: AUG-CC-PVTZ
    Blend: AUG-CC-PVTZ
  Basis Set: (AUG-CC-PVTZ AUX)
    Blend: AUG-CC-PVTZ-JKFIT
	 Reference Energy          =    -632.9845506713531904 [Eh]
	 Singles Energy            =      -0.0000000000000000 [Eh]
	 Same-Spin Energy          =      -0.3141104591966002 [Eh]
	 Opposite-Spin Energy      =      -1.1136280475558471 [Eh]
	 Correlation Energy        =      -1.4277385067524473 [Eh]
	 Total Energy              =    -634.4122891781056524 [Eh]

	 ================> DF-SCS-MP2 Energies <==================
	-----------------------------------------------------------
	 SCS Same-Spin Scale       =       0.3333333333333333 [-]
	 SCS Opposite-Spin Scale   =       1.2000000000000000 [-]
	 SCS Same-Spin Energy      =      -0.1047034863988667 [Eh]
	 SCS Opposite-Spin Energy  =      -1.3363536570670165 [Eh]
	 SCS Correlation Energy    =      -1.4410571434658832 [Eh]
	 SCS Total Energy          =    -634.4256078148190454 [Eh]
	-----------------------------------------------------------

  Dipole Moment: [D]
     X:    -0.1615      Y:     1.5689      Z:    -0.0103     Total:     1.5773

*** Psi4 exiting successfully. Buy a developer a beer!
