                               Psi4 1.3.2 release

  ==> Input File <==

--------------------------------------------------------------------------
#psi4
#
memory 32 gb

molecule  {
0 1
  S        0.0000040    -0.8934040    -0.0001570
  C        1.2883380     0.3827529    -0.2140551
  C       -1.4128850     0.2392870     0.2347580
  C        1.6248350     1.1731860     0.9503430
  C        2.6401330    -0.6379020    -0.4731570
  C       -1.6249850     1.1730530    -0.9504290
  C       -2.6400040    -0.6379180     0.4735190
  H        1.2307130     0.8299810    -1.1389880
  H       -1.2303680     0.8300180     1.1389060
  H        2.5085220     1.7977530     0.7780440
  H        0.7732350     1.8400660     1.1083290
  H        1.7816100     0.5938770     1.8649360
  H        3.5150250    -0.0075390    -0.6610770
  H        2.4981610    -1.2958220    -1.3346530
  H        2.8465490    -1.2576700     0.4045140
  H       -2.5085150     1.7978030    -0.7780110
  H       -0.7733120     1.8397630    -1.1087700
  H       -1.7821140     0.5936310    -1.8648980
  H       -3.5149340    -0.0075940     0.6613800
  H       -2.4978860    -1.2956150     1.3351630
  H       -2.8465220    -1.2579300    -0.4039620
units angstrom
no_reorient  #important for SAPT in psi4, default
symmetry c1  #important for SAPT in psi4, default
}

set PROPERTIES_ORIGIN ["COM"]
properties('MP2/aug-cc-pvtz', properties = ['dipole'])
--------------------------------------------------------------------------

    Molecular point group: c1
  Charge       = 0
  Multiplicity = 1
  Basis Set: AUG-CC-PVTZ
    Blend: AUG-CC-PVTZ
  Basis Set: (AUG-CC-PVTZ AUX)
    Blend: AUG-CC-PVTZ-JKFIT

    Orbital Energies [Eh]
    ---------------------

    Doubly Occupied:

       1A    -91.935715     2A    -11.256748     3A    -11.254936
       4A    -11.222296     5A    -11.219467     6A    -11.217758
       7A    -11.217722     8A     -8.936215     9A     -6.617416
      10A     -6.616261    11A     -6.615463    12A     -1.108559
      13A     -1.060789    14A     -0.937339    15A     -0.933649
      16A     -0.914016    17A     -0.806559    18A     -0.752356
      19A     -0.644426    20A     -0.623475    21A     -0.596942
      22A     -0.589049    23A     -0.564323    24A     -0.557035
      25A     -0.540177    26A     -0.538365    27A     -0.516810
      28A     -0.494786    29A     -0.490769    30A     -0.464496
      31A     -0.427004    32A     -0.400633    33A     -0.336274

  @DF-RHF Final Energy:  -632.96368187898099

   => Energetics <=

    Nuclear Repulsion Energy =            400.8232523237091414
    One-Electron Energy =               -1662.7582132796612768
    Two-Electron Energy =                 628.9712790769712001
    Total Energy =                       -632.9636818789809922
  Basis Set: (AUG-CC-PVTZ AUX)
    Blend: AUG-CC-PVTZ-RI
    Molecular point group: c1

    Geometry (in Angstrom), charge = 0, multiplicity = 1:

       Center              X                  Y                   Z               Mass
    ------------   -----------------  -----------------  -----------------  -----------------
         S            0.012660692954    -0.866180316751    -0.002254255489    31.972071174400
         C            1.300994692954     0.409976583249    -0.216152355489    12.000000000000
         C           -1.400228307046     0.266510683249     0.232660744511    12.000000000000
         C            1.637491692954     1.200409683249     0.948245744511    12.000000000000
         C            2.652789692954    -0.610678316751    -0.475254255489    12.000000000000
         C           -1.612328307046     1.200276683249    -0.952526255489    12.000000000000
         C           -2.627347307046    -0.610694316751     0.471421744511    12.000000000000
         H            1.243369692954     0.857204683249    -1.141085255489     1.007825032230
         H           -1.217711307046     0.857241683249     1.136808744511     1.007825032230
         H            2.521178692954     1.824976683249     0.775946744511     1.007825032230
         H            0.785891692954     1.867289683249     1.106231744511     1.007825032230
         H            1.794266692954     0.621100683249     1.862838744511     1.007825032230
         H            3.527681692954     0.019684683249    -0.663174255489     1.007825032230
         H            2.510817692954    -1.268598316751    -1.336750255489     1.007825032230
         H            2.859205692954    -1.230446316751     0.402416744511     1.007825032230
         H           -2.495858307046     1.825026683249    -0.780108255489     1.007825032230
         H           -0.760655307046     1.866986683249    -1.110867255489     1.007825032230
         H           -1.769457307046     0.620854683249    -1.866995255489     1.007825032230
         H           -3.502277307046     0.019629683249     0.659282744511     1.007825032230
         H           -2.485229307046    -1.268391316751     1.333065744511     1.007825032230
         H           -2.833865307046    -1.230706316751    -0.406059255489     1.007825032230

  Basis Set: AUG-CC-PVTZ
    Blend: AUG-CC-PVTZ
  Basis Set: (AUG-CC-PVTZ AUX)
    Blend: AUG-CC-PVTZ-JKFIT
	 Reference Energy          =    -632.9636818789809922 [Eh]
	 Singles Energy            =      -0.0000000000000000 [Eh]
	 Same-Spin Energy          =      -0.3147567514109956 [Eh]
	 Opposite-Spin Energy      =      -1.1159495686472352 [Eh]
	 Correlation Energy        =      -1.4307063200582308 [Eh]
	 Total Energy              =    -634.3943881990392129 [Eh]

	 ================> DF-SCS-MP2 Energies <==================
	-----------------------------------------------------------
	 SCS Same-Spin Scale       =       0.3333333333333333 [-]
	 SCS Opposite-Spin Scale   =       1.2000000000000000 [-]
	 SCS Same-Spin Energy      =      -0.1049189171369985 [Eh]
	 SCS Opposite-Spin Energy  =      -1.3391394823766822 [Eh]
	 SCS Correlation Energy    =      -1.4440583995136809 [Eh]
	 SCS Total Energy          =    -634.4077402784946571 [Eh]
	-----------------------------------------------------------

  Dipole Moment: [D]
     X:    -0.0262      Y:     1.6219      Z:     0.0465     Total:     1.6227

*** Psi4 exiting successfully. Buy a developer a beer!
