                               Psi4 1.4a3.dev225

  ==> Input File <==

--------------------------------------------------------------------------
#psi4
#
memory 32 gb

molecule  {
0 1
  S        0.0000000     0.8934800     0.0000010
  C        1.4281649    -0.2514448     0.2375409
  C       -1.4126870    -0.2390370    -0.2349660
  C        1.6243400    -1.1737610    -0.9495180
  C        2.6399800     0.6383040     0.4725320
  C       -1.6243430    -1.1737600     0.9495180
  C       -2.6399780     0.6383050    -0.4725340
  H        1.2307780    -0.8291720     1.1396710
  H       -1.2307770    -0.8291720    -1.1396700
  H        2.5077560    -1.7986080    -0.7768330
  H        0.7723960    -1.8403460    -1.1069830
  H        1.7813000    -0.5951530    -1.8645360
  H        3.5151450     0.0081170     0.6598150
  H        2.4983750     1.2961310     1.3341460
  H        2.8456130     1.2581530    -0.4052600
  H       -2.5077620    -1.7986020     0.7768320
  H       -0.7724030    -1.8403500     1.1069830
  H       -1.7813010    -0.5951510     1.8645370
  H       -3.5151410     0.0081160    -0.6598250
  H       -2.4983700     1.2961360    -1.3341440
  H       -2.8456170     1.2581490     0.4052600
units angstrom
no_reorient  #important for SAPT in psi4, default
symmetry c1  #important for SAPT in psi4, default
}

set PROPERTIES_ORIGIN ["COM"]
properties('MP2/aug-cc-pvtz', properties = ['dipole'])
--------------------------------------------------------------------------

    Molecular point group: c1
  Charge       = 0
  Multiplicity = 1
  Basis Set: AUG-CC-PVTZ
    Blend: AUG-CC-PVTZ
  Basis Set: (AUG-CC-PVTZ AUX)
    Blend: AUG-CC-PVTZ-JKFIT

    Orbital Energies [Eh]
    ---------------------

    Doubly Occupied:

       1A    -91.930583     2A    -11.258153     3A    -11.257247
       4A    -11.219907     5A    -11.219520     6A    -11.219299
       7A    -11.218883     8A     -8.931455     9A     -6.612634
      10A     -6.611673    11A     -6.610818    12A     -1.107325
      13A     -1.065591    14A     -0.939400    15A     -0.935291
      16A     -0.918386    17A     -0.800610    18A     -0.746259
      19A     -0.644044    20A     -0.628591    21A     -0.603876
      22A     -0.581638    23A     -0.562175    24A     -0.556733
      25A     -0.541874    26A     -0.540795    27A     -0.498579
      28A     -0.496463    29A     -0.493433    30A     -0.484217
      31A     -0.435918    32A     -0.407694    33A     -0.330923

  @DF-RHF Final Energy:  -632.99329140404529

   => Energetics <=

    Nuclear Repulsion Energy =            400.3823896375938034
    One-Electron Energy =               -1661.9313839816577456
    Two-Electron Energy =                 628.5557029400185911
    Total Energy =                       -632.9932914040452943
  Basis Set: (AUG-CC-PVTZ AUX)
    Blend: AUG-CC-PVTZ-RI
    Molecular point group: c1

    Geometry (in Angstrom), charge = 0, multiplicity = 1:

       Center              X                  Y                   Z               Mass
    ------------   -----------------  -----------------  -----------------  -----------------
         S           -0.001572765811     0.852925088775    -0.000260681004    31.972071174400
         C            1.426592134189    -0.291999711225     0.237279218996    12.000000000000
         C           -1.414259765811    -0.279591911225    -0.235227681004    12.000000000000
         C            1.622767234189    -1.214315911225    -0.949779681004    12.000000000000
         C            2.638407234189     0.597749088775     0.472270318996    12.000000000000
         C           -1.625915765811    -1.214314911225     0.949256318996    12.000000000000
         C           -2.641550765811     0.597750088775    -0.472795681004    12.000000000000
         H            1.229205234189    -0.869726911225     1.139409318996     1.007825032230
         H           -1.232349765811    -0.869726911225    -1.139931681004     1.007825032230
         H            2.506183234189    -1.839162911225    -0.777094681004     1.007825032230
         H            0.770823234189    -1.880900911225    -1.107244681004     1.007825032230
         H            1.779727234189    -0.635707911225    -1.864797681004     1.007825032230
         H            3.513572234189    -0.032437911225     0.659553318996     1.007825032230
         H            2.496802234189     1.255576088775     1.333884318996     1.007825032230
         H            2.844040234189     1.217598088775    -0.405521681004     1.007825032230
         H           -2.509334765811    -1.839156911225     0.776570318996     1.007825032230
         H           -0.773975765811    -1.880904911225     1.106721318996     1.007825032230
         H           -1.782873765811    -0.635705911225     1.864275318996     1.007825032230
         H           -3.516713765811    -0.032438911225    -0.660086681004     1.007825032230
         H           -2.499942765811     1.255581088775    -1.334405681004     1.007825032230
         H           -2.847189765811     1.217594088775     0.404998318996     1.007825032230

  Basis Set: AUG-CC-PVTZ
    Blend: AUG-CC-PVTZ
  Basis Set: (AUG-CC-PVTZ AUX)
    Blend: AUG-CC-PVTZ-JKFIT
	 Reference Energy          =    -632.9932914040452943 [Eh]
	 Singles Energy            =      -0.0000000000000000 [Eh]
	 Same-Spin Energy          =      -0.3135170212890980 [Eh]
	 Opposite-Spin Energy      =      -1.1129239774901392 [Eh]
	 Correlation Energy        =      -1.4264409987792370 [Eh]
	 Total Energy              =    -634.4197324028244793 [Eh]

	 ================> DF-SCS-MP2 Energies <==================
	-----------------------------------------------------------
	 SCS Same-Spin Scale       =       0.3333333333333333 [-]
	 SCS Opposite-Spin Scale   =       1.2000000000000000 [-]
	 SCS Same-Spin Energy      =      -0.1045056737630327 [Eh]
	 SCS Opposite-Spin Energy  =      -1.3355087729881669 [Eh]
	 SCS Correlation Energy    =      -1.4400144467511995 [Eh]
	 SCS Total Energy          =    -634.4333058507965006 [Eh]
	-----------------------------------------------------------

  Dipole Moment: [D]
     X:     0.0373      Y:    -1.6696      Z:    -0.0024     Total:     1.6700

*** Psi4 exiting successfully. Buy a developer a beer!
