                               Psi4 1.3.2 release

  ==> Input File <==

--------------------------------------------------------------------------
#psi4
#
memory 32 gb

molecule  {
0 1
  S        0.1082943    -0.7375255    -0.0226916
  C        1.4128680     0.2392510    -0.2347660
  C       -1.4128850     0.2392870     0.2347580
  C        1.6248350     1.1731860     0.9503430
  C        2.6401330    -0.6379020    -0.4731570
  C       -1.6249850     1.1730530    -0.9504290
  C       -2.6400040    -0.6379180     0.4735190
  H        1.2307130     0.8299810    -1.1389880
  H       -1.2303680     0.8300180     1.1389060
  H        2.5085220     1.7977530     0.7780440
  H        0.7732350     1.8400660     1.1083290
  H        1.7816100     0.5938770     1.8649360
  H        3.5150250    -0.0075390    -0.6610770
  H        2.4981610    -1.2958220    -1.3346530
  H        2.8465490    -1.2576700     0.4045140
  H       -2.5085150     1.7978030    -0.7780110
  H       -0.7733120     1.8397630    -1.1087700
  H       -1.7821140     0.5936310    -1.8648980
  H       -3.5149340    -0.0075940     0.6613800
  H       -2.4978860    -1.2956150     1.3351630
  H       -2.8465220    -1.2579300    -0.4039620
units angstrom
no_reorient  #important for SAPT in psi4, default
symmetry c1  #important for SAPT in psi4, default
}

set PROPERTIES_ORIGIN ["COM"]
properties('MP2/aug-cc-pvtz', properties = ['dipole'])
--------------------------------------------------------------------------

    Molecular point group: c1
  Charge       = 0
  Multiplicity = 1
  Basis Set: AUG-CC-PVTZ
    Blend: AUG-CC-PVTZ
  Basis Set: (AUG-CC-PVTZ AUX)
    Blend: AUG-CC-PVTZ-JKFIT

    Orbital Energies [Eh]
    ---------------------

    Doubly Occupied:

       1A    -91.918710     2A    -11.259018     3A    -11.244790
       4A    -11.223117     5A    -11.222250     6A    -11.219416
       7A    -11.217626     8A     -8.924584     9A     -6.606262
      10A     -6.604971    11A     -6.603930    12A     -1.132348
      13A     -1.069726    14A     -0.940356    15A     -0.937112
      16A     -0.931947    17A     -0.811733    18A     -0.738223
      19A     -0.653846    20A     -0.630317    21A     -0.607956
      22A     -0.582559    23A     -0.563391    24A     -0.558757
      25A     -0.542440    26A     -0.541803    27A     -0.501784
      28A     -0.498748    29A     -0.495988    30A     -0.486095
      31A     -0.465158    32A     -0.393528    33A     -0.319674

  @DF-RHF Final Energy:  -632.97245156043482

   => Energetics <=

    Nuclear Repulsion Energy =            406.2639749742606909
    One-Electron Energy =               -1673.5765255113567491
    Two-Electron Energy =                 634.3400989766612383
    Total Energy =                       -632.9724515604348198
  Basis Set: (AUG-CC-PVTZ AUX)
    Blend: AUG-CC-PVTZ-RI
    Molecular point group: c1

    Geometry (in Angstrom), charge = 0, multiplicity = 1:

       Center              X                  Y                   Z               Mass
    ------------   -----------------  -----------------  -----------------  -----------------
         S            0.078974730172    -0.737924537812    -0.016582594246    31.972071174400
         C            1.383548430172     0.238851962188    -0.228656994246    12.000000000000
         C           -1.442204569828     0.238887962188     0.240867005754    12.000000000000
         C            1.595515430172     1.172786962188     0.956452005754    12.000000000000
         C            2.610813430172    -0.638301037812    -0.467047994246    12.000000000000
         C           -1.654304569828     1.172653962188    -0.944319994246    12.000000000000
         C           -2.669323569828    -0.638317037812     0.479628005754    12.000000000000
         H            1.201393430172     0.829581962188    -1.132878994246     1.007825032230
         H           -1.259687569828     0.829618962188     1.145015005754     1.007825032230
         H            2.479202430172     1.797353962188     0.784153005754     1.007825032230
         H            0.743915430172     1.839666962188     1.114438005754     1.007825032230
         H            1.752290430172     0.593477962188     1.871045005754     1.007825032230
         H            3.485705430172    -0.007938037812    -0.654967994246     1.007825032230
         H            2.468841430172    -1.296221037812    -1.328543994246     1.007825032230
         H            2.817229430172    -1.258069037812     0.410623005754     1.007825032230
         H           -2.537834569828     1.797403962188    -0.771901994246     1.007825032230
         H           -0.802631569828     1.839363962188    -1.102660994246     1.007825032230
         H           -1.811433569828     0.593231962188    -1.858788994246     1.007825032230
         H           -3.544253569828    -0.007993037812     0.667489005754     1.007825032230
         H           -2.527205569828    -1.296014037812     1.341272005754     1.007825032230
         H           -2.875841569828    -1.258329037812    -0.397852994246     1.007825032230

  Basis Set: AUG-CC-PVTZ
    Blend: AUG-CC-PVTZ
  Basis Set: (AUG-CC-PVTZ AUX)
    Blend: AUG-CC-PVTZ-JKFIT
	 Reference Energy          =    -632.9724515604348198 [Eh]
	 Singles Energy            =      -0.0000000000000000 [Eh]
	 Same-Spin Energy          =      -0.3154872389062063 [Eh]
	 Opposite-Spin Energy      =      -1.1134776187365105 [Eh]
	 Correlation Energy        =      -1.4289648576427167 [Eh]
	 Total Energy              =    -634.4014164180775879 [Eh]

	 ================> DF-SCS-MP2 Energies <==================
	-----------------------------------------------------------
	 SCS Same-Spin Scale       =       0.3333333333333333 [-]
	 SCS Opposite-Spin Scale   =       1.2000000000000000 [-]
	 SCS Same-Spin Energy      =      -0.1051624129687354 [Eh]
	 SCS Opposite-Spin Energy  =      -1.3361731424838126 [Eh]
	 SCS Correlation Energy    =      -1.4413355554525480 [Eh]
	 SCS Total Energy          =    -634.4137871158873168 [Eh]
	-----------------------------------------------------------

  Dipole Moment: [D]
     X:    -0.0895      Y:     1.5991      Z:     0.0016     Total:     1.6016

*** Psi4 exiting successfully. Buy a developer a beer!
