                               Psi4 1.3.2 release

  ==> Input File <==

--------------------------------------------------------------------------
#psi4
#
memory 32 gb

molecule  {
0 1
  S        0.0134696    -0.8816295     0.0262198
  C        1.4128680     0.2392510    -0.2347660
  C       -1.4128850     0.2392870     0.2347580
  C        1.6248350     1.1731860     0.9503430
  C        2.6401330    -0.6379020    -0.4731570
  C       -1.6249850     1.1730530    -0.9504290
  C       -2.6400040    -0.6379180     0.4735190
  H        1.2307130     0.8299810    -1.1389880
  H       -1.2303680     0.8300180     1.1389060
  H        2.5085220     1.7977530     0.7780440
  H        0.7732350     1.8400660     1.1083290
  H        1.7816100     0.5938770     1.8649360
  H        3.5150250    -0.0075390    -0.6610770
  H        2.4981610    -1.2958220    -1.3346530
  H        2.8465490    -1.2576700     0.4045140
  H       -2.5085150     1.7978030    -0.7780110
  H       -0.7733120     1.8397630    -1.1087700
  H       -1.7821140     0.5936310    -1.8648980
  H       -3.5149340    -0.0075940     0.6613800
  H       -2.4978860    -1.2956150     1.3351630
  H       -2.8465220    -1.2579300    -0.4039620
units angstrom
no_reorient  #important for SAPT in psi4, default
symmetry c1  #important for SAPT in psi4, default
}

set PROPERTIES_ORIGIN ["COM"]
properties('MP2/aug-cc-pvtz', properties = ['dipole'])
--------------------------------------------------------------------------

    Molecular point group: c1
  Charge       = 0
  Multiplicity = 1
  Basis Set: AUG-CC-PVTZ
    Blend: AUG-CC-PVTZ
  Basis Set: (AUG-CC-PVTZ AUX)
    Blend: AUG-CC-PVTZ-JKFIT

    Orbital Energies [Eh]
    ---------------------

    Doubly Occupied:

       1A    -91.930580     2A    -11.257805     3A    -11.256738
       4A    -11.220104     5A    -11.219573     6A    -11.219408
       7A    -11.219082     8A     -8.931921     9A     -6.613154
      10A     -6.612180    11A     -6.611302    12A     -1.109301
      13A     -1.065083    14A     -0.938662    15A     -0.934949
      16A     -0.921286    17A     -0.801598    18A     -0.744956
      19A     -0.645093    20A     -0.627802    21A     -0.603726
      22A     -0.581504    23A     -0.562208    24A     -0.556624
      25A     -0.541515    26A     -0.540912    27A     -0.497736
      28A     -0.494305    29A     -0.494086    30A     -0.483645
      31A     -0.440735    32A     -0.409199    33A     -0.330485

  @DF-RHF Final Energy:  -632.99338042600004

   => Energetics <=

    Nuclear Repulsion Energy =            401.0047119671692144
    One-Electron Energy =               -1663.1616749494532996
    Two-Electron Energy =                 629.1635825562840409
    Total Energy =                       -632.9933804260000443
  Basis Set: (AUG-CC-PVTZ AUX)
    Blend: AUG-CC-PVTZ-RI
    Molecular point group: c1

    Geometry (in Angstrom), charge = 0, multiplicity = 1:

       Center              X                  Y                   Z               Mass
    ------------   -----------------  -----------------  -----------------  -----------------
         S            0.009824999873    -0.843010583272     0.019085434428    31.972071174400
         C            1.409223399873     0.277869916728    -0.241900365572    12.000000000000
         C           -1.416529600127     0.277905916728     0.227623634428    12.000000000000
         C            1.621190399873     1.211804916728     0.943208634428    12.000000000000
         C            2.636488399873    -0.599283083272    -0.480291365572    12.000000000000
         C           -1.628629600127     1.211671916728    -0.957563365572    12.000000000000
         C           -2.643648600127    -0.599299083272     0.466384634428    12.000000000000
         H            1.227068399873     0.868599916728    -1.146122365572     1.007825032230
         H           -1.234012600127     0.868636916728     1.131771634428     1.007825032230
         H            2.504877399873     1.836371916728     0.770909634428     1.007825032230
         H            0.769590399873     1.878684916728     1.101194634428     1.007825032230
         H            1.777965399873     0.632495916728     1.857801634428     1.007825032230
         H            3.511380399873     0.031079916728    -0.668211365572     1.007825032230
         H            2.494516399873    -1.257203083272    -1.341787365572     1.007825032230
         H            2.842904399873    -1.219051083272     0.397379634428     1.007825032230
         H           -2.512159600127     1.836421916728    -0.785145365572     1.007825032230
         H           -0.776956600127     1.878381916728    -1.115904365572     1.007825032230
         H           -1.785758600127     0.632249916728    -1.872032365572     1.007825032230
         H           -3.518578600127     0.031024916728     0.654245634428     1.007825032230
         H           -2.501530600127    -1.256996083272     1.328028634428     1.007825032230
         H           -2.850166600127    -1.219311083272    -0.411096365572     1.007825032230

  Basis Set: AUG-CC-PVTZ
    Blend: AUG-CC-PVTZ
  Basis Set: (AUG-CC-PVTZ AUX)
    Blend: AUG-CC-PVTZ-JKFIT
	 Reference Energy          =    -632.9933804260000443 [Eh]
	 Singles Energy            =      -0.0000000000000000 [Eh]
	 Same-Spin Energy          =      -0.3136168429172123 [Eh]
	 Opposite-Spin Energy      =      -1.1128581611814807 [Eh]
	 Correlation Energy        =      -1.4264750040986931 [Eh]
	 Total Energy              =    -634.4198554300987780 [Eh]

	 ================> DF-SCS-MP2 Energies <==================
	-----------------------------------------------------------
	 SCS Same-Spin Scale       =       0.3333333333333333 [-]
	 SCS Opposite-Spin Scale   =       1.2000000000000000 [-]
	 SCS Same-Spin Energy      =      -0.1045389476390708 [Eh]
	 SCS Opposite-Spin Energy  =      -1.3354297934177768 [Eh]
	 SCS Correlation Energy    =      -1.4399687410568476 [Eh]
	 SCS Total Energy          =    -634.4333491670569174 [Eh]
	-----------------------------------------------------------

  Dipole Moment: [D]
     X:    -0.0201      Y:     1.6474      Z:    -0.0313     Total:     1.6478

*** Psi4 exiting successfully. Buy a developer a beer!
