                               Psi4 1.3.2 release

  ==> Input File <==

--------------------------------------------------------------------------
#psi4
#
memory 32 gb

molecule  {
0 1
  S       -0.0808698    -0.9905286     0.0163124
  C        1.4128680     0.2392510    -0.2347660
  C       -1.4128850     0.2392870     0.2347580
  C        1.6248350     1.1731860     0.9503430
  C        2.6401330    -0.6379020    -0.4731570
  C       -1.6249850     1.1730530    -0.9504290
  C       -2.6400040    -0.6379180     0.4735190
  H        1.2307130     0.8299810    -1.1389880
  H       -1.2303680     0.8300180     1.1389060
  H        2.5085220     1.7977530     0.7780440
  H        0.7732350     1.8400660     1.1083290
  H        1.7816100     0.5938770     1.8649360
  H        3.5150250    -0.0075390    -0.6610770
  H        2.4981610    -1.2958220    -1.3346530
  H        2.8465490    -1.2576700     0.4045140
  H       -2.5085150     1.7978030    -0.7780110
  H       -0.7733120     1.8397630    -1.1087700
  H       -1.7821140     0.5936310    -1.8648980
  H       -3.5149340    -0.0075940     0.6613800
  H       -2.4978860    -1.2956150     1.3351630
  H       -2.8465220    -1.2579300    -0.4039620
units angstrom
no_reorient  #important for SAPT in psi4, default
symmetry c1  #important for SAPT in psi4, default
}

set PROPERTIES_ORIGIN ["COM"]
properties('MP2/aug-cc-pvtz', properties = ['dipole'])
--------------------------------------------------------------------------

    Molecular point group: c1
  Charge       = 0
  Multiplicity = 1
  Basis Set: AUG-CC-PVTZ
    Blend: AUG-CC-PVTZ
  Basis Set: (AUG-CC-PVTZ AUX)
    Blend: AUG-CC-PVTZ-JKFIT

    Orbital Energies [Eh]
    ---------------------

    Doubly Occupied:

       1A    -91.936477     2A    -11.266550     3A    -11.256703
       4A    -11.221903     5A    -11.219817     6A    -11.218776
       7A    -11.216625     8A     -8.935697     9A     -6.616755
      10A     -6.615703    11A     -6.614927    12A     -1.099731
      13A     -1.061903    14A     -0.938933    15A     -0.934826
      16A     -0.911170    17A     -0.794922    18A     -0.749917
      19A     -0.639298    20A     -0.626781    21A     -0.601235
      22A     -0.582267    23A     -0.561491    24A     -0.555950
      25A     -0.541170    26A     -0.540412    27A     -0.496931
      28A     -0.492726    29A     -0.491863    30A     -0.482363
      31A     -0.428665    32A     -0.406107    33A     -0.335121

  @DF-RHF Final Energy:  -632.98570965658485

   => Energetics <=

    Nuclear Repulsion Energy =            397.2663819965883363
    One-Electron Energy =               -1655.7167550221654437
    Two-Electron Energy =                 625.4646633689923192
    Total Energy =                       -632.9857096565848451
  Basis Set: (AUG-CC-PVTZ AUX)
    Blend: AUG-CC-PVTZ-RI
    Molecular point group: c1

    Geometry (in Angstrom), charge = 0, multiplicity = 1:

       Center              X                  Y                   Z               Mass
    ------------   -----------------  -----------------  -----------------  -----------------
         S           -0.058970831451    -0.922423894306     0.011860586493    31.972071174400
         C            1.434766968549     0.307355705694    -0.239217813507    12.000000000000
         C           -1.390986031451     0.307391705694     0.230306186493    12.000000000000
         C            1.646733968549     1.241290705694     0.945891186493    12.000000000000
         C            2.662031968549    -0.569797294306    -0.477608813507    12.000000000000
         C           -1.603086031451     1.241157705694    -0.954880813507    12.000000000000
         C           -2.618105031451    -0.569813294306     0.469067186493    12.000000000000
         H            1.252611968549     0.898085705694    -1.143439813507     1.007825032230
         H           -1.208469031451     0.898122705694     1.134454186493     1.007825032230
         H            2.530420968549     1.865857705694     0.773592186493     1.007825032230
         H            0.795133968549     1.908170705694     1.103877186493     1.007825032230
         H            1.803508968549     0.661981705694     1.860484186493     1.007825032230
         H            3.536923968549     0.060565705694    -0.665528813507     1.007825032230
         H            2.520059968549    -1.227717294306    -1.339104813507     1.007825032230
         H            2.868447968549    -1.189565294306     0.400062186493     1.007825032230
         H           -2.486616031451     1.865907705694    -0.782462813507     1.007825032230
         H           -0.751413031451     1.907867705694    -1.113221813507     1.007825032230
         H           -1.760215031451     0.661735705694    -1.869349813507     1.007825032230
         H           -3.493035031451     0.060510705694     0.656928186493     1.007825032230
         H           -2.475987031451    -1.227510294306     1.330711186493     1.007825032230
         H           -2.824623031451    -1.189825294306    -0.408413813507     1.007825032230

  Basis Set: AUG-CC-PVTZ
    Blend: AUG-CC-PVTZ
  Basis Set: (AUG-CC-PVTZ AUX)
    Blend: AUG-CC-PVTZ-JKFIT
	 Reference Energy          =    -632.9857096565848451 [Eh]
	 Singles Energy            =      -0.0000000000000000 [Eh]
	 Same-Spin Energy          =      -0.3131226808140541 [Eh]
	 Opposite-Spin Energy      =      -1.1140368231552387 [Eh]
	 Correlation Energy        =      -1.4271595039692928 [Eh]
	 Total Energy              =    -634.4128691605541235 [Eh]

	 ================> DF-SCS-MP2 Energies <==================
	-----------------------------------------------------------
	 SCS Same-Spin Scale       =       0.3333333333333333 [-]
	 SCS Opposite-Spin Scale   =       1.2000000000000000 [-]
	 SCS Same-Spin Energy      =      -0.1043742269380180 [Eh]
	 SCS Opposite-Spin Energy  =      -1.3368441877862864 [Eh]
	 SCS Correlation Energy    =      -1.4412184147243046 [Eh]
	 SCS Total Energy          =    -634.4269280713091348 [Eh]
	-----------------------------------------------------------

  Dipole Moment: [D]
     X:     0.1042      Y:     1.7057      Z:     0.0004     Total:     1.7089

*** Psi4 exiting successfully. Buy a developer a beer!
