                               Psi4 1.3.2 release

  ==> Input File <==

--------------------------------------------------------------------------
#psi4
#
memory 32 gb

molecule  {
0 1
  S        0.0739944    -0.7907610    -0.0154819
  C        1.4128680     0.2392510    -0.2347660
  C       -1.4128850     0.2392870     0.2347580
  C        1.6248350     1.1731860     0.9503430
  C        2.6401330    -0.6379020    -0.4731570
  C       -1.6249850     1.1730530    -0.9504290
  C       -2.6400040    -0.6379180     0.4735190
  H        1.2307130     0.8299810    -1.1389880
  H       -1.2303680     0.8300180     1.1389060
  H        2.5085220     1.7977530     0.7780440
  H        0.7732350     1.8400660     1.1083290
  H        1.7816100     0.5938770     1.8649360
  H        3.5150250    -0.0075390    -0.6610770
  H        2.4981610    -1.2958220    -1.3346530
  H        2.8465490    -1.2576700     0.4045140
  H       -2.5085150     1.7978030    -0.7780110
  H       -0.7733120     1.8397630    -1.1087700
  H       -1.7821140     0.5936310    -1.8648980
  H       -3.5149340    -0.0075940     0.6613800
  H       -2.4978860    -1.2956150     1.3351630
  H       -2.8465220    -1.2579300    -0.4039620
units angstrom
no_reorient  #important for SAPT in psi4, default
symmetry c1  #important for SAPT in psi4, default
}

set PROPERTIES_ORIGIN ["COM"]
properties('MP2/aug-cc-pvtz', properties = ['dipole'])
--------------------------------------------------------------------------

    Molecular point group: c1
  Charge       = 0
  Multiplicity = 1
  Basis Set: AUG-CC-PVTZ
    Blend: AUG-CC-PVTZ
  Basis Set: (AUG-CC-PVTZ AUX)
    Blend: AUG-CC-PVTZ-JKFIT

    Orbital Energies [Eh]
    ---------------------

    Doubly Occupied:

       1A    -91.923581     2A    -11.258595     3A    -11.249006
       4A    -11.221863     5A    -11.220948     6A    -11.219529
       7A    -11.218139     8A     -8.927525     9A     -6.608992
      10A     -6.607915    11A     -6.606925    12A     -1.122299
      13A     -1.068107    14A     -0.939304    15A     -0.935907
      16A     -0.928718    17A     -0.807977    18A     -0.740650
      19A     -0.650495    20A     -0.629267    21A     -0.606269
      22A     -0.581726    23A     -0.563030    24A     -0.557838
      25A     -0.542111    26A     -0.541391    27A     -0.499685
      28A     -0.496882    29A     -0.495508    30A     -0.485161
      31A     -0.456588    32A     -0.400428    33A     -0.324324

  @DF-RHF Final Energy:  -632.98512895427427

   => Energetics <=

    Nuclear Repulsion Energy =            404.2891532411151729
    One-Electron Energy =               -1669.6751990201255467
    Two-Electron Energy =                 632.4009168247361004
    Total Energy =                       -632.9851289542742734
  Basis Set: (AUG-CC-PVTZ AUX)
    Blend: AUG-CC-PVTZ-RI
    Molecular point group: c1

    Geometry (in Angstrom), charge = 0, multiplicity = 1:

       Center              X                  Y                   Z               Mass
    ------------   -----------------  -----------------  -----------------  -----------------
         S            0.053961955712    -0.776745862502    -0.011325010404    31.972071174400
         C            1.392835555712     0.253266137498    -0.230609110404    12.000000000000
         C           -1.432917444288     0.253302137498     0.238914889596    12.000000000000
         C            1.604802555712     1.187201137498     0.954499889596    12.000000000000
         C            2.620100555712    -0.623886862502    -0.469000110404    12.000000000000
         C           -1.645017444288     1.187068137498    -0.946272110404    12.000000000000
         C           -2.660036444288    -0.623902862502     0.477675889596    12.000000000000
         H            1.210680555712     0.843996137498    -1.134831110404     1.007825032230
         H           -1.250400444288     0.844033137498     1.143062889596     1.007825032230
         H            2.488489555712     1.811768137498     0.782200889596     1.007825032230
         H            0.753202555712     1.854081137498     1.112485889596     1.007825032230
         H            1.761577555712     0.607892137498     1.869092889596     1.007825032230
         H            3.494992555712     0.006476137498    -0.656920110404     1.007825032230
         H            2.478128555712    -1.281806862502    -1.330496110404     1.007825032230
         H            2.826516555712    -1.243654862502     0.408670889596     1.007825032230
         H           -2.528547444288     1.811818137498    -0.773854110404     1.007825032230
         H           -0.793344444288     1.853778137498    -1.104613110404     1.007825032230
         H           -1.802146444288     0.607646137498    -1.860741110404     1.007825032230
         H           -3.534966444288     0.006421137498     0.665536889596     1.007825032230
         H           -2.517918444288    -1.281599862502     1.339319889596     1.007825032230
         H           -2.866554444288    -1.243914862502    -0.399805110404     1.007825032230

  Basis Set: AUG-CC-PVTZ
    Blend: AUG-CC-PVTZ
  Basis Set: (AUG-CC-PVTZ AUX)
    Blend: AUG-CC-PVTZ-JKFIT
	 Reference Energy          =    -632.9851289542742734 [Eh]
	 Singles Energy            =      -0.0000000000000000 [Eh]
	 Same-Spin Energy          =      -0.3146326302678303 [Eh]
	 Opposite-Spin Energy      =      -1.1129535024952300 [Eh]
	 Correlation Energy        =      -1.4275861327630603 [Eh]
	 Total Energy              =    -634.4127150870373271 [Eh]

	 ================> DF-SCS-MP2 Energies <==================
	-----------------------------------------------------------
	 SCS Same-Spin Scale       =       0.3333333333333333 [-]
	 SCS Opposite-Spin Scale   =       1.2000000000000000 [-]
	 SCS Same-Spin Energy      =      -0.1048775434226101 [Eh]
	 SCS Opposite-Spin Energy  =      -1.3355442029942759 [Eh]
	 SCS Correlation Energy    =      -1.4404217464168860 [Eh]
	 SCS Total Energy          =    -634.4255507006911330 [Eh]
	-----------------------------------------------------------

  Dipole Moment: [D]
     X:    -0.0690      Y:     1.6138      Z:     0.0004     Total:     1.6153

*** Psi4 exiting successfully. Buy a developer a beer!
