                               Psi4 1.3.2 release

  ==> Input File <==

--------------------------------------------------------------------------
#psi4
#
memory 32 gb

molecule  {
0 1
  S       -0.1237662    -1.0368725     0.0249514
  C        1.4128680     0.2392510    -0.2347660
  C       -1.4128850     0.2392870     0.2347580
  C        1.6248350     1.1731860     0.9503430
  C        2.6401330    -0.6379020    -0.4731570
  C       -1.6249850     1.1730530    -0.9504290
  C       -2.6400040    -0.6379180     0.4735190
  H        1.2307130     0.8299810    -1.1389880
  H       -1.2303680     0.8300180     1.1389060
  H        2.5085220     1.7977530     0.7780440
  H        0.7732350     1.8400660     1.1083290
  H        1.7816100     0.5938770     1.8649360
  H        3.5150250    -0.0075390    -0.6610770
  H        2.4981610    -1.2958220    -1.3346530
  H        2.8465490    -1.2576700     0.4045140
  H       -2.5085150     1.7978030    -0.7780110
  H       -0.7733120     1.8397630    -1.1087700
  H       -1.7821140     0.5936310    -1.8648980
  H       -3.5149340    -0.0075940     0.6613800
  H       -2.4978860    -1.2956150     1.3351630
  H       -2.8465220    -1.2579300    -0.4039620
units angstrom
no_reorient  #important for SAPT in psi4, default
symmetry c1  #important for SAPT in psi4, default
}

set PROPERTIES_ORIGIN ["COM"]
properties('MP2/aug-cc-pvtz', properties = ['dipole'])
--------------------------------------------------------------------------

    Molecular point group: c1
  Charge       = 0
  Multiplicity = 1
  Basis Set: AUG-CC-PVTZ
    Blend: AUG-CC-PVTZ
  Basis Set: (AUG-CC-PVTZ AUX)
    Blend: AUG-CC-PVTZ-JKFIT

    Orbital Energies [Eh]
    ---------------------

    Doubly Occupied:

       1A    -91.938145     2A    -11.270938     3A    -11.256108
       4A    -11.223192     5A    -11.219846     6A    -11.218917
       7A    -11.215305     8A     -8.936734     9A     -6.617730
      10A     -6.616626    11A     -6.615871    12A     -1.097127
      13A     -1.061008    14A     -0.939315    15A     -0.935087
      16A     -0.906534    17A     -0.792653    18A     -0.751908
      19A     -0.637064    20A     -0.626663    21A     -0.600314
      22A     -0.582698    23A     -0.561401    24A     -0.555938
      25A     -0.541352    26A     -0.540089    27A     -0.496836
      28A     -0.492514    29A     -0.491009    30A     -0.482068
      31A     -0.428595    32A     -0.397519    33A     -0.336208

  @DF-RHF Final Energy:  -632.97764994387205

   => Energetics <=

    Nuclear Repulsion Energy =            395.7352548073262142
    One-Electron Energy =               -1652.6591841617016598
    Two-Electron Energy =                 623.9462794105035073
    Total Energy =                       -632.9776499438720521
  Basis Set: (AUG-CC-PVTZ AUX)
    Blend: AUG-CC-PVTZ-RI
    Molecular point group: c1

    Geometry (in Angstrom), charge = 0, multiplicity = 1:

       Center              X                  Y                   Z               Mass
    ------------   -----------------  -----------------  -----------------  -----------------
         S           -0.090252496363    -0.956219605614     0.018160469541    31.972071174400
         C            1.446381703637     0.319903894386    -0.241556930459    12.000000000000
         C           -1.379371296363     0.319939894386     0.227967069541    12.000000000000
         C            1.658348703637     1.253838894386     0.943552069541    12.000000000000
         C            2.673646703637    -0.557249105614    -0.479947930459    12.000000000000
         C           -1.591471296363     1.253705894386    -0.957219930459    12.000000000000
         C           -2.606490296363    -0.557265105614     0.466728069541    12.000000000000
         H            1.264226703637     0.910633894386    -1.145778930459     1.007825032230
         H           -1.196854296363     0.910670894386     1.132115069541     1.007825032230
         H            2.542035703637     1.878405894386     0.771253069541     1.007825032230
         H            0.806748703637     1.920718894386     1.101538069541     1.007825032230
         H            1.815123703637     0.674529894386     1.858145069541     1.007825032230
         H            3.548538703637     0.073113894386    -0.667867930459     1.007825032230
         H            2.531674703637    -1.215169105614    -1.341443930459     1.007825032230
         H            2.880062703637    -1.177017105614     0.397723069541     1.007825032230
         H           -2.475001296363     1.878455894386    -0.784801930459     1.007825032230
         H           -0.739798296363     1.920415894386    -1.115560930459     1.007825032230
         H           -1.748600296363     0.674283894386    -1.871688930459     1.007825032230
         H           -3.481420296363     0.073058894386     0.654589069541     1.007825032230
         H           -2.464372296363    -1.214962105614     1.328372069541     1.007825032230
         H           -2.813008296363    -1.177277105614    -0.410752930459     1.007825032230

  Basis Set: AUG-CC-PVTZ
    Blend: AUG-CC-PVTZ
  Basis Set: (AUG-CC-PVTZ AUX)
    Blend: AUG-CC-PVTZ-JKFIT
	 Reference Energy          =    -632.9776499438720521 [Eh]
	 Singles Energy            =      -0.0000000000000000 [Eh]
	 Same-Spin Energy          =      -0.3131546844680027 [Eh]
	 Opposite-Spin Energy      =      -1.1149863273918410 [Eh]
	 Correlation Energy        =      -1.4281410118598437 [Eh]
	 Total Energy              =    -634.4057909557318453 [Eh]

	 ================> DF-SCS-MP2 Energies <==================
	-----------------------------------------------------------
	 SCS Same-Spin Scale       =       0.3333333333333333 [-]
	 SCS Opposite-Spin Scale   =       1.2000000000000000 [-]
	 SCS Same-Spin Energy      =      -0.1043848948226676 [Eh]
	 SCS Opposite-Spin Energy  =      -1.3379835928702091 [Eh]
	 SCS Correlation Energy    =      -1.4423684876928766 [Eh]
	 SCS Total Energy          =    -634.4200184315649267 [Eh]
	-----------------------------------------------------------

  Dipole Moment: [D]
     X:     0.1654      Y:     1.7365      Z:     0.0002     Total:     1.7443

*** Psi4 exiting successfully. Buy a developer a beer!
