                               Psi4 1.3.2 release

  ==> Input File <==

--------------------------------------------------------------------------
#psi4
#
memory 32 gb

molecule  {
0 1
  S        0.0512437    -0.8442720     0.1056992
  C        1.4128680     0.2392510    -0.2347660
  C       -1.4128850     0.2392870     0.2347580
  C        1.6248350     1.1731860     0.9503430
  C        2.6401330    -0.6379020    -0.4731570
  C       -1.6249850     1.1730530    -0.9504290
  C       -2.6400040    -0.6379180     0.4735190
  H        1.2307130     0.8299810    -1.1389880
  H       -1.2303680     0.8300180     1.1389060
  H        2.5085220     1.7977530     0.7780440
  H        0.7732350     1.8400660     1.1083290
  H        1.7816100     0.5938770     1.8649360
  H        3.5150250    -0.0075390    -0.6610770
  H        2.4981610    -1.2958220    -1.3346530
  H        2.8465490    -1.2576700     0.4045140
  H       -2.5085150     1.7978030    -0.7780110
  H       -0.7733120     1.8397630    -1.1087700
  H       -1.7821140     0.5936310    -1.8648980
  H       -3.5149340    -0.0075940     0.6613800
  H       -2.4978860    -1.2956150     1.3351630
  H       -2.8465220    -1.2579300    -0.4039620
units angstrom
no_reorient  #important for SAPT in psi4, default
symmetry c1  #important for SAPT in psi4, default
}

set PROPERTIES_ORIGIN ["COM"]
properties('MP2/aug-cc-pvtz', properties = ['dipole'])
--------------------------------------------------------------------------

    Molecular point group: c1
  Charge       = 0
  Multiplicity = 1
  Basis Set: AUG-CC-PVTZ
    Blend: AUG-CC-PVTZ
  Basis Set: (AUG-CC-PVTZ AUX)
    Blend: AUG-CC-PVTZ-JKFIT

    Orbital Energies [Eh]
    ---------------------

    Doubly Occupied:

       1A    -91.928217     2A    -11.257975     3A    -11.254012
       4A    -11.221272     5A    -11.220404     6A    -11.219885
       7A    -11.217281     8A     -8.930413     9A     -6.611710
      10A     -6.610725    11A     -6.609805    12A     -1.113496
      13A     -1.066167    14A     -0.938784    15A     -0.935321
      16A     -0.923655    17A     -0.803898    18A     -0.743719
      19A     -0.646818    20A     -0.628351    21A     -0.604298
      22A     -0.581439    23A     -0.562621    24A     -0.556947
      25A     -0.541777    26A     -0.541094    27A     -0.498113
      28A     -0.495228    29A     -0.494612    30A     -0.484320
      31A     -0.445716    32A     -0.407250    33A     -0.327707

  @DF-RHF Final Energy:  -632.99075394718204

   => Energetics <=

    Nuclear Repulsion Energy =            402.1819466662652758
    One-Electron Energy =               -1665.4993388402590426
    Two-Electron Energy =                 630.3266382268117241
    Total Energy =                       -632.9907539471820428
  Basis Set: (AUG-CC-PVTZ AUX)
    Blend: AUG-CC-PVTZ-RI
    Molecular point group: c1

    Geometry (in Angstrom), charge = 0, multiplicity = 1:

       Center              X                  Y                   Z               Mass
    ------------   -----------------  -----------------  -----------------  -----------------
         S            0.037371291369    -0.815768092132     0.077044796011    31.972071174400
         C            1.398995591369     0.267754907868    -0.263420403989    12.000000000000
         C           -1.426757408631     0.267790907868     0.206103596011    12.000000000000
         C            1.610962591369     1.201689907868     0.921688596011    12.000000000000
         C            2.626260591369    -0.609398092132    -0.501811403989    12.000000000000
         C           -1.638857408631     1.201556907868    -0.979083403989    12.000000000000
         C           -2.653876408631    -0.609414092132     0.444864596011    12.000000000000
         H            1.216840591369     0.858484907868    -1.167642403989     1.007825032230
         H           -1.244240408631     0.858521907868     1.110251596011     1.007825032230
         H            2.494649591369     1.826256907868     0.749389596011     1.007825032230
         H            0.759362591369     1.868569907868     1.079674596011     1.007825032230
         H            1.767737591369     0.622380907868     1.836281596011     1.007825032230
         H            3.501152591369     0.020964907868    -0.689731403989     1.007825032230
         H            2.484288591369    -1.267318092132    -1.363307403989     1.007825032230
         H            2.832676591369    -1.229166092132     0.375859596011     1.007825032230
         H           -2.522387408631     1.826306907868    -0.806665403989     1.007825032230
         H           -0.787184408631     1.868266907868    -1.137424403989     1.007825032230
         H           -1.795986408631     0.622134907868    -1.893552403989     1.007825032230
         H           -3.528806408631     0.020909907868     0.632725596011     1.007825032230
         H           -2.511758408631    -1.267111092132     1.306508596011     1.007825032230
         H           -2.860394408631    -1.229426092132    -0.432616403989     1.007825032230

  Basis Set: AUG-CC-PVTZ
    Blend: AUG-CC-PVTZ
  Basis Set: (AUG-CC-PVTZ AUX)
    Blend: AUG-CC-PVTZ-JKFIT
	 Reference Energy          =    -632.9907539471820428 [Eh]
	 Singles Energy            =      -0.0000000000000000 [Eh]
	 Same-Spin Energy          =      -0.3139737989230517 [Eh]
	 Opposite-Spin Energy      =      -1.1129038404709819 [Eh]
	 Correlation Energy        =      -1.4268776393940334 [Eh]
	 Total Energy              =    -634.4176315865760216 [Eh]

	 ================> DF-SCS-MP2 Energies <==================
	-----------------------------------------------------------
	 SCS Same-Spin Scale       =       0.3333333333333333 [-]
	 SCS Opposite-Spin Scale   =       1.2000000000000000 [-]
	 SCS Same-Spin Energy      =      -0.1046579329743506 [Eh]
	 SCS Opposite-Spin Energy  =      -1.3354846085651781 [Eh]
	 SCS Correlation Energy    =      -1.4401425415395286 [Eh]
	 SCS Total Energy          =    -634.4308964887216007 [Eh]
	-----------------------------------------------------------

  Dipole Moment: [D]
     X:    -0.0754      Y:     1.6312      Z:    -0.1274     Total:     1.6379

*** Psi4 exiting successfully. Buy a developer a beer!
