                               Psi4 1.3.2 release

  ==> Input File <==

--------------------------------------------------------------------------
#psi4
#
memory 32 gb

molecule  {
0 1
  S        0.0378830    -0.8427417    -0.0079673
  C        1.4128680     0.2392510    -0.2347660
  C       -1.4128850     0.2392870     0.2347580
  C        1.6248350     1.1731860     0.9503430
  C        2.6401330    -0.6379020    -0.4731570
  C       -1.6249850     1.1730530    -0.9504290
  C       -2.6400040    -0.6379180     0.4735190
  H        1.2307130     0.8299810    -1.1389880
  H       -1.2303680     0.8300180     1.1389060
  H        2.5085220     1.7977530     0.7780440
  H        0.7732350     1.8400660     1.1083290
  H        1.7816100     0.5938770     1.8649360
  H        3.5150250    -0.0075390    -0.6610770
  H        2.4981610    -1.2958220    -1.3346530
  H        2.8465490    -1.2576700     0.4045140
  H       -2.5085150     1.7978030    -0.7780110
  H       -0.7733120     1.8397630    -1.1087700
  H       -1.7821140     0.5936310    -1.8648980
  H       -3.5149340    -0.0075940     0.6613800
  H       -2.4978860    -1.2956150     1.3351630
  H       -2.8465220    -1.2579300    -0.4039620
units angstrom
no_reorient  #important for SAPT in psi4, default
symmetry c1  #important for SAPT in psi4, default
}

set PROPERTIES_ORIGIN ["COM"]
properties('MP2/aug-cc-pvtz', properties = ['dipole'])
--------------------------------------------------------------------------

    Molecular point group: c1
  Charge       = 0
  Multiplicity = 1
  Basis Set: AUG-CC-PVTZ
    Blend: AUG-CC-PVTZ
  Basis Set: (AUG-CC-PVTZ AUX)
    Blend: AUG-CC-PVTZ-JKFIT

    Orbital Energies [Eh]
    ---------------------

    Doubly Occupied:

       1A    -91.927793     2A    -11.258173     3A    -11.253331
       4A    -11.220581     5A    -11.219956     6A    -11.219628
       7A    -11.218839     8A     -8.930151     9A     -6.611469
      10A     -6.610482    11A     -6.609555    12A     -1.114254
      13A     -1.066397    14A     -0.938813    15A     -0.935244
      16A     -0.924669    17A     -0.804298    18A     -0.743088
      19A     -0.647366    20A     -0.628371    21A     -0.604778
      22A     -0.581455    23A     -0.562562    24A     -0.557083
      25A     -0.541771    26A     -0.541081    27A     -0.498365
      28A     -0.495256    29A     -0.494823    30A     -0.484262
      31A     -0.447614    32A     -0.406012    33A     -0.328135

  @DF-RHF Final Energy:  -632.99176688277169

   => Energetics <=

    Nuclear Repulsion Energy =            402.4003085002091780
    One-Electron Energy =               -1665.9328425700352909
    Two-Electron Energy =                 630.5407671870544846
    Total Energy =                       -632.9917668827716852
  Basis Set: (AUG-CC-PVTZ AUX)
    Blend: AUG-CC-PVTZ-RI
    Molecular point group: c1

    Geometry (in Angstrom), charge = 0, multiplicity = 1:

       Center              X                  Y                   Z               Mass
    ------------   -----------------  -----------------  -----------------  -----------------
         S            0.027628167462    -0.814652139935    -0.005845082038    31.972071174400
         C            1.402613167462     0.267340560065    -0.232643782038    12.000000000000
         C           -1.423139832538     0.267376560065     0.236880217962    12.000000000000
         C            1.614580167462     1.201275560065     0.952465217962    12.000000000000
         C            2.629878167462    -0.609812439935    -0.471034782038    12.000000000000
         C           -1.635239832538     1.201142560065    -0.948306782038    12.000000000000
         C           -2.650258832538    -0.609828439935     0.475641217962    12.000000000000
         H            1.220458167462     0.858070560065    -1.136865782038     1.007825032230
         H           -1.240622832538     0.858107560065     1.141028217962     1.007825032230
         H            2.498267167462     1.825842560065     0.780166217962     1.007825032230
         H            0.762980167462     1.868155560065     1.110451217962     1.007825032230
         H            1.771355167462     0.621966560065     1.867058217962     1.007825032230
         H            3.504770167462     0.020550560065    -0.658954782038     1.007825032230
         H            2.487906167462    -1.267732439935    -1.332530782038     1.007825032230
         H            2.836294167462    -1.229580439935     0.406636217962     1.007825032230
         H           -2.518769832538     1.825892560065    -0.775888782038     1.007825032230
         H           -0.783566832538     1.867852560065    -1.106647782038     1.007825032230
         H           -1.792368832538     0.621720560065    -1.862775782038     1.007825032230
         H           -3.525188832538     0.020495560065     0.663502217962     1.007825032230
         H           -2.508140832538    -1.267525439935     1.337285217962     1.007825032230
         H           -2.856776832538    -1.229840439935    -0.401839782038     1.007825032230

  Basis Set: AUG-CC-PVTZ
    Blend: AUG-CC-PVTZ
  Basis Set: (AUG-CC-PVTZ AUX)
    Blend: AUG-CC-PVTZ-JKFIT
	 Reference Energy          =    -632.9917668827716852 [Eh]
	 Singles Energy            =      -0.0000000000000000 [Eh]
	 Same-Spin Energy          =      -0.3139831975186176 [Eh]
	 Opposite-Spin Energy      =      -1.1127720878417540 [Eh]
	 Correlation Energy        =      -1.4267552853603716 [Eh]
	 Total Energy              =    -634.4185221681320854 [Eh]

	 ================> DF-SCS-MP2 Energies <==================
	-----------------------------------------------------------
	 SCS Same-Spin Scale       =       0.3333333333333333 [-]
	 SCS Opposite-Spin Scale   =       1.2000000000000000 [-]
	 SCS Same-Spin Energy      =      -0.1046610658395392 [Eh]
	 SCS Opposite-Spin Energy  =      -1.3353265054101047 [Eh]
	 SCS Correlation Energy    =      -1.4399875712496439 [Eh]
	 SCS Total Energy          =    -634.4317544540213021 [Eh]
	-----------------------------------------------------------

  Dipole Moment: [D]
     X:    -0.0394      Y:     1.6315      Z:     0.0001     Total:     1.6320

*** Psi4 exiting successfully. Buy a developer a beer!
