                               Psi4 1.3.2 release

  ==> Input File <==

--------------------------------------------------------------------------
#psi4
#
memory 32 gb

molecule  {
0 1
  S       -0.0896749    -0.9566876    -0.1566357
  C        1.4128680     0.2392510    -0.2347660
  C       -1.4128850     0.2392870     0.2347580
  C        1.6248350     1.1731860     0.9503430
  C        2.6401330    -0.6379020    -0.4731570
  C       -1.6249850     1.1730530    -0.9504290
  C       -2.6400040    -0.6379180     0.4735190
  H        1.2307130     0.8299810    -1.1389880
  H       -1.2303680     0.8300180     1.1389060
  H        2.5085220     1.7977530     0.7780440
  H        0.7732350     1.8400660     1.1083290
  H        1.7816100     0.5938770     1.8649360
  H        3.5150250    -0.0075390    -0.6610770
  H        2.4981610    -1.2958220    -1.3346530
  H        2.8465490    -1.2576700     0.4045140
  H       -2.5085150     1.7978030    -0.7780110
  H       -0.7733120     1.8397630    -1.1087700
  H       -1.7821140     0.5936310    -1.8648980
  H       -3.5149340    -0.0075940     0.6613800
  H       -2.4978860    -1.2956150     1.3351630
  H       -2.8465220    -1.2579300    -0.4039620
units angstrom
no_reorient  #important for SAPT in psi4, default
symmetry c1  #important for SAPT in psi4, default
}

set PROPERTIES_ORIGIN ["COM"]
properties('MP2/aug-cc-pvtz', properties = ['dipole'])
--------------------------------------------------------------------------

    Molecular point group: c1
  Charge       = 0
  Multiplicity = 1
  Basis Set: AUG-CC-PVTZ
    Blend: AUG-CC-PVTZ
  Basis Set: (AUG-CC-PVTZ AUX)
    Blend: AUG-CC-PVTZ-JKFIT

    Orbital Energies [Eh]
    ---------------------

    Doubly Occupied:

       1A    -91.935269     2A    -11.264302     3A    -11.257031
       4A    -11.223652     5A    -11.218862     6A    -11.217360
       7A    -11.217297     8A     -8.934911     9A     -6.615992
      10A     -6.614961    11A     -6.614164    12A     -1.101652
      13A     -1.062514    14A     -0.938804    15A     -0.934505
      16A     -0.913001    17A     -0.796309    18A     -0.749497
      19A     -0.640337    20A     -0.627063    21A     -0.601064
      22A     -0.582076    23A     -0.561682    24A     -0.556020
      25A     -0.541322    26A     -0.540629    27A     -0.496891
      28A     -0.493204    29A     -0.492084    30A     -0.482676
      31A     -0.428964    32A     -0.409344    33A     -0.333059

  @DF-RHF Final Energy:  -632.98596593296418

   => Energetics <=

    Nuclear Repulsion Energy =            398.0945711365456532
    One-Electron Energy =               -1657.3680747329901806
    Two-Electron Energy =                 626.2875376634802933
    Total Energy =                       -632.9859659329641772
  Basis Set: (AUG-CC-PVTZ AUX)
    Blend: AUG-CC-PVTZ-RI
    Molecular point group: c1

    Geometry (in Angstrom), charge = 0, multiplicity = 1:

       Center              X                  Y                   Z               Mass
    ------------   -----------------  -----------------  -----------------  -----------------
         S           -0.065391840853    -0.897745766951    -0.114259659294    31.972071174400
         C            1.437151059147     0.298192833049    -0.192389959294    12.000000000000
         C           -1.388601940853     0.298228833049     0.277134040706    12.000000000000
         C            1.649118059147     1.232127833049     0.992719040706    12.000000000000
         C            2.664416059147    -0.578960166951    -0.430780959294    12.000000000000
         C           -1.600701940853     1.231994833049    -0.908052959294    12.000000000000
         C           -2.615720940853    -0.578976166951     0.515895040706    12.000000000000
         H            1.254996059147     0.888922833049    -1.096611959294     1.007825032230
         H           -1.206084940853     0.888959833049     1.181282040706     1.007825032230
         H            2.532805059147     1.856694833049     0.820420040706     1.007825032230
         H            0.797518059147     1.899007833049     1.150705040706     1.007825032230
         H            1.805893059147     0.652818833049     1.907312040706     1.007825032230
         H            3.539308059147     0.051402833049    -0.618700959294     1.007825032230
         H            2.522444059147    -1.236880166951    -1.292276959294     1.007825032230
         H            2.870832059147    -1.198728166951     0.446890040706     1.007825032230
         H           -2.484231940853     1.856744833049    -0.735634959294     1.007825032230
         H           -0.749028940853     1.898704833049    -1.066393959294     1.007825032230
         H           -1.757830940853     0.652572833049    -1.822521959294     1.007825032230
         H           -3.490650940853     0.051347833049     0.703756040706     1.007825032230
         H           -2.473602940853    -1.236673166951     1.377539040706     1.007825032230
         H           -2.822238940853    -1.198988166951    -0.361585959294     1.007825032230

  Basis Set: AUG-CC-PVTZ
    Blend: AUG-CC-PVTZ
  Basis Set: (AUG-CC-PVTZ AUX)
    Blend: AUG-CC-PVTZ-JKFIT
	 Reference Energy          =    -632.9859659329641772 [Eh]
	 Singles Energy            =      -0.0000000000000000 [Eh]
	 Same-Spin Energy          =      -0.3132848666256646 [Eh]
	 Opposite-Spin Energy      =      -1.1139306786171386 [Eh]
	 Correlation Energy        =      -1.4272155452428033 [Eh]
	 Total Energy              =    -634.4131814782069796 [Eh]

	 ================> DF-SCS-MP2 Energies <==================
	-----------------------------------------------------------
	 SCS Same-Spin Scale       =       0.3333333333333333 [-]
	 SCS Opposite-Spin Scale   =       1.2000000000000000 [-]
	 SCS Same-Spin Energy      =      -0.1044282888752215 [Eh]
	 SCS Opposite-Spin Energy  =      -1.3367168143405663 [Eh]
	 SCS Correlation Energy    =      -1.4411451032157878 [Eh]
	 SCS Total Energy          =    -634.4271110361800083 [Eh]
	-----------------------------------------------------------

  Dipole Moment: [D]
     X:     0.1378      Y:     1.6849      Z:     0.1806     Total:     1.7001

*** Psi4 exiting successfully. Buy a developer a beer!
