                               Psi4 1.3.2 release

  ==> Input File <==

--------------------------------------------------------------------------
#psi4
#
memory 32 gb

molecule  {
0 1
  S        0.0000040    -0.8934040    -0.0001570
  C        1.3931532     0.2640740    -0.2314869
  C       -1.4128850     0.2392870     0.2347580
  C        1.6248350     1.1731860     0.9503430
  C        2.6401330    -0.6379020    -0.4731570
  C       -1.6249850     1.1730530    -0.9504290
  C       -2.6400040    -0.6379180     0.4735190
  H        1.2307130     0.8299810    -1.1389880
  H       -1.2303680     0.8300180     1.1389060
  H        2.5085220     1.7977530     0.7780440
  H        0.7732350     1.8400660     1.1083290
  H        1.7816100     0.5938770     1.8649360
  H        3.5150250    -0.0075390    -0.6610770
  H        2.4981610    -1.2958220    -1.3346530
  H        2.8465490    -1.2576700     0.4045140
  H       -2.5085150     1.7978030    -0.7780110
  H       -0.7733120     1.8397630    -1.1087700
  H       -1.7821140     0.5936310    -1.8648980
  H       -3.5149340    -0.0075940     0.6613800
  H       -2.4978860    -1.2956150     1.3351630
  H       -2.8465220    -1.2579300    -0.4039620
units angstrom
no_reorient  #important for SAPT in psi4, default
symmetry c1  #important for SAPT in psi4, default
}

set PROPERTIES_ORIGIN ["COM"]
properties('MP2/aug-cc-pvtz', properties = ['dipole'])
--------------------------------------------------------------------------

    Molecular point group: c1
  Charge       = 0
  Multiplicity = 1
  Basis Set: AUG-CC-PVTZ
    Blend: AUG-CC-PVTZ
  Basis Set: (AUG-CC-PVTZ AUX)
    Blend: AUG-CC-PVTZ-JKFIT

    Orbital Energies [Eh]
    ---------------------

    Doubly Occupied:

       1A    -91.931830     2A    -11.257159     3A    -11.257035
       4A    -11.220122     5A    -11.219630     6A    -11.219161
       7A    -11.218972     8A     -8.932830     9A     -6.614042
      10A     -6.613032    11A     -6.612181    12A     -1.107639
      13A     -1.063365    14A     -0.938165    15A     -0.934305
      16A     -0.919723    17A     -0.801699    18A     -0.746800
      19A     -0.644232    20A     -0.626842    21A     -0.602235
      22A     -0.582223    23A     -0.560671    24A     -0.557182
      25A     -0.541149    26A     -0.540567    27A     -0.499564
      28A     -0.494397    29A     -0.492415    30A     -0.482773
      31A     -0.435510    32A     -0.411756    33A     -0.332077

  @DF-RHF Final Energy:  -632.99250962914016

   => Energetics <=

    Nuclear Repulsion Energy =            400.6256419215577580
    One-Electron Energy =               -1662.4137384221203320
    Two-Electron Energy =                 628.7955868714223016
    Total Energy =                       -632.9925096291401587
  Basis Set: (AUG-CC-PVTZ AUX)
    Blend: AUG-CC-PVTZ-RI
    Molecular point group: c1

    Geometry (in Angstrom), charge = 0, multiplicity = 1:

       Center              X                  Y                   Z               Mass
    ------------   -----------------  -----------------  -----------------  -----------------
         S            0.002008888019    -0.854119618563    -0.000482755427    31.972071174400
         C            1.395158088019     0.303358381437    -0.231812655427    12.000000000000
         C           -1.410880111981     0.278571381437     0.234432244573    12.000000000000
         C            1.626839888019     1.212470381437     0.950017244573    12.000000000000
         C            2.642137888019    -0.598617618563    -0.473482755427    12.000000000000
         C           -1.622980111981     1.212337381437    -0.950754755427    12.000000000000
         C           -2.637999111981    -0.598633618563     0.473193244573    12.000000000000
         H            1.232717888019     0.869265381437    -1.139313755427     1.007825032230
         H           -1.228363111981     0.869302381437     1.138580244573     1.007825032230
         H            2.510526888019     1.837037381437     0.777718244573     1.007825032230
         H            0.775239888019     1.879350381437     1.108003244573     1.007825032230
         H            1.783614888019     0.633161381437     1.864610244573     1.007825032230
         H            3.517029888019     0.031745381437    -0.661402755427     1.007825032230
         H            2.500165888019    -1.256537618563    -1.334978755427     1.007825032230
         H            2.848553888019    -1.218385618563     0.404188244573     1.007825032230
         H           -2.506510111981     1.837087381437    -0.778336755427     1.007825032230
         H           -0.771307111981     1.879047381437    -1.109095755427     1.007825032230
         H           -1.780109111981     0.632915381437    -1.865223755427     1.007825032230
         H           -3.512929111981     0.031690381437     0.661054244573     1.007825032230
         H           -2.495881111981    -1.256330618563     1.334837244573     1.007825032230
         H           -2.844517111981    -1.218645618563    -0.404287755427     1.007825032230

  Basis Set: AUG-CC-PVTZ
    Blend: AUG-CC-PVTZ
  Basis Set: (AUG-CC-PVTZ AUX)
    Blend: AUG-CC-PVTZ-JKFIT
	 Reference Energy          =    -632.9925096291401587 [Eh]
	 Singles Energy            =      -0.0000000000000000 [Eh]
	 Same-Spin Energy          =      -0.3135397217082964 [Eh]
	 Opposite-Spin Energy      =      -1.1130490754150264 [Eh]
	 Correlation Energy        =      -1.4265887971233226 [Eh]
	 Total Energy              =    -634.4190984262635311 [Eh]

	 ================> DF-SCS-MP2 Energies <==================
	-----------------------------------------------------------
	 SCS Same-Spin Scale       =       0.3333333333333333 [-]
	 SCS Opposite-Spin Scale   =       1.2000000000000000 [-]
	 SCS Same-Spin Energy      =      -0.1045132405694321 [Eh]
	 SCS Opposite-Spin Energy  =      -1.3356588904980315 [Eh]
	 SCS Correlation Energy    =      -1.4401721310674636 [Eh]
	 SCS Total Energy          =    -634.4326817602076289 [Eh]
	-----------------------------------------------------------

  Dipole Moment: [D]
     X:    -0.0018      Y:     1.6486      Z:     0.0073     Total:     1.6486

*** Psi4 exiting successfully. Buy a developer a beer!
