                               Psi4 1.3.2 release

  ==> Input File <==

--------------------------------------------------------------------------
#psi4
#
memory 32 gb

molecule  {
0 1
  S        0.0265007    -0.8695135     0.0526602
  C        1.4128680     0.2392510    -0.2347660
  C       -1.4128850     0.2392870     0.2347580
  C        1.6248350     1.1731860     0.9503430
  C        2.6401330    -0.6379020    -0.4731570
  C       -1.6249850     1.1730530    -0.9504290
  C       -2.6400040    -0.6379180     0.4735190
  H        1.2307130     0.8299810    -1.1389880
  H       -1.2303680     0.8300180     1.1389060
  H        2.5085220     1.7977530     0.7780440
  H        0.7732350     1.8400660     1.1083290
  H        1.7816100     0.5938770     1.8649360
  H        3.5150250    -0.0075390    -0.6610770
  H        2.4981610    -1.2958220    -1.3346530
  H        2.8465490    -1.2576700     0.4045140
  H       -2.5085150     1.7978030    -0.7780110
  H       -0.7733120     1.8397630    -1.1087700
  H       -1.7821140     0.5936310    -1.8648980
  H       -3.5149340    -0.0075940     0.6613800
  H       -2.4978860    -1.2956150     1.3351630
  H       -2.8465220    -1.2579300    -0.4039620
units angstrom
no_reorient  #important for SAPT in psi4, default
symmetry c1  #important for SAPT in psi4, default
}

set PROPERTIES_ORIGIN ["COM"]
properties('MP2/aug-cc-pvtz', properties = ['dipole'])
--------------------------------------------------------------------------

    Molecular point group: c1
  Charge       = 0
  Multiplicity = 1
  Basis Set: AUG-CC-PVTZ
    Blend: AUG-CC-PVTZ
  Basis Set: (AUG-CC-PVTZ AUX)
    Blend: AUG-CC-PVTZ-JKFIT

    Orbital Energies [Eh]
    ---------------------

    Doubly Occupied:

       1A    -91.929806     2A    -11.257872     3A    -11.255792
       4A    -11.220495     5A    -11.219860     6A    -11.219557
       7A    -11.218467     8A     -8.931426     9A     -6.612680
      10A     -6.611705    11A     -6.610813    12A     -1.110651
      13A     -1.065455    14A     -0.938691    15A     -0.935031
      16A     -0.922191    17A     -0.802370    18A     -0.744488
      19A     -0.645703    20A     -0.627972    21A     -0.603956
      22A     -0.581471    23A     -0.562328    24A     -0.556736
      25A     -0.541598    26A     -0.540964    27A     -0.497865
      28A     -0.494593    29A     -0.494278    30A     -0.483843
      31A     -0.442533    32A     -0.408531    33A     -0.329690

  @DF-RHF Final Energy:  -632.99289347509125

   => Energetics <=

    Nuclear Repulsion Energy =            401.4041352984206696
    One-Electron Energy =               -1663.9552361508874583
    Two-Electron Energy =                 629.5582073773755383
    Total Energy =                       -632.9928934750912504
  Basis Set: (AUG-CC-PVTZ AUX)
    Blend: AUG-CC-PVTZ-RI
    Molecular point group: c1

    Geometry (in Angstrom), charge = 0, multiplicity = 1:

       Center              X                  Y                   Z               Mass
    ------------   -----------------  -----------------  -----------------  -----------------
         S            0.019327767090    -0.834175141322     0.038366766496    31.972071174400
         C            1.405695067090     0.274589358678    -0.249059433504    12.000000000000
         C           -1.420057932910     0.274625358678     0.220464566496    12.000000000000
         C            1.617662067090     1.208524358678     0.936049566496    12.000000000000
         C            2.632960067090    -0.602563641322    -0.487450433504    12.000000000000
         C           -1.632157932910     1.208391358678    -0.964722433504    12.000000000000
         C           -2.647176932910    -0.602579641322     0.459225566496    12.000000000000
         H            1.223540067090     0.865319358678    -1.153281433504     1.007825032230
         H           -1.237540932910     0.865356358678     1.124612566496     1.007825032230
         H            2.501349067090     1.833091358678     0.763750566496     1.007825032230
         H            0.766062067090     1.875404358678     1.094035566496     1.007825032230
         H            1.774437067090     0.629215358678     1.850642566496     1.007825032230
         H            3.507852067090     0.027799358678    -0.675370433504     1.007825032230
         H            2.490988067090    -1.260483641322    -1.348946433504     1.007825032230
         H            2.839376067090    -1.222331641322     0.390220566496     1.007825032230
         H           -2.515687932910     1.833141358678    -0.792304433504     1.007825032230
         H           -0.780484932910     1.875101358678    -1.123063433504     1.007825032230
         H           -1.789286932910     0.628969358678    -1.879191433504     1.007825032230
         H           -3.522106932910     0.027744358678     0.647086566496     1.007825032230
         H           -2.505058932910    -1.260276641322     1.320869566496     1.007825032230
         H           -2.853694932910    -1.222591641322    -0.418255433504     1.007825032230

  Basis Set: AUG-CC-PVTZ
    Blend: AUG-CC-PVTZ
  Basis Set: (AUG-CC-PVTZ AUX)
    Blend: AUG-CC-PVTZ-JKFIT
	 Reference Energy          =    -632.9928934750912504 [Eh]
	 Singles Energy            =      -0.0000000000000000 [Eh]
	 Same-Spin Energy          =      -0.3137229842907097 [Eh]
	 Opposite-Spin Energy      =      -1.1128413634107830 [Eh]
	 Correlation Energy        =      -1.4265643477014927 [Eh]
	 Total Energy              =    -634.4194578227927650 [Eh]

	 ================> DF-SCS-MP2 Energies <==================
	-----------------------------------------------------------
	 SCS Same-Spin Scale       =       0.3333333333333333 [-]
	 SCS Opposite-Spin Scale   =       1.2000000000000000 [-]
	 SCS Same-Spin Energy      =      -0.1045743280969032 [Eh]
	 SCS Opposite-Spin Energy  =      -1.3354096360929395 [Eh]
	 SCS Correlation Energy    =      -1.4399839641898426 [Eh]
	 SCS Total Energy          =    -634.4328774392811283 [Eh]
	-----------------------------------------------------------

  Dipole Moment: [D]
     X:    -0.0393      Y:     1.6420      Z:    -0.0631     Total:     1.6437

*** Psi4 exiting successfully. Buy a developer a beer!
