                               Psi4 1.3.2 release

  ==> Input File <==

--------------------------------------------------------------------------
#psi4
#
memory 32 gb

molecule  {
0 1
  S        0.0000040    -0.8934040    -0.0001570
  C        1.4321525     0.2140830    -0.2379736
  C       -1.4128850     0.2392870     0.2347580
  C        1.6248350     1.1731860     0.9503430
  C        2.6401330    -0.6379020    -0.4731570
  C       -1.6249850     1.1730530    -0.9504290
  C       -2.6400040    -0.6379180     0.4735190
  H        1.2307130     0.8299810    -1.1389880
  H       -1.2303680     0.8300180     1.1389060
  H        2.5085220     1.7977530     0.7780440
  H        0.7732350     1.8400660     1.1083290
  H        1.7816100     0.5938770     1.8649360
  H        3.5150250    -0.0075390    -0.6610770
  H        2.4981610    -1.2958220    -1.3346530
  H        2.8465490    -1.2576700     0.4045140
  H       -2.5085150     1.7978030    -0.7780110
  H       -0.7733120     1.8397630    -1.1087700
  H       -1.7821140     0.5936310    -1.8648980
  H       -3.5149340    -0.0075940     0.6613800
  H       -2.4978860    -1.2956150     1.3351630
  H       -2.8465220    -1.2579300    -0.4039620
units angstrom
no_reorient  #important for SAPT in psi4, default
symmetry c1  #important for SAPT in psi4, default
}

set PROPERTIES_ORIGIN ["COM"]
properties('MP2/aug-cc-pvtz', properties = ['dipole'])
--------------------------------------------------------------------------

    Molecular point group: c1
  Charge       = 0
  Multiplicity = 1
  Basis Set: AUG-CC-PVTZ
    Blend: AUG-CC-PVTZ
  Basis Set: (AUG-CC-PVTZ AUX)
    Blend: AUG-CC-PVTZ-JKFIT

    Orbital Energies [Eh]
    ---------------------

    Doubly Occupied:

       1A    -91.930937     2A    -11.258574     3A    -11.258330
       4A    -11.220319     5A    -11.219801     6A    -11.219597
       7A    -11.218308     8A     -8.932064     9A     -6.613273
      10A     -6.612331    11A     -6.611453    12A     -1.108638
      13A     -1.066375    14A     -0.939318    15A     -0.935499
      16A     -0.920632    17A     -0.800003    18A     -0.744098
      19A     -0.644778    20A     -0.628517    21A     -0.604745
      22A     -0.581059    23A     -0.563981    24A     -0.555966
      25A     -0.541718    26A     -0.541149    27A     -0.500908
      28A     -0.494431    29A     -0.492475    30A     -0.480604
      31A     -0.441658    32A     -0.407697    33A     -0.330193

  @DF-RHF Final Energy:  -632.99248502913815

   => Energetics <=

    Nuclear Repulsion Energy =            400.5799608909490530
    One-Electron Energy =               -1662.3060318641103095
    Two-Electron Energy =                 628.7335859440231616
    Total Energy =                       -632.9924850291381517
  Basis Set: (AUG-CC-PVTZ AUX)
    Blend: AUG-CC-PVTZ-RI
    Molecular point group: c1

    Geometry (in Angstrom), charge = 0, multiplicity = 1:

       Center              X                  Y                   Z               Mass
    ------------   -----------------  -----------------  -----------------  -----------------
         S           -0.001954401048    -0.849039302153     0.000176453000    31.972071174400
         C            1.430194098952     0.258447697847    -0.237640147000    12.000000000000
         C           -1.414843401048     0.283651697847     0.235091453000    12.000000000000
         C            1.622876598952     1.217550697847     0.950676453000    12.000000000000
         C            2.638174598952    -0.593537302153    -0.472823547000    12.000000000000
         C           -1.626943401048     1.217417697847    -0.950095547000    12.000000000000
         C           -2.641962401048    -0.593553302153     0.473852453000    12.000000000000
         H            1.228754598952     0.874345697847    -1.138654547000     1.007825032230
         H           -1.232326401048     0.874382697847     1.139239453000     1.007825032230
         H            2.506563598952     1.842117697847     0.778377453000     1.007825032230
         H            0.771276598952     1.884430697847     1.108662453000     1.007825032230
         H            1.779651598952     0.638241697847     1.865269453000     1.007825032230
         H            3.513066598952     0.036825697847    -0.660743547000     1.007825032230
         H            2.496202598952    -1.251457302153    -1.334319547000     1.007825032230
         H            2.844590598952    -1.213305302153     0.404847453000     1.007825032230
         H           -2.510473401048     1.842167697847    -0.777677547000     1.007825032230
         H           -0.775270401048     1.884127697847    -1.108436547000     1.007825032230
         H           -1.784072401048     0.637995697847    -1.864564547000     1.007825032230
         H           -3.516892401048     0.036770697847     0.661713453000     1.007825032230
         H           -2.499844401048    -1.251250302153     1.335496453000     1.007825032230
         H           -2.848480401048    -1.213565302153    -0.403628547000     1.007825032230

  Basis Set: AUG-CC-PVTZ
    Blend: AUG-CC-PVTZ
  Basis Set: (AUG-CC-PVTZ AUX)
    Blend: AUG-CC-PVTZ-JKFIT
	 Reference Energy          =    -632.9924850291381517 [Eh]
	 Singles Energy            =      -0.0000000000000000 [Eh]
	 Same-Spin Energy          =      -0.3135901863835840 [Eh]
	 Opposite-Spin Energy      =      -1.1129199077633420 [Eh]
	 Correlation Energy        =      -1.4265100941469260 [Eh]
	 Total Energy              =    -634.4189951232850717 [Eh]

	 ================> DF-SCS-MP2 Energies <==================
	-----------------------------------------------------------
	 SCS Same-Spin Scale       =       0.3333333333333333 [-]
	 SCS Opposite-Spin Scale   =       1.2000000000000000 [-]
	 SCS Same-Spin Energy      =      -0.1045300621278613 [Eh]
	 SCS Opposite-Spin Energy  =      -1.3355038893160105 [Eh]
	 SCS Correlation Energy    =      -1.4400339514438718 [Eh]
	 SCS Total Energy          =    -634.4325189805820173 [Eh]
	-----------------------------------------------------------

  Dipole Moment: [D]
     X:     0.0010      Y:     1.6558      Z:    -0.0065     Total:     1.6558

*** Psi4 exiting successfully. Buy a developer a beer!
