                               Psi4 1.3.2 release

  ==> Input File <==

--------------------------------------------------------------------------
#psi4
#
memory 32 gb

molecule  {
0 1
  S       -0.0138920    -0.9048335    -0.0264623
  C        1.4128680     0.2392510    -0.2347660
  C       -1.4128850     0.2392870     0.2347580
  C        1.6248350     1.1731860     0.9503430
  C        2.6401330    -0.6379020    -0.4731570
  C       -1.6249850     1.1730530    -0.9504290
  C       -2.6400040    -0.6379180     0.4735190
  H        1.2307130     0.8299810    -1.1389880
  H       -1.2303680     0.8300180     1.1389060
  H        2.5085220     1.7977530     0.7780440
  H        0.7732350     1.8400660     1.1083290
  H        1.7816100     0.5938770     1.8649360
  H        3.5150250    -0.0075390    -0.6610770
  H        2.4981610    -1.2958220    -1.3346530
  H        2.8465490    -1.2576700     0.4045140
  H       -2.5085150     1.7978030    -0.7780110
  H       -0.7733120     1.8397630    -1.1087700
  H       -1.7821140     0.5936310    -1.8648980
  H       -3.5149340    -0.0075940     0.6613800
  H       -2.4978860    -1.2956150     1.3351630
  H       -2.8465220    -1.2579300    -0.4039620
units angstrom
no_reorient  #important for SAPT in psi4, default
symmetry c1  #important for SAPT in psi4, default
}

set PROPERTIES_ORIGIN ["COM"]
properties('MP2/aug-cc-pvtz', properties = ['dipole'])
--------------------------------------------------------------------------

    Molecular point group: c1
  Charge       = 0
  Multiplicity = 1
  Basis Set: AUG-CC-PVTZ
    Blend: AUG-CC-PVTZ
  Basis Set: (AUG-CC-PVTZ AUX)
    Blend: AUG-CC-PVTZ-JKFIT

    Orbital Energies [Eh]
    ---------------------

    Doubly Occupied:

       1A    -91.932070     2A    -11.258735     3A    -11.257638
       4A    -11.220347     5A    -11.219315     6A    -11.219153
       7A    -11.218971     8A     -8.932875     9A     -6.614065
      10A     -6.613084    11A     -6.612233    12A     -1.106775
      13A     -1.064322    14A     -0.938640    15A     -0.934836
      16A     -0.919214    17A     -0.800051    18A     -0.746043
      19A     -0.643793    20A     -0.627509    21A     -0.603148
      22A     -0.581608    23A     -0.562011    24A     -0.556404
      25A     -0.541372    26A     -0.540827    27A     -0.497473
      28A     -0.493874    29A     -0.493575    30A     -0.483309
      31A     -0.436900    32A     -0.410402    33A     -0.331719

  @DF-RHF Final Energy:  -632.99318162197073

   => Energetics <=

    Nuclear Repulsion Energy =            400.1892819575023168
    One-Electron Energy =               -1661.5403446196273762
    Two-Electron Energy =                 628.3578810401543251
    Total Energy =                       -632.9931816219707343
  Basis Set: (AUG-CC-PVTZ AUX)
    Blend: AUG-CC-PVTZ-RI
    Molecular point group: c1

    Geometry (in Angstrom), charge = 0, multiplicity = 1:

       Center              X                  Y                   Z               Mass
    ------------   -----------------  -----------------  -----------------  -----------------
         S           -0.010128105811    -0.859931810989    -0.019332330211    31.972071174400
         C            1.416631894189     0.284152689011    -0.227636030211    12.000000000000
         C           -1.409121105811     0.284188689011     0.241887969789    12.000000000000
         C            1.628598894189     1.218087689011     0.957472969789    12.000000000000
         C            2.643896894189    -0.593000310989    -0.466027030211    12.000000000000
         C           -1.621221105811     1.217954689011    -0.943299030211    12.000000000000
         C           -2.636240105811    -0.593016310989     0.480648969789    12.000000000000
         H            1.234476894189     0.874882689011    -1.131858030211     1.007825032230
         H           -1.226604105811     0.874919689011     1.146035969789     1.007825032230
         H            2.512285894189     1.842654689011     0.785173969789     1.007825032230
         H            0.776998894189     1.884967689011     1.115458969789     1.007825032230
         H            1.785373894189     0.638778689011     1.872065969789     1.007825032230
         H            3.518788894189     0.037362689011    -0.653947030211     1.007825032230
         H            2.501924894189    -1.250920310989    -1.327523030211     1.007825032230
         H            2.850312894189    -1.212768310989     0.411643969789     1.007825032230
         H           -2.504751105811     1.842704689011    -0.770881030211     1.007825032230
         H           -0.769548105811     1.884664689011    -1.101640030211     1.007825032230
         H           -1.778350105811     0.638532689011    -1.857768030211     1.007825032230
         H           -3.511170105811     0.037307689011     0.668509969789     1.007825032230
         H           -2.494122105811    -1.250713310989     1.342292969789     1.007825032230
         H           -2.842758105811    -1.213028310989    -0.396832030211     1.007825032230

  Basis Set: AUG-CC-PVTZ
    Blend: AUG-CC-PVTZ
  Basis Set: (AUG-CC-PVTZ AUX)
    Blend: AUG-CC-PVTZ-JKFIT
	 Reference Energy          =    -632.9931816219707343 [Eh]
	 Singles Energy            =      -0.0000000000000000 [Eh]
	 Same-Spin Energy          =      -0.3134458975802681 [Eh]
	 Opposite-Spin Energy      =      -1.1129913499245756 [Eh]
	 Correlation Energy        =      -1.4264372475048437 [Eh]
	 Total Energy              =    -634.4196188694755847 [Eh]

	 ================> DF-SCS-MP2 Energies <==================
	-----------------------------------------------------------
	 SCS Same-Spin Scale       =       0.3333333333333333 [-]
	 SCS Opposite-Spin Scale   =       1.2000000000000000 [-]
	 SCS Same-Spin Energy      =      -0.1044819658600894 [Eh]
	 SCS Opposite-Spin Energy  =      -1.3355896199094908 [Eh]
	 SCS Correlation Energy    =      -1.4400715857695801 [Eh]
	 SCS Total Energy          =    -634.4332532077403357 [Eh]
	-----------------------------------------------------------

  Dipole Moment: [D]
     X:     0.0207      Y:     1.6581      Z:     0.0313     Total:     1.6585

*** Psi4 exiting successfully. Buy a developer a beer!
