                               Psi4 1.3.2 release

  ==> Input File <==

--------------------------------------------------------------------------
#psi4
#
memory 32 gb

molecule  {
0 1
  S        0.0000040    -0.8934040    -0.0001570
  C        1.4902445     0.3012816    -0.2476145
  C       -1.4128850     0.2392870     0.2347580
  C        1.6248350     1.1731860     0.9503430
  C        2.6401330    -0.6379020    -0.4731570
  C       -1.6249850     1.1730530    -0.9504290
  C       -2.6400040    -0.6379180     0.4735190
  H        1.2307130     0.8299810    -1.1389880
  H       -1.2303680     0.8300180     1.1389060
  H        2.5085220     1.7977530     0.7780440
  H        0.7732350     1.8400660     1.1083290
  H        1.7816100     0.5938770     1.8649360
  H        3.5150250    -0.0075390    -0.6610770
  H        2.4981610    -1.2958220    -1.3346530
  H        2.8465490    -1.2576700     0.4045140
  H       -2.5085150     1.7978030    -0.7780110
  H       -0.7733120     1.8397630    -1.1087700
  H       -1.7821140     0.5936310    -1.8648980
  H       -3.5149340    -0.0075940     0.6613800
  H       -2.4978860    -1.2956150     1.3351630
  H       -2.8465220    -1.2579300    -0.4039620
units angstrom
no_reorient  #important for SAPT in psi4, default
symmetry c1  #important for SAPT in psi4, default
}

set PROPERTIES_ORIGIN ["COM"]
properties('MP2/aug-cc-pvtz', properties = ['dipole'])
--------------------------------------------------------------------------

    Molecular point group: c1
  Charge       = 0
  Multiplicity = 1
  Basis Set: AUG-CC-PVTZ
    Blend: AUG-CC-PVTZ
  Basis Set: (AUG-CC-PVTZ AUX)
    Blend: AUG-CC-PVTZ-JKFIT

    Orbital Energies [Eh]
    ---------------------

    Doubly Occupied:

       1A    -91.926544     2A    -11.261395     3A    -11.255184
       4A    -11.221310     5A    -11.220259     6A    -11.218595
       7A    -11.217083     8A     -8.926858     9A     -6.607926
      10A     -6.607000    11A     -6.606176    12A     -1.105703
      13A     -1.069016    14A     -0.944815    15A     -0.934730
      16A     -0.910908    17A     -0.800534    18A     -0.748612
      19A     -0.642818    20A     -0.633020    21A     -0.605102
      22A     -0.581906    23A     -0.563675    24A     -0.557624
      25A     -0.544578    26A     -0.539327    27A     -0.507174
      28A     -0.503479    29A     -0.491379    30A     -0.485362
      31A     -0.427603    32A     -0.393393    33A     -0.328936

  @DF-RHF Final Energy:  -632.98708772731914

   => Energetics <=

    Nuclear Repulsion Energy =            399.4035640456170313
    One-Electron Energy =               -1660.0052533556847720
    Two-Electron Energy =                 627.6146015827486053
    Total Energy =                       -632.9870877273191354
  Basis Set: (AUG-CC-PVTZ AUX)
    Blend: AUG-CC-PVTZ-RI
    Molecular point group: c1

    Geometry (in Angstrom), charge = 0, multiplicity = 1:

       Center              X                  Y                   Z               Mass
    ------------   -----------------  -----------------  -----------------  -----------------
         S           -0.007857978510    -0.857900826797     0.001156205804    31.972071174400
         C            1.482382521490     0.336784773203    -0.246301294196    12.000000000000
         C           -1.420746978510     0.274790173203     0.236071205804    12.000000000000
         C            1.616973021490     1.208689173203     0.951656205804    12.000000000000
         C            2.632271021490    -0.602398826797    -0.471843794196    12.000000000000
         C           -1.632846978510     1.208556173203    -0.949115794196    12.000000000000
         C           -2.647865978510    -0.602414826797     0.474832205804    12.000000000000
         H            1.222851021490     0.865484173203    -1.137674794196     1.007825032230
         H           -1.238229978510     0.865521173203     1.140219205804     1.007825032230
         H            2.500660021490     1.833256173203     0.779357205804     1.007825032230
         H            0.765373021490     1.875569173203     1.109642205804     1.007825032230
         H            1.773748021490     0.629380173203     1.866249205804     1.007825032230
         H            3.507163021490     0.027964173203    -0.659763794196     1.007825032230
         H            2.490299021490    -1.260318826797    -1.333339794196     1.007825032230
         H            2.838687021490    -1.222166826797     0.405827205804     1.007825032230
         H           -2.516376978510     1.833306173203    -0.776697794196     1.007825032230
         H           -0.781173978510     1.875266173203    -1.107456794196     1.007825032230
         H           -1.789975978510     0.629134173203    -1.863584794196     1.007825032230
         H           -3.522795978510     0.027909173203     0.662693205804     1.007825032230
         H           -2.505747978510    -1.260111826797     1.336476205804     1.007825032230
         H           -2.854383978510    -1.222426826797    -0.402648794196     1.007825032230

  Basis Set: AUG-CC-PVTZ
    Blend: AUG-CC-PVTZ
  Basis Set: (AUG-CC-PVTZ AUX)
    Blend: AUG-CC-PVTZ-JKFIT
	 Reference Energy          =    -632.9870877273191354 [Eh]
	 Singles Energy            =      -0.0000000000000000 [Eh]
	 Same-Spin Energy          =      -0.3137435126089200 [Eh]
	 Opposite-Spin Energy      =      -1.1134031864826139 [Eh]
	 Correlation Energy        =      -1.4271466990915340 [Eh]
	 Total Energy              =    -634.4142344264106441 [Eh]

	 ================> DF-SCS-MP2 Energies <==================
	-----------------------------------------------------------
	 SCS Same-Spin Scale       =       0.3333333333333333 [-]
	 SCS Opposite-Spin Scale   =       1.2000000000000000 [-]
	 SCS Same-Spin Energy      =      -0.1045811708696400 [Eh]
	 SCS Opposite-Spin Energy  =      -1.3360838237791366 [Eh]
	 SCS Correlation Energy    =      -1.4406649946487766 [Eh]
	 SCS Total Energy          =    -634.4277527219678632 [Eh]
	-----------------------------------------------------------

  Dipole Moment: [D]
     X:     0.2039      Y:     1.7431      Z:     0.0132     Total:     1.7551

*** Psi4 exiting successfully. Buy a developer a beer!
