                               Psi4 1.3.2 release

  ==> Input File <==

--------------------------------------------------------------------------
#psi4
#
memory 32 gb

molecule  {
0 1
  S       -0.0395963    -0.9426863     0.0079395
  C        1.4128680     0.2392510    -0.2347660
  C       -1.4128850     0.2392870     0.2347580
  C        1.6248350     1.1731860     0.9503430
  C        2.6401330    -0.6379020    -0.4731570
  C       -1.6249850     1.1730530    -0.9504290
  C       -2.6400040    -0.6379180     0.4735190
  H        1.2307130     0.8299810    -1.1389880
  H       -1.2303680     0.8300180     1.1389060
  H        2.5085220     1.7977530     0.7780440
  H        0.7732350     1.8400660     1.1083290
  H        1.7816100     0.5938770     1.8649360
  H        3.5150250    -0.0075390    -0.6610770
  H        2.4981610    -1.2958220    -1.3346530
  H        2.8465490    -1.2576700     0.4045140
  H       -2.5085150     1.7978030    -0.7780110
  H       -0.7733120     1.8397630    -1.1087700
  H       -1.7821140     0.5936310    -1.8648980
  H       -3.5149340    -0.0075940     0.6613800
  H       -2.4978860    -1.2956150     1.3351630
  H       -2.8465220    -1.2579300    -0.4039620
units angstrom
no_reorient  #important for SAPT in psi4, default
symmetry c1  #important for SAPT in psi4, default
}

set PROPERTIES_ORIGIN ["COM"]
properties('MP2/aug-cc-pvtz', properties = ['dipole'])
--------------------------------------------------------------------------

    Molecular point group: c1
  Charge       = 0
  Multiplicity = 1
  Basis Set: AUG-CC-PVTZ
    Blend: AUG-CC-PVTZ
  Basis Set: (AUG-CC-PVTZ AUX)
    Blend: AUG-CC-PVTZ-JKFIT

    Orbital Energies [Eh]
    ---------------------

    Doubly Occupied:

       1A    -91.934222     2A    -11.262135     3A    -11.257241
       4A    -11.220736     5A    -11.219773     6A    -11.218886
       7A    -11.217954     8A     -8.934258     9A     -6.615385
      10A     -6.614380    11A     -6.613567    12A     -1.103268
      13A     -1.063164    14A     -0.938701    15A     -0.934756
      16A     -0.915764    17A     -0.797667    18A     -0.747764
      19A     -0.641763    20A     -0.627113    21A     -0.602280
      22A     -0.581858    23A     -0.561732    24A     -0.556135
      25A     -0.541195    26A     -0.540681    27A     -0.497171
      28A     -0.493274    29A     -0.492785    30A     -0.482829
      31A     -0.431775    32A     -0.410571    33A     -0.333463

  @DF-RHF Final Energy:  -632.99119728113862

   => Energetics <=

    Nuclear Repulsion Energy =            398.8879079618415062
    One-Electron Energy =               -1658.9497205417135319
    Two-Electron Energy =                 627.0706152987332871
    Total Energy =                       -632.9911972811386249
  Basis Set: (AUG-CC-PVTZ AUX)
    Blend: AUG-CC-PVTZ-RI
    Molecular point group: c1

    Geometry (in Angstrom), charge = 0, multiplicity = 1:

       Center              X                  Y                   Z               Mass
    ------------   -----------------  -----------------  -----------------  -----------------
         S           -0.028872646132    -0.887535493479     0.005754753553    31.972071174400
         C            1.423591653868     0.294401806521    -0.236950746447    12.000000000000
         C           -1.402161346132     0.294437806521     0.232573253553    12.000000000000
         C            1.635558653868     1.228336806521     0.948158253553    12.000000000000
         C            2.650856653868    -0.582751193479    -0.475341746447    12.000000000000
         C           -1.614261346132     1.228203806521    -0.952613746447    12.000000000000
         C           -2.629280346132    -0.582767193479     0.471334253553    12.000000000000
         H            1.241436653868     0.885131806521    -1.141172746447     1.007825032230
         H           -1.219644346132     0.885168806521     1.136721253553     1.007825032230
         H            2.519245653868     1.852903806521     0.775859253553     1.007825032230
         H            0.783958653868     1.895216806521     1.106144253553     1.007825032230
         H            1.792333653868     0.649027806521     1.862751253553     1.007825032230
         H            3.525748653868     0.047611806521    -0.663261746447     1.007825032230
         H            2.508884653868    -1.240671193479    -1.336837746447     1.007825032230
         H            2.857272653868    -1.202519193479     0.402329253553     1.007825032230
         H           -2.497791346132     1.852953806521    -0.780195746447     1.007825032230
         H           -0.762588346132     1.894913806521    -1.110954746447     1.007825032230
         H           -1.771390346132     0.648781806521    -1.867082746447     1.007825032230
         H           -3.504210346132     0.047556806521     0.659195253553     1.007825032230
         H           -2.487162346132    -1.240464193479     1.332978253553     1.007825032230
         H           -2.835798346132    -1.202779193479    -0.406146746447     1.007825032230

  Basis Set: AUG-CC-PVTZ
    Blend: AUG-CC-PVTZ
  Basis Set: (AUG-CC-PVTZ AUX)
    Blend: AUG-CC-PVTZ-JKFIT
	 Reference Energy          =    -632.9911972811386249 [Eh]
	 Singles Energy            =      -0.0000000000000000 [Eh]
	 Same-Spin Energy          =      -0.3132418437499568 [Eh]
	 Opposite-Spin Energy      =      -1.1133370079569833 [Eh]
	 Correlation Energy        =      -1.4265788517069402 [Eh]
	 Total Energy              =    -634.4177761328455745 [Eh]

	 ================> DF-SCS-MP2 Energies <==================
	-----------------------------------------------------------
	 SCS Same-Spin Scale       =       0.3333333333333333 [-]
	 SCS Opposite-Spin Scale   =       1.2000000000000000 [-]
	 SCS Same-Spin Energy      =      -0.1044139479166523 [Eh]
	 SCS Opposite-Spin Energy  =      -1.3360044095483798 [Eh]
	 SCS Correlation Energy    =      -1.4404183574650322 [Eh]
	 SCS Total Energy          =    -634.4316156386036027 [Eh]
	-----------------------------------------------------------

  Dipole Moment: [D]
     X:     0.0482      Y:     1.6775      Z:     0.0004     Total:     1.6782

*** Psi4 exiting successfully. Buy a developer a beer!
