                               Psi4 1.3.2 release

  ==> Input File <==

--------------------------------------------------------------------------
#psi4
#
memory 32 gb

molecule  {
0 1
  S        0.0000040    -0.8934040    -0.0001570
  C        1.4128680     0.2392510    -0.2347660
  C       -1.4128850     0.2392870     0.2347580
  C        1.6248350     1.1731860     0.9503430
  C        2.6401330    -0.6379020    -0.4731570
  C       -1.6249850     1.1730530    -0.9504290
  C       -2.6400040    -0.6379180     0.4735190
  H        1.2307130     0.8299810    -1.1389880
  H       -1.2303680     0.8300180     1.1389060
  H        2.5085220     1.7977530     0.7780440
  H        0.7732350     1.8400660     1.1083290
  H        1.7816100     0.5938770     1.8649360
  H        3.5150250    -0.0075390    -0.6610770
  H        2.4981610    -1.2958220    -1.3346530
  H        2.8465490    -1.2576700     0.4045140
  H       -2.5085150     1.7978030    -0.7780110
  H       -0.7733120     1.8397630    -1.1087700
  H       -1.7821140     0.5936310    -1.8648980
  H       -3.5149340    -0.0075940     0.6613800
  H       -2.4978860    -1.2956150     1.3351630
  H       -2.8465220    -1.2579300    -0.4039620
units angstrom
no_reorient  #important for SAPT in psi4, default
symmetry c1  #important for SAPT in psi4, default
}

set PROPERTIES_ORIGIN ["COM"]
properties('MP2/aug-cc-pvtz', properties = ['dipole'])
--------------------------------------------------------------------------

    Molecular point group: c1
  Charge       = 0
  Multiplicity = 1
  Basis Set: AUG-CC-PVTZ
    Blend: AUG-CC-PVTZ
  Basis Set: (AUG-CC-PVTZ AUX)
    Blend: AUG-CC-PVTZ-JKFIT

    Orbital Energies [Eh]
    ---------------------

    Doubly Occupied:

       1A    -91.931337     2A    -11.257729     3A    -11.257717
       4A    -11.219711     5A    -11.219710     6A    -11.219276
       7A    -11.219273     8A     -8.932406     9A     -6.613616
      10A     -6.612640    11A     -6.611776    12A     -1.108007
      13A     -1.064704    14A     -0.938645    15A     -0.934888
      16A     -0.920288    17A     -0.800823    18A     -0.745475
      19A     -0.644454    20A     -0.627648    21A     -0.603456
      22A     -0.581550    23A     -0.562103    24A     -0.556512
      25A     -0.541439    26A     -0.540867    27A     -0.497604
      28A     -0.494065    29A     -0.493852    30A     -0.483469
      31A     -0.438843    32A     -0.409839    33A     -0.331159

  @DF-RHF Final Energy:  -632.99347637427820

   => Energetics <=

    Nuclear Repulsion Energy =            400.5994662147712688
    One-Electron Energy =               -1662.3561272991789792
    Two-Electron Energy =                 628.7631847101296216
    Total Energy =                       -632.9934763742782025
  Basis Set: (AUG-CC-PVTZ AUX)
    Blend: AUG-CC-PVTZ-RI
    Molecular point group: c1

    Geometry (in Angstrom), charge = 0, multiplicity = 1:

       Center              X                  Y                   Z               Mass
    ------------   -----------------  -----------------  -----------------  -----------------
         S            0.000005378948    -0.851596990605    -0.000149518134    31.972071174400
         C            1.412869378948     0.281058009395    -0.234758518134    12.000000000000
         C           -1.412883621052     0.281094009395     0.234765481866    12.000000000000
         C            1.624836378948     1.214993009395     0.950350481866    12.000000000000
         C            2.640134378948    -0.596094990605    -0.473149518134    12.000000000000
         C           -1.624983621052     1.214860009395    -0.950421518134    12.000000000000
         C           -2.640002621052    -0.596110990605     0.473526481866    12.000000000000
         H            1.230714378948     0.871788009395    -1.138980518134     1.007825032230
         H           -1.230366621052     0.871825009395     1.138913481866     1.007825032230
         H            2.508523378948     1.839560009395     0.778051481866     1.007825032230
         H            0.773236378948     1.881873009395     1.108336481866     1.007825032230
         H            1.781611378948     0.635684009395     1.864943481866     1.007825032230
         H            3.515026378948     0.034268009395    -0.661069518134     1.007825032230
         H            2.498162378948    -1.254014990605    -1.334645518134     1.007825032230
         H            2.846550378948    -1.215862990605     0.404521481866     1.007825032230
         H           -2.508513621052     1.839610009395    -0.778003518134     1.007825032230
         H           -0.773310621052     1.881570009395    -1.108762518134     1.007825032230
         H           -1.782112621052     0.635438009395    -1.864890518134     1.007825032230
         H           -3.514932621052     0.034213009395     0.661387481866     1.007825032230
         H           -2.497884621052    -1.253807990605     1.335170481866     1.007825032230
         H           -2.846520621052    -1.216122990605    -0.403954518134     1.007825032230

  Basis Set: AUG-CC-PVTZ
    Blend: AUG-CC-PVTZ
  Basis Set: (AUG-CC-PVTZ AUX)
    Blend: AUG-CC-PVTZ-JKFIT
	 Reference Energy          =    -632.9934763742782025 [Eh]
	 Singles Energy            =      -0.0000000000000000 [Eh]
	 Same-Spin Energy          =      -0.3135242935374453 [Eh]
	 Opposite-Spin Energy      =      -1.1129079397910500 [Eh]
	 Correlation Energy        =      -1.4264322333284953 [Eh]
	 Total Energy              =    -634.4199086076066578 [Eh]

	 ================> DF-SCS-MP2 Energies <==================
	-----------------------------------------------------------
	 SCS Same-Spin Scale       =       0.3333333333333333 [-]
	 SCS Opposite-Spin Scale   =       1.2000000000000000 [-]
	 SCS Same-Spin Energy      =      -0.1045080978458151 [Eh]
	 SCS Opposite-Spin Energy  =      -1.3354895277492600 [Eh]
	 SCS Correlation Energy    =      -1.4399976255950750 [Eh]
	 SCS Total Energy          =    -634.4334739998732857 [Eh]
	-----------------------------------------------------------

  Dipole Moment: [D]
     X:    -0.0001      Y:     1.6527      Z:     0.0002     Total:     1.6527

*** Psi4 exiting successfully. Buy a developer a beer!
