                               Psi4 1.3.2 release

  ==> Input File <==

--------------------------------------------------------------------------
#psi4
#
memory 32 gb

molecule  {
0 1
  S        0.0000040    -0.8934040    -0.0001570
  C        1.5676209     0.3633123    -0.2604630
  C       -1.4128850     0.2392870     0.2347580
  C        1.6248350     1.1731860     0.9503430
  C        2.6401330    -0.6379020    -0.4731570
  C       -1.6249850     1.1730530    -0.9504290
  C       -2.6400040    -0.6379180     0.4735190
  H        1.2307130     0.8299810    -1.1389880
  H       -1.2303680     0.8300180     1.1389060
  H        2.5085220     1.7977530     0.7780440
  H        0.7732350     1.8400660     1.1083290
  H        1.7816100     0.5938770     1.8649360
  H        3.5150250    -0.0075390    -0.6610770
  H        2.4981610    -1.2958220    -1.3346530
  H        2.8465490    -1.2576700     0.4045140
  H       -2.5085150     1.7978030    -0.7780110
  H       -0.7733120     1.8397630    -1.1087700
  H       -1.7821140     0.5936310    -1.8648980
  H       -3.5149340    -0.0075940     0.6613800
  H       -2.4978860    -1.2956150     1.3351630
  H       -2.8465220    -1.2579300    -0.4039620
units angstrom
no_reorient  #important for SAPT in psi4, default
symmetry c1  #important for SAPT in psi4, default
}

set PROPERTIES_ORIGIN ["COM"]
properties('MP2/aug-cc-pvtz', properties = ['dipole'])
--------------------------------------------------------------------------

    Molecular point group: c1
  Charge       = 0
  Multiplicity = 1
  Basis Set: AUG-CC-PVTZ
    Blend: AUG-CC-PVTZ
  Basis Set: (AUG-CC-PVTZ AUX)
    Blend: AUG-CC-PVTZ-JKFIT

    Orbital Energies [Eh]
    ---------------------

    Doubly Occupied:

       1A    -91.919212     2A    -11.268861     3A    -11.251944
       4A    -11.224579     5A    -11.223304     6A    -11.217069
       7A    -11.214195     8A     -8.919313     9A     -6.600279
      10A     -6.599368    11A     -6.598561    12A     -1.107220
      13A     -1.071823    14A     -0.953501    15A     -0.932638
      16A     -0.902146    17A     -0.802361    18A     -0.749360
      19A     -0.646210    20A     -0.636164    21A     -0.605763
      22A     -0.583245    23A     -0.569827    24A     -0.557197
      25A     -0.547772    26A     -0.536966    27A     -0.517915
      28A     -0.511169    29A     -0.488539    30A     -0.484260
      31A     -0.421323    32A     -0.369094    33A     -0.324528

  @DF-RHF Final Energy:  -632.96921347741943

   => Energetics <=

    Nuclear Repulsion Energy =            398.2431916240127521
    One-Electron Energy =               -1657.7133952759422755
    Two-Electron Energy =                 626.5009901745100933
    Total Energy =                       -632.9692134774194301
  Basis Set: (AUG-CC-PVTZ AUX)
    Blend: AUG-CC-PVTZ-RI
    Molecular point group: c1

    Geometry (in Angstrom), charge = 0, multiplicity = 1:

       Center              X                  Y                   Z               Mass
    ------------   -----------------  -----------------  -----------------  -----------------
         S           -0.015721325805    -0.864204673151     0.002461929743    31.972071174400
         C            1.551895574195     0.392511626849    -0.257844070257    12.000000000000
         C           -1.428610325805     0.268486326849     0.237376929743    12.000000000000
         C            1.609109674195     1.202385326849     0.952961929743    12.000000000000
         C            2.624407674195    -0.608702673151    -0.470538070257    12.000000000000
         C           -1.640710325805     1.202252326849    -0.947810070257    12.000000000000
         C           -2.655729325805    -0.608718673151     0.476137929743    12.000000000000
         H            1.214987674195     0.859180326849    -1.136369070257     1.007825032230
         H           -1.246093325805     0.859217326849     1.141524929743     1.007825032230
         H            2.492796674195     1.826952326849     0.780662929743     1.007825032230
         H            0.757509674195     1.869265326849     1.110947929743     1.007825032230
         H            1.765884674195     0.623076326849     1.867554929743     1.007825032230
         H            3.499299674195     0.021660326849    -0.658458070257     1.007825032230
         H            2.482435674195    -1.266622673151    -1.332034070257     1.007825032230
         H            2.830823674195    -1.228470673151     0.407132929743     1.007825032230
         H           -2.524240325805     1.827002326849    -0.775392070257     1.007825032230
         H           -0.789037325805     1.868962326849    -1.106151070257     1.007825032230
         H           -1.797839325805     0.622830326849    -1.862279070257     1.007825032230
         H           -3.530659325805     0.021605326849     0.663998929743     1.007825032230
         H           -2.513611325805    -1.266415673151     1.337781929743     1.007825032230
         H           -2.862247325805    -1.228730673151    -0.401343070257     1.007825032230

  Basis Set: AUG-CC-PVTZ
    Blend: AUG-CC-PVTZ
  Basis Set: (AUG-CC-PVTZ AUX)
    Blend: AUG-CC-PVTZ-JKFIT
	 Reference Energy          =    -632.9692134774194301 [Eh]
	 Singles Energy            =      -0.0000000000000000 [Eh]
	 Same-Spin Energy          =      -0.3145811382024759 [Eh]
	 Opposite-Spin Energy      =      -1.1148468321750939 [Eh]
	 Correlation Energy        =      -1.4294279703775699 [Eh]
	 Total Energy              =    -634.3986414477969902 [Eh]

	 ================> DF-SCS-MP2 Energies <==================
	-----------------------------------------------------------
	 SCS Same-Spin Scale       =       0.3333333333333333 [-]
	 SCS Opposite-Spin Scale   =       1.2000000000000000 [-]
	 SCS Same-Spin Energy      =      -0.1048603794008253 [Eh]
	 SCS Opposite-Spin Energy  =      -1.3378161986101127 [Eh]
	 SCS Correlation Energy    =      -1.4426765780109381 [Eh]
	 SCS Total Energy          =    -634.4118900554303764 [Eh]
	-----------------------------------------------------------

  Dipole Moment: [D]
     X:     0.4457      Y:     1.8448      Z:     0.0288     Total:     1.8981

*** Psi4 exiting successfully. Buy a developer a beer!
