                               Psi4 1.3.2 release

  ==> Input File <==

--------------------------------------------------------------------------
#psi4
#
memory 32 gb

molecule  {
0 1
  S        0.0000040    -0.8934040    -0.0001570
  C        1.3730139     0.2885444    -0.2281373
  C       -1.4128850     0.2392870     0.2347580
  C        1.6248350     1.1731860     0.9503430
  C        2.6401330    -0.6379020    -0.4731570
  C       -1.6249850     1.1730530    -0.9504290
  C       -2.6400040    -0.6379180     0.4735190
  H        1.2307130     0.8299810    -1.1389880
  H       -1.2303680     0.8300180     1.1389060
  H        2.5085220     1.7977530     0.7780440
  H        0.7732350     1.8400660     1.1083290
  H        1.7816100     0.5938770     1.8649360
  H        3.5150250    -0.0075390    -0.6610770
  H        2.4981610    -1.2958220    -1.3346530
  H        2.8465490    -1.2576700     0.4045140
  H       -2.5085150     1.7978030    -0.7780110
  H       -0.7733120     1.8397630    -1.1087700
  H       -1.7821140     0.5936310    -1.8648980
  H       -3.5149340    -0.0075940     0.6613800
  H       -2.4978860    -1.2956150     1.3351630
  H       -2.8465220    -1.2579300    -0.4039620
units angstrom
no_reorient  #important for SAPT in psi4, default
symmetry c1  #important for SAPT in psi4, default
}

set PROPERTIES_ORIGIN ["COM"]
properties('MP2/aug-cc-pvtz', properties = ['dipole'])
--------------------------------------------------------------------------

    Molecular point group: c1
  Charge       = 0
  Multiplicity = 1
  Basis Set: AUG-CC-PVTZ
    Blend: AUG-CC-PVTZ
  Basis Set: (AUG-CC-PVTZ AUX)
    Blend: AUG-CC-PVTZ-JKFIT

    Orbital Energies [Eh]
    ---------------------

    Doubly Occupied:

       1A    -91.932419     2A    -11.256629     3A    -11.256540
       4A    -11.220844     5A    -11.219562     6A    -11.218686
       7A    -11.218686     8A     -8.933339     9A     -6.614551
      10A     -6.613509    11A     -6.612670    12A     -1.107490
      13A     -1.062341    14A     -0.937830    15A     -0.933837
      16A     -0.918928    17A     -0.802621    18A     -0.748062
      19A     -0.644102    20A     -0.626090    21A     -0.601074
      22A     -0.583098    23A     -0.559742    24A     -0.557909
      25A     -0.540871    26A     -0.540230    27A     -0.503715
      28A     -0.494452    29A     -0.491360    30A     -0.479489
      31A     -0.431767    32A     -0.413252    33A     -0.332957

  @DF-RHF Final Energy:  -632.98973670847442

   => Energetics <=

    Nuclear Repulsion Energy =            400.6575593153747263
    One-Electron Energy =               -1662.4772859519362100
    Two-Electron Energy =                 628.8299899280870022
    Total Energy =                       -632.9897367084744246
  Basis Set: (AUG-CC-PVTZ AUX)
    Blend: AUG-CC-PVTZ-RI
    Molecular point group: c1

    Geometry (in Angstrom), charge = 0, multiplicity = 1:

       Center              X                  Y                   Z               Mass
    ------------   -----------------  -----------------  -----------------  -----------------
         S            0.004055536741    -0.856606413679    -0.000823157256    31.972071174400
         C            1.377065436741     0.325341986321    -0.228803457256    12.000000000000
         C           -1.408833463259     0.276084586321     0.234091842744    12.000000000000
         C            1.628886536741     1.209983586321     0.949676842744    12.000000000000
         C            2.644184536741    -0.601104413679    -0.473823157256    12.000000000000
         C           -1.620933463259     1.209850586321    -0.951095157256    12.000000000000
         C           -2.635952463259    -0.601120413679     0.472852842744    12.000000000000
         H            1.234764536741     0.866778586321    -1.139654157256     1.007825032230
         H           -1.226316463259     0.866815586321     1.138239842744     1.007825032230
         H            2.512573536741     1.834550586321     0.777377842744     1.007825032230
         H            0.777286536741     1.876863586321     1.107662842744     1.007825032230
         H            1.785661536741     0.630674586321     1.864269842744     1.007825032230
         H            3.519076536741     0.029258586321    -0.661743157256     1.007825032230
         H            2.502212536741    -1.259024413679    -1.335319157256     1.007825032230
         H            2.850600536741    -1.220872413679     0.403847842744     1.007825032230
         H           -2.504463463259     1.834600586321    -0.778677157256     1.007825032230
         H           -0.769260463259     1.876560586321    -1.109436157256     1.007825032230
         H           -1.778062463259     0.630428586321    -1.865564157256     1.007825032230
         H           -3.510882463259     0.029203586321     0.660713842744     1.007825032230
         H           -2.493834463259    -1.258817413679     1.334496842744     1.007825032230
         H           -2.842470463259    -1.221132413679    -0.404628157256     1.007825032230

  Basis Set: AUG-CC-PVTZ
    Blend: AUG-CC-PVTZ
  Basis Set: (AUG-CC-PVTZ AUX)
    Blend: AUG-CC-PVTZ-JKFIT
	 Reference Energy          =    -632.9897367084744246 [Eh]
	 Singles Energy            =      -0.0000000000000000 [Eh]
	 Same-Spin Energy          =      -0.3136342498174796 [Eh]
	 Opposite-Spin Energy      =      -1.1133406129566086 [Eh]
	 Correlation Energy        =      -1.4269748627740881 [Eh]
	 Total Energy              =    -634.4167115712484701 [Eh]

	 ================> DF-SCS-MP2 Energies <==================
	-----------------------------------------------------------
	 SCS Same-Spin Scale       =       0.3333333333333333 [-]
	 SCS Opposite-Spin Scale   =       1.2000000000000000 [-]
	 SCS Same-Spin Energy      =      -0.1045447499391599 [Eh]
	 SCS Opposite-Spin Energy  =      -1.3360087355479302 [Eh]
	 SCS Correlation Energy    =      -1.4405534854870901 [Eh]
	 SCS Total Energy          =    -634.4302901939614685 [Eh]
	-----------------------------------------------------------

  Dipole Moment: [D]
     X:    -0.0044      Y:     1.6438      Z:     0.0146     Total:     1.6439

*** Psi4 exiting successfully. Buy a developer a beer!
