                               Psi4 1.4a3.dev225

  ==> Input File <==

--------------------------------------------------------------------------
#psi4
#
memory 32 gb

molecule  {
0 1
  S        0.0000000     0.8934800     0.0000010
  C        1.3740029    -0.2080245     0.2285324
  C       -1.4126870    -0.2390370    -0.2349660
  C        1.6243400    -1.1737610    -0.9495180
  C        2.6399800     0.6383040     0.4725320
  C       -1.6243430    -1.1737600     0.9495180
  C       -2.6399780     0.6383050    -0.4725340
  H        1.2307780    -0.8291720     1.1396710
  H       -1.2307770    -0.8291720    -1.1396700
  H        2.5077560    -1.7986080    -0.7768330
  H        0.7723960    -1.8403460    -1.1069830
  H        1.7813000    -0.5951530    -1.8645360
  H        3.5151450     0.0081170     0.6598150
  H        2.4983750     1.2961310     1.3341460
  H        2.8456130     1.2581530    -0.4052600
  H       -2.5077620    -1.7986020     0.7768320
  H       -0.7724030    -1.8403500     1.1069830
  H       -1.7813010    -0.5951510     1.8645370
  H       -3.5151410     0.0081160    -0.6598250
  H       -2.4983700     1.2961360    -1.3341440
  H       -2.8456170     1.2581490     0.4052600
units angstrom
no_reorient  #important for SAPT in psi4, default
symmetry c1  #important for SAPT in psi4, default
}

set PROPERTIES_ORIGIN ["COM"]
properties('MP2/aug-cc-pvtz', properties = ['dipole'])
--------------------------------------------------------------------------

    Molecular point group: c1
  Charge       = 0
  Multiplicity = 1
  Basis Set: AUG-CC-PVTZ
    Blend: AUG-CC-PVTZ
  Basis Set: (AUG-CC-PVTZ AUX)
    Blend: AUG-CC-PVTZ-JKFIT

    Orbital Energies [Eh]
    ---------------------

    Doubly Occupied:

       1A    -91.932783     2A    -11.258731     3A    -11.257131
       4A    -11.220137     5A    -11.220122     6A    -11.219554
       7A    -11.219462     8A     -8.934495     9A     -6.615804
      10A     -6.614764    11A     -6.613875    12A     -1.110453
      13A     -1.062643    14A     -0.938269    15A     -0.932595
      16A     -0.925177    17A     -0.801696    18A     -0.743064
      19A     -0.645644    20A     -0.625727    21A     -0.602269
      22A     -0.581487    23A     -0.562182    24A     -0.555985
      25A     -0.542006    26A     -0.539464    27A     -0.496347
      28A     -0.495074    29A     -0.487959    30A     -0.480719
      31A     -0.447439    32A     -0.412809    33A     -0.331231

  @DF-RHF Final Energy:  -632.99117127035038

   => Energetics <=

    Nuclear Repulsion Energy =            401.2523697698168803
    One-Electron Energy =               -1663.6328856469008315
    Two-Electron Energy =                 629.3893446067336299
    Total Energy =                       -632.9911712703503781
  Basis Set: (AUG-CC-PVTZ AUX)
    Blend: AUG-CC-PVTZ-RI
    Molecular point group: c1

    Geometry (in Angstrom), charge = 0, multiplicity = 1:

       Center              X                  Y                   Z               Mass
    ------------   -----------------  -----------------  -----------------  -----------------
         S            0.003931426891     0.848512517261     0.000654804391    31.972071174400
         C            1.377934326891    -0.252991982739     0.229186204391    12.000000000000
         C           -1.408755573109    -0.284004482739    -0.234312195609    12.000000000000
         C            1.628271426891    -1.218728482739    -0.948864195609    12.000000000000
         C            2.643911426891     0.593336517261     0.473185804391    12.000000000000
         C           -1.620411573109    -1.218727482739     0.950171804391    12.000000000000
         C           -2.636046573109     0.593337517261    -0.471880195609    12.000000000000
         H            1.234709426891    -0.874139482739     1.140324804391     1.007825032230
         H           -1.226845573109    -0.874139482739    -1.139016195609     1.007825032230
         H            2.511687426891    -1.843575482739    -0.776179195609     1.007825032230
         H            0.776327426891    -1.885313482739    -1.106329195609     1.007825032230
         H            1.785231426891    -0.640120482739    -1.863882195609     1.007825032230
         H            3.519076426891    -0.036850482739     0.660468804391     1.007825032230
         H            2.502306426891     1.251163517261     1.334799804391     1.007825032230
         H            2.849544426891     1.213185517261    -0.404606195609     1.007825032230
         H           -2.503830573109    -1.843569482739     0.777485804391     1.007825032230
         H           -0.768471573109    -1.885317482739     1.107636804391     1.007825032230
         H           -1.777369573109    -0.640118482739     1.865190804391     1.007825032230
         H           -3.511209573109    -0.036851482739    -0.659171195609     1.007825032230
         H           -2.494438573109     1.251168517261    -1.333490195609     1.007825032230
         H           -2.841685573109     1.213181517261     0.405913804391     1.007825032230

  Basis Set: AUG-CC-PVTZ
    Blend: AUG-CC-PVTZ
  Basis Set: (AUG-CC-PVTZ AUX)
    Blend: AUG-CC-PVTZ-JKFIT
	 Reference Energy          =    -632.9911712703503781 [Eh]
	 Singles Energy            =      -0.0000000000000000 [Eh]
	 Same-Spin Energy          =      -0.3137135840712588 [Eh]
	 Opposite-Spin Energy      =      -1.1131068650273042 [Eh]
	 Correlation Energy        =      -1.4268204490985630 [Eh]
	 Total Energy              =    -634.4179917194489917 [Eh]

	 ================> DF-SCS-MP2 Energies <==================
	-----------------------------------------------------------
	 SCS Same-Spin Scale       =       0.3333333333333333 [-]
	 SCS Opposite-Spin Scale   =       1.2000000000000000 [-]
	 SCS Same-Spin Energy      =      -0.1045711946904196 [Eh]
	 SCS Opposite-Spin Energy  =      -1.3357282380327649 [Eh]
	 SCS Correlation Energy    =      -1.4402994327231844 [Eh]
	 SCS Total Energy          =    -634.4314707030736145 [Eh]
	-----------------------------------------------------------

  Dipole Moment: [D]
     X:    -0.0856      Y:    -1.6104      Z:     0.0056     Total:     1.6126

*** Psi4 exiting successfully. Buy a developer a beer!
