                               Psi4 1.3.2 release

  ==> Input File <==

--------------------------------------------------------------------------
#psi4
#
memory 32 gb

molecule  {
0 1
  S        0.0191616    -0.8682415    -0.0040985
  C        1.4128680     0.2392510    -0.2347660
  C       -1.4128850     0.2392870     0.2347580
  C        1.6248350     1.1731860     0.9503430
  C        2.6401330    -0.6379020    -0.4731570
  C       -1.6249850     1.1730530    -0.9504290
  C       -2.6400040    -0.6379180     0.4735190
  H        1.2307130     0.8299810    -1.1389880
  H       -1.2303680     0.8300180     1.1389060
  H        2.5085220     1.7977530     0.7780440
  H        0.7732350     1.8400660     1.1083290
  H        1.7816100     0.5938770     1.8649360
  H        3.5150250    -0.0075390    -0.6610770
  H        2.4981610    -1.2958220    -1.3346530
  H        2.8465490    -1.2576700     0.4045140
  H       -2.5085150     1.7978030    -0.7780110
  H       -0.7733120     1.8397630    -1.1087700
  H       -1.7821140     0.5936310    -1.8648980
  H       -3.5149340    -0.0075940     0.6613800
  H       -2.4978860    -1.2956150     1.3351630
  H       -2.8465220    -1.2579300    -0.4039620
units angstrom
no_reorient  #important for SAPT in psi4, default
symmetry c1  #important for SAPT in psi4, default
}

set PROPERTIES_ORIGIN ["COM"]
properties('MP2/aug-cc-pvtz', properties = ['dipole'])
--------------------------------------------------------------------------

    Molecular point group: c1
  Charge       = 0
  Multiplicity = 1
  Basis Set: AUG-CC-PVTZ
    Blend: AUG-CC-PVTZ
  Basis Set: (AUG-CC-PVTZ AUX)
    Blend: AUG-CC-PVTZ-JKFIT

    Orbital Energies [Eh]
    ---------------------

    Doubly Occupied:

       1A    -91.929648     2A    -11.257954     3A    -11.255520
       4A    -11.219931     5A    -11.219672     6A    -11.219576
       7A    -11.219254     8A     -8.931327     9A     -6.612587
      10A     -6.611613    11A     -6.610718    12A     -1.110923
      13A     -1.065540    14A     -0.938696    15A     -0.935036
      16A     -0.922504    17A     -0.802528    18A     -0.744291
      19A     -0.645883    20A     -0.627987    21A     -0.604098
      22A     -0.581467    23A     -0.562326    24A     -0.556773
      25A     -0.541601    26A     -0.540964    27A     -0.497931
      28A     -0.494574    29A     -0.494394    30A     -0.483849
      31A     -0.443142    32A     -0.408196    33A     -0.329741

  @DF-RHF Final Energy:  -632.99317503101486

   => Energetics <=

    Nuclear Repulsion Energy =            401.4887937001473688
    One-Electron Energy =               -1664.1234498755493405
    Two-Electron Energy =                 629.6414811443870576
    Total Energy =                       -632.9931750310148573
  Basis Set: (AUG-CC-PVTZ AUX)
    Blend: AUG-CC-PVTZ-RI
    Molecular point group: c1

    Geometry (in Angstrom), charge = 0, multiplicity = 1:

       Center              X                  Y                   Z               Mass
    ------------   -----------------  -----------------  -----------------  -----------------
         S            0.013975819911    -0.833247551180    -0.003023807870    31.972071174400
         C            1.407682219911     0.274244948820    -0.233691307870    12.000000000000
         C           -1.418070780089     0.274280948820     0.235832692130    12.000000000000
         C            1.619649219911     1.208179948820     0.951417692130    12.000000000000
         C            2.634947219911    -0.602908051180    -0.472082307870    12.000000000000
         C           -1.630170780089     1.208046948820    -0.949354307870    12.000000000000
         C           -2.645189780089    -0.602924051180     0.474593692130    12.000000000000
         H            1.225527219911     0.864974948820    -1.137913307870     1.007825032230
         H           -1.235553780089     0.865011948820     1.139980692130     1.007825032230
         H            2.503336219911     1.832746948820     0.779118692130     1.007825032230
         H            0.768049219911     1.875059948820     1.109403692130     1.007825032230
         H            1.776424219911     0.628870948820     1.866010692130     1.007825032230
         H            3.509839219911     0.027454948820    -0.660002307870     1.007825032230
         H            2.492975219911    -1.260828051180    -1.333578307870     1.007825032230
         H            2.841363219911    -1.222676051180     0.405588692130     1.007825032230
         H           -2.513700780089     1.832796948820    -0.776936307870     1.007825032230
         H           -0.778497780089     1.874756948820    -1.107695307870     1.007825032230
         H           -1.787299780089     0.628624948820    -1.863823307870     1.007825032230
         H           -3.520119780089     0.027399948820     0.662454692130     1.007825032230
         H           -2.503071780089    -1.260621051180     1.336237692130     1.007825032230
         H           -2.851707780089    -1.222936051180    -0.402887307870     1.007825032230

  Basis Set: AUG-CC-PVTZ
    Blend: AUG-CC-PVTZ
  Basis Set: (AUG-CC-PVTZ AUX)
    Blend: AUG-CC-PVTZ-JKFIT
	 Reference Energy          =    -632.9931750310148573 [Eh]
	 Singles Energy            =      -0.0000000000000000 [Eh]
	 Same-Spin Energy          =      -0.3137308279978290 [Eh]
	 Opposite-Spin Energy      =      -1.1128018962306290 [Eh]
	 Correlation Energy        =      -1.4265327242284580 [Eh]
	 Total Energy              =    -634.4197077552432802 [Eh]

	 ================> DF-SCS-MP2 Energies <==================
	-----------------------------------------------------------
	 SCS Same-Spin Scale       =       0.3333333333333333 [-]
	 SCS Opposite-Spin Scale   =       1.2000000000000000 [-]
	 SCS Same-Spin Energy      =      -0.1045769426659430 [Eh]
	 SCS Opposite-Spin Energy  =      -1.3353622754767547 [Eh]
	 SCS Correlation Energy    =      -1.4399392181426978 [Eh]
	 SCS Total Energy          =    -634.4331142491575974 [Eh]
	-----------------------------------------------------------

  Dipole Moment: [D]
     X:    -0.0209      Y:     1.6417      Z:     0.0002     Total:     1.6418

*** Psi4 exiting successfully. Buy a developer a beer!
