                               Psi4 1.4a3.dev225

  ==> Input File <==

--------------------------------------------------------------------------
#psi4
#
memory 32 gb

molecule  {
0 1
  S        0.0000000     0.8934800     0.0000010
  C        1.3972151    -0.2266332     0.2323931
  C       -1.4126870    -0.2390370    -0.2349660
  C        1.6243400    -1.1737610    -0.9495180
  C        2.6399800     0.6383040     0.4725320
  C       -1.6243430    -1.1737600     0.9495180
  C       -2.6399780     0.6383050    -0.4725340
  H        1.2307780    -0.8291720     1.1396710
  H       -1.2307770    -0.8291720    -1.1396700
  H        2.5077560    -1.7986080    -0.7768330
  H        0.7723960    -1.8403460    -1.1069830
  H        1.7813000    -0.5951530    -1.8645360
  H        3.5151450     0.0081170     0.6598150
  H        2.4983750     1.2961310     1.3341460
  H        2.8456130     1.2581530    -0.4052600
  H       -2.5077620    -1.7986020     0.7768320
  H       -0.7724030    -1.8403500     1.1069830
  H       -1.7813010    -0.5951510     1.8645370
  H       -3.5151410     0.0081160    -0.6598250
  H       -2.4983700     1.2961360    -1.3341440
  H       -2.8456170     1.2581490     0.4052600
units angstrom
no_reorient  #important for SAPT in psi4, default
symmetry c1  #important for SAPT in psi4, default
}

set PROPERTIES_ORIGIN ["COM"]
properties('MP2/aug-cc-pvtz', properties = ['dipole'])
--------------------------------------------------------------------------

    Molecular point group: c1
  Charge       = 0
  Multiplicity = 1
  Basis Set: AUG-CC-PVTZ
    Blend: AUG-CC-PVTZ
  Basis Set: (AUG-CC-PVTZ AUX)
    Blend: AUG-CC-PVTZ-JKFIT

    Orbital Energies [Eh]
    ---------------------

    Doubly Occupied:

       1A    -91.931989     2A    -11.258132     3A    -11.257382
       4A    -11.219889     5A    -11.219631     6A    -11.219573
       7A    -11.219321     8A     -8.933296     9A     -6.614544
      10A     -6.613546    11A     -6.612672    12A     -1.108916
      13A     -1.063854    14A     -0.938319    15A     -0.934119
      16A     -0.922257    17A     -0.801128    18A     -0.744555
      19A     -0.644937    20A     -0.626807    21A     -0.603008
      22A     -0.581545    23A     -0.562107    24A     -0.556263
      25A     -0.541597    26A     -0.540378    27A     -0.496871
      28A     -0.494444    29A     -0.491481    30A     -0.482502
      31A     -0.442141    32A     -0.411452    33A     -0.331283

  @DF-RHF Final Energy:  -632.99303777158138

   => Energetics <=

    Nuclear Repulsion Energy =            400.8741235915701395
    One-Electron Energy =               -1662.8944489315326791
    Two-Electron Energy =                 629.0272875683810980
    Total Energy =                       -632.9930377715813847
  Basis Set: (AUG-CC-PVTZ AUX)
    Blend: AUG-CC-PVTZ-RI
    Molecular point group: c1

    Geometry (in Angstrom), charge = 0, multiplicity = 1:

       Center              X                  Y                   Z               Mass
    ------------   -----------------  -----------------  -----------------  -----------------
         S            0.001572495872     0.850403619338     0.000262462218    31.972071174400
         C            1.398787595872    -0.269709580662     0.232654562218    12.000000000000
         C           -1.411114504128    -0.282113380662    -0.234704537782    12.000000000000
         C            1.625912495872    -1.216837380662    -0.949256537782    12.000000000000
         C            2.641552495872     0.595227619338     0.472793462218    12.000000000000
         C           -1.622770504128    -1.216836380662     0.949779462218    12.000000000000
         C           -2.638405504128     0.595228619338    -0.472272537782    12.000000000000
         H            1.232350495872    -0.872248380662     1.139932462218     1.007825032230
         H           -1.229204504128    -0.872248380662    -1.139408537782     1.007825032230
         H            2.509328495872    -1.841684380662    -0.776571537782     1.007825032230
         H            0.773968495872    -1.883422380662    -1.106721537782     1.007825032230
         H            1.782872495872    -0.638229380662    -1.864274537782     1.007825032230
         H            3.516717495872    -0.034959380662     0.660076462218     1.007825032230
         H            2.499947495872     1.253054619338     1.334407462218     1.007825032230
         H            2.847185495872     1.215076619338    -0.404998537782     1.007825032230
         H           -2.506189504128    -1.841678380662     0.777093462218     1.007825032230
         H           -0.770830504128    -1.883426380662     1.107244462218     1.007825032230
         H           -1.779728504128    -0.638227380662     1.864798462218     1.007825032230
         H           -3.513568504128    -0.034960380662    -0.659563537782     1.007825032230
         H           -2.496797504128     1.253059619338    -1.333882537782     1.007825032230
         H           -2.844044504128     1.215072619338     0.405521462218     1.007825032230

  Basis Set: AUG-CC-PVTZ
    Blend: AUG-CC-PVTZ
  Basis Set: (AUG-CC-PVTZ AUX)
    Blend: AUG-CC-PVTZ-JKFIT
	 Reference Energy          =    -632.9930377715813847 [Eh]
	 Singles Energy            =      -0.0000000000000000 [Eh]
	 Same-Spin Energy          =      -0.3135791947943872 [Eh]
	 Opposite-Spin Energy      =      -1.1129531005195465 [Eh]
	 Correlation Energy        =      -1.4265322953139337 [Eh]
	 Total Energy              =    -634.4195700668952895 [Eh]

	 ================> DF-SCS-MP2 Energies <==================
	-----------------------------------------------------------
	 SCS Same-Spin Scale       =       0.3333333333333333 [-]
	 SCS Opposite-Spin Scale   =       1.2000000000000000 [-]
	 SCS Same-Spin Energy      =      -0.1045263982647957 [Eh]
	 SCS Opposite-Spin Energy  =      -1.3355437206234557 [Eh]
	 SCS Correlation Energy    =      -1.4400701188882514 [Eh]
	 SCS Total Energy          =    -634.4331078904696142 [Eh]
	-----------------------------------------------------------

  Dipole Moment: [D]
     X:    -0.0355      Y:    -1.6354      Z:     0.0023     Total:     1.6358

*** Psi4 exiting successfully. Buy a developer a beer!
