                               Psi4 1.3.2 release

  ==> Input File <==

--------------------------------------------------------------------------
#psi4
#
memory 32 gb

molecule  {
0 1
  S        0.0742030    -0.8177104     0.1588955
  C        1.4128680     0.2392510    -0.2347660
  C       -1.4128850     0.2392870     0.2347580
  C        1.6248350     1.1731860     0.9503430
  C        2.6401330    -0.6379020    -0.4731570
  C       -1.6249850     1.1730530    -0.9504290
  C       -2.6400040    -0.6379180     0.4735190
  H        1.2307130     0.8299810    -1.1389880
  H       -1.2303680     0.8300180     1.1389060
  H        2.5085220     1.7977530     0.7780440
  H        0.7732350     1.8400660     1.1083290
  H        1.7816100     0.5938770     1.8649360
  H        3.5150250    -0.0075390    -0.6610770
  H        2.4981610    -1.2958220    -1.3346530
  H        2.8465490    -1.2576700     0.4045140
  H       -2.5085150     1.7978030    -0.7780110
  H       -0.7733120     1.8397630    -1.1087700
  H       -1.7821140     0.5936310    -1.8648980
  H       -3.5149340    -0.0075940     0.6613800
  H       -2.4978860    -1.2956150     1.3351630
  H       -2.8465220    -1.2579300    -0.4039620
units angstrom
no_reorient  #important for SAPT in psi4, default
symmetry c1  #important for SAPT in psi4, default
}

set PROPERTIES_ORIGIN ["COM"]
properties('MP2/aug-cc-pvtz', properties = ['dipole'])
--------------------------------------------------------------------------

    Molecular point group: c1
  Charge       = 0
  Multiplicity = 1
  Basis Set: AUG-CC-PVTZ
    Blend: AUG-CC-PVTZ
  Basis Set: (AUG-CC-PVTZ AUX)
    Blend: AUG-CC-PVTZ-JKFIT

    Orbital Energies [Eh]
    ---------------------

    Doubly Occupied:

       1A    -91.926607     2A    -11.258038     3A    -11.252386
       4A    -11.222038     5A    -11.220896     6A    -11.220235
       7A    -11.216170     8A     -8.929392     9A     -6.610731
      10A     -6.609724    11A     -6.608776    12A     -1.116481
      13A     -1.066823    14A     -0.938926    15A     -0.935886
      16A     -0.924537    17A     -0.805385    18A     -0.743186
      19A     -0.647763    20A     -0.628776    21A     -0.604488
      22A     -0.581450    23A     -0.562995    24A     -0.557114
      25A     -0.541970    26A     -0.541255    27A     -0.498341
      28A     -0.495916    29A     -0.494900    30A     -0.484934
      31A     -0.448194    32A     -0.406209    33A     -0.325170

  @DF-RHF Final Energy:  -632.98709030264251

   => Energetics <=

    Nuclear Repulsion Energy =            402.9257983562048935
    One-Electron Energy =               -1666.9743970642493878
    Two-Electron Energy =                 631.0615084054019235
    Total Energy =                       -632.9870903026425140
  Basis Set: (AUG-CC-PVTZ AUX)
    Blend: AUG-CC-PVTZ-RI
    Molecular point group: c1

    Geometry (in Angstrom), charge = 0, multiplicity = 1:

       Center              X                  Y                   Z               Mass
    ------------   -----------------  -----------------  -----------------  -----------------
         S            0.054114074662    -0.796398376474     0.115837534590    31.972071174400
         C            1.392779074662     0.260563023526    -0.277823965410    12.000000000000
         C           -1.432973925338     0.260599023526     0.191700034590    12.000000000000
         C            1.604746074662     1.194498023526     0.907285034590    12.000000000000
         C            2.620044074662    -0.616589976474    -0.516214965410    12.000000000000
         C           -1.645073925338     1.194365023526    -0.993486965410    12.000000000000
         C           -2.660092925338    -0.616605976474     0.430461034590    12.000000000000
         H            1.210624074662     0.851293023526    -1.182045965410     1.007825032230
         H           -1.250456925338     0.851330023526     1.095848034590     1.007825032230
         H            2.488433074662     1.819065023526     0.734986034590     1.007825032230
         H            0.753146074662     1.861378023526     1.065271034590     1.007825032230
         H            1.761521074662     0.615189023526     1.821878034590     1.007825032230
         H            3.494936074662     0.013773023526    -0.704134965410     1.007825032230
         H            2.478072074662    -1.274509976474    -1.377710965410     1.007825032230
         H            2.826460074662    -1.236357976474     0.361456034590     1.007825032230
         H           -2.528603925338     1.819115023526    -0.821068965410     1.007825032230
         H           -0.793400925338     1.861075023526    -1.151827965410     1.007825032230
         H           -1.802202925338     0.614943023526    -1.907955965410     1.007825032230
         H           -3.535022925338     0.013718023526     0.618322034590     1.007825032230
         H           -2.517974925338    -1.274302976474     1.292105034590     1.007825032230
         H           -2.866610925338    -1.236617976474    -0.447019965410     1.007825032230

  Basis Set: AUG-CC-PVTZ
    Blend: AUG-CC-PVTZ
  Basis Set: (AUG-CC-PVTZ AUX)
    Blend: AUG-CC-PVTZ-JKFIT
	 Reference Energy          =    -632.9870903026425140 [Eh]
	 Singles Energy            =      -0.0000000000000000 [Eh]
	 Same-Spin Energy          =      -0.3142723659476834 [Eh]
	 Opposite-Spin Energy      =      -1.1130892889410677 [Eh]
	 Correlation Energy        =      -1.4273616548887511 [Eh]
	 Total Energy              =    -634.4144519575312415 [Eh]

	 ================> DF-SCS-MP2 Energies <==================
	-----------------------------------------------------------
	 SCS Same-Spin Scale       =       0.3333333333333333 [-]
	 SCS Opposite-Spin Scale   =       1.2000000000000000 [-]
	 SCS Same-Spin Energy      =      -0.1047574553158945 [Eh]
	 SCS Opposite-Spin Energy  =      -1.3357071467292811 [Eh]
	 SCS Correlation Energy    =      -1.4404646020451757 [Eh]
	 SCS Total Energy          =    -634.4275549046876677 [Eh]
	-----------------------------------------------------------

  Dipole Moment: [D]
     X:    -0.1086      Y:     1.6202      Z:    -0.1926     Total:     1.6353

*** Psi4 exiting successfully. Buy a developer a beer!
