                               Psi4 1.3.2 release

  ==> Input File <==

--------------------------------------------------------------------------
#psi4
#
memory 32 gb

molecule  {
0 1
  I        0.7585800    -0.9966380     1.7928310
  I       -1.9705740    -0.8044580    -0.5026980
  I        1.3755120    -0.3474320    -1.6644050
  I       -0.1635160     2.1485290     0.3742730
  C        0.0346676    -0.0455813     0.0819707
units angstrom
no_reorient  #important for SAPT in psi4, default
symmetry c1  #important for SAPT in psi4, default
}

set PROPERTIES_ORIGIN ["COM"]

basis mybas {
    assign aug-cc-pvtz
    assign I aug-cc-pvtz-pp
}
properties('MP2/mybas', properties = ['dipole'])
--------------------------------------------------------------------------

    Molecular point group: c1
  Charge       = 0
  Multiplicity = 1
  Basis Set: MYBAS
    Blend: AUG-CC-PVTZ + AUG-CC-PVTZ-PP
  Basis Set: (MYBAS AUX)
    Blend: AUG-CC-PVTZ-JKFIT + DEF2-QZVPP-JKFIT

    Orbital Energies [Eh]
    ---------------------

    Doubly Occupied:

       1A    -11.429650     2A     -7.751990     3A     -7.744943
       4A     -7.744942     5A     -7.744939     6A     -5.585235
       7A     -5.578128     8A     -5.578126     9A     -5.578121
      10A     -5.573179    11A     -5.573179    12A     -5.565990
      13A     -5.565989    14A     -5.565984    15A     -5.565979
      16A     -5.565974    17A     -5.565973    18A     -2.315380
      19A     -2.309333    20A     -2.309333    21A     -2.307588
      22A     -2.307381    23A     -2.307379    24A     -2.302134
      25A     -2.302133    26A     -2.302130    27A     -2.302065
      28A     -2.302065    29A     -2.302026    30A     -2.296002
      31A     -2.296002    32A     -2.288647    33A     -2.288646
      34A     -2.288641    35A     -2.288635    36A     -2.288634
      37A     -2.288632    38A     -1.053989    39A     -0.914442
      40A     -0.900627    41A     -0.900625    42A     -0.737877
      43A     -0.529025    44A     -0.520519    45A     -0.520518
      46A     -0.419315    47A     -0.419315    48A     -0.392040
      49A     -0.378640    50A     -0.378637    51A     -0.362665
      52A     -0.362664    53A     -0.360331

  @DF-RHF Final Energy: -1216.46701999681841

   => Energetics <=

    Nuclear Repulsion Energy =            700.8323701201637732
    One-Electron Energy =               -3505.7541144318552142
    Two-Electron Energy =                1588.4547243148729194
    Total Energy =                      -1216.4670199968184079
  Basis Set: (MYBAS AUX)
    Blend: AUG-CC-PVTZ-RI + DEF2-QZVPP-RI
    Molecular point group: c1

    Geometry (in Angstrom), charge = 0, multiplicity = 1:

       Center              X                  Y                   Z               Mass
    ------------   -----------------  -----------------  -----------------  -----------------
         I            0.757778901695    -0.995585594553     1.790937733182   126.904471900000
         I           -1.971375098305    -0.803405594553    -0.504591266818   126.904471900000
         I            1.374710901695    -0.346379594553    -1.666298266818   126.904471900000
         I           -0.164317098305     2.149581405447     0.372379733182   126.904471900000
         C            0.033866501695    -0.044528894553     0.080077433182    12.000000000000

  Basis Set: MYBAS
    Blend: AUG-CC-PVTZ + AUG-CC-PVTZ-PP
  Basis Set: (MYBAS AUX)
    Blend: AUG-CC-PVTZ-JKFIT + DEF2-QZVPP-JKFIT
	 Reference Energy          =   -1216.4670199968184079 [Eh]
	 Singles Energy            =      -0.0000000000000000 [Eh]
	 Same-Spin Energy          =      -0.3600517006322080 [Eh]
	 Opposite-Spin Energy      =      -0.8384027106935592 [Eh]
	 Correlation Energy        =      -1.1984544113257671 [Eh]
	 Total Energy              =   -1217.6654744081440640 [Eh]

	 ================> DF-SCS-MP2 Energies <==================
	-----------------------------------------------------------
	 SCS Same-Spin Scale       =       0.3333333333333333 [-]
	 SCS Opposite-Spin Scale   =       1.2000000000000000 [-]
	 SCS Same-Spin Energy      =      -0.1200172335440693 [Eh]
	 SCS Opposite-Spin Energy  =      -1.0060832528322710 [Eh]
	 SCS Correlation Energy    =      -1.1261004863763402 [Eh]
	 SCS Total Energy          =   -1217.5931204831947525 [Eh]
	-----------------------------------------------------------

  Dipole Moment: [D]
     X:     0.1029      Y:    -0.1353      Z:     0.2433     Total:     0.2968

*** Psi4 exiting successfully. Buy a developer a beer!
