                               Psi4 1.3.2 release

  ==> Input File <==

--------------------------------------------------------------------------
#psi4
#
memory 32 gb

molecule  {
0 1
  I        0.8217013    -0.9539550     1.7882247
  I       -1.9705740    -0.8044580    -0.5026980
  I        1.3755120    -0.3474320    -1.6644050
  I       -0.1635160     2.1485290     0.3742730
  C       -0.0000190    -0.0000110    -0.0000060
units angstrom
no_reorient  #important for SAPT in psi4, default
symmetry c1  #important for SAPT in psi4, default
}

set PROPERTIES_ORIGIN ["COM"]

basis mybas {
    assign aug-cc-pvtz
    assign I aug-cc-pvtz-pp
}
properties('MP2/mybas', properties = ['dipole'])
--------------------------------------------------------------------------

    Molecular point group: c1
  Charge       = 0
  Multiplicity = 1
  Basis Set: MYBAS
    Blend: AUG-CC-PVTZ + AUG-CC-PVTZ-PP
  Basis Set: (MYBAS AUX)
    Blend: AUG-CC-PVTZ-JKFIT + DEF2-QZVPP-JKFIT

    Orbital Energies [Eh]
    ---------------------

    Doubly Occupied:

       1A    -11.429201     2A     -7.747555     3A     -7.746683
       4A     -7.746246     5A     -7.746244     6A     -5.580771
       7A     -5.579887     8A     -5.579442     9A     -5.579438
      10A     -5.568628    11A     -5.568597    12A     -5.567774
      13A     -5.567731    14A     -5.567333    15A     -5.567329
      16A     -5.567316    17A     -5.567313    18A     -2.310284
      19A     -2.309412    20A     -2.308986    21A     -2.308869
      22A     -2.304761    23A     -2.304733    24A     -2.303901
      25A     -2.303868    26A     -2.303491    27A     -2.303439
      28A     -2.303427    29A     -2.303403    30A     -2.291281
      31A     -2.291280    32A     -2.290441    33A     -2.290437
      34A     -2.290025    35A     -2.290021    36A     -2.290019
      37A     -2.290016    38A     -1.051831    39A     -0.906835
      40A     -0.905135    41A     -0.903961    42A     -0.738034
      43A     -0.523895    44A     -0.522566    45A     -0.521505
      46A     -0.420778    47A     -0.418250    48A     -0.385283
      49A     -0.383148    50A     -0.382436    51A     -0.362733
      52A     -0.362086    53A     -0.361124

  @DF-RHF Final Energy: -1216.47031943505817

   => Energetics <=

    Nuclear Repulsion Energy =            700.8771147939360162
    One-Electron Energy =               -3505.8565093014281047
    Two-Electron Energy =                1588.5090750724339159
    Total Energy =                      -1216.4703194350581725
  Basis Set: (MYBAS AUX)
    Blend: AUG-CC-PVTZ-RI + DEF2-QZVPP-RI
    Molecular point group: c1

    Geometry (in Angstrom), charge = 0, multiplicity = 1:

       Center              X                  Y                   Z               Mass
    ------------   -----------------  -----------------  -----------------  -----------------
         I            0.806285354471    -0.964379311033     1.789349574987   126.904471900000
         I           -1.985989945529    -0.814882311033    -0.501573125013   126.904471900000
         I            1.360096054471    -0.357856311033    -1.663280125013   126.904471900000
         I           -0.178931945529     2.138104688967     0.375397874987   126.904471900000
         C           -0.015434945529    -0.010435311033     0.001118874987    12.000000000000

  Basis Set: MYBAS
    Blend: AUG-CC-PVTZ + AUG-CC-PVTZ-PP
  Basis Set: (MYBAS AUX)
    Blend: AUG-CC-PVTZ-JKFIT + DEF2-QZVPP-JKFIT
	 Reference Energy          =   -1216.4703194350581725 [Eh]
	 Singles Energy            =      -0.0000000000000000 [Eh]
	 Same-Spin Energy          =      -0.3597856801220420 [Eh]
	 Opposite-Spin Energy      =      -0.8379910709355172 [Eh]
	 Correlation Energy        =      -1.1977767510575592 [Eh]
	 Total Energy              =   -1217.6680961861156902 [Eh]

	 ================> DF-SCS-MP2 Energies <==================
	-----------------------------------------------------------
	 SCS Same-Spin Scale       =       0.3333333333333333 [-]
	 SCS Opposite-Spin Scale   =       1.2000000000000000 [-]
	 SCS Same-Spin Energy      =      -0.1199285600406807 [Eh]
	 SCS Opposite-Spin Energy  =      -1.0055892851226205 [Eh]
	 SCS Correlation Energy    =      -1.1255178451633012 [Eh]
	 SCS Total Energy          =   -1217.5958372802215308 [Eh]
	-----------------------------------------------------------

  Dipole Moment: [D]
     X:    -0.0069      Y:    -0.0044      Z:     0.0001     Total:     0.0082

*** Psi4 exiting successfully. Buy a developer a beer!
