                               Psi4 1.3.2 release

  ==> Input File <==

--------------------------------------------------------------------------
#psi4
#
memory 32 gb

molecule  {
0 1
  I        0.7266679    -1.0175273     1.7943153
  I       -1.9705740    -0.8044580    -0.5026980
  I        1.3755120    -0.3474320    -1.6644050
  I       -0.1635160     2.1485290     0.3742730
  C       -0.0000190    -0.0000110    -0.0000060
units angstrom
no_reorient  #important for SAPT in psi4, default
symmetry c1  #important for SAPT in psi4, default
}

set PROPERTIES_ORIGIN ["COM"]

basis mybas {
    assign aug-cc-pvtz
    assign I aug-cc-pvtz-pp
}
properties('MP2/mybas', properties = ['dipole'])
--------------------------------------------------------------------------

    Molecular point group: c1
  Charge       = 0
  Multiplicity = 1
  Basis Set: MYBAS
    Blend: AUG-CC-PVTZ + AUG-CC-PVTZ-PP
  Basis Set: (MYBAS AUX)
    Blend: AUG-CC-PVTZ-JKFIT + DEF2-QZVPP-JKFIT

    Orbital Energies [Eh]
    ---------------------

    Doubly Occupied:

       1A    -11.429219     2A     -7.746901     3A     -7.746899
       4A     -7.746683     5A     -7.746250     6A     -5.580106
       7A     -5.580102     8A     -5.579885     9A     -5.579445
      10A     -5.567974    11A     -5.567970    12A     -5.567966
      13A     -5.567962    14A     -5.567765    15A     -5.567743
      16A     -5.567336    17A     -5.567320    18A     -2.309737
      19A     -2.309530    20A     -2.309358    21A     -2.308927
      22A     -2.304132    23A     -2.304105    24A     -2.304101
      25A     -2.304055    26A     -2.303877    27A     -2.303872
      28A     -2.303451    29A     -2.303435    30A     -2.290655
      31A     -2.290652    32A     -2.290650    33A     -2.290646
      34A     -2.290442    35A     -2.290441    36A     -2.290026
      37A     -2.290025    38A     -1.051809    39A     -0.905998
      40A     -0.905405    41A     -0.904539    42A     -0.738026
      43A     -0.523232    44A     -0.522706    45A     -0.522035
      46A     -0.420132    47A     -0.418847    48A     -0.384173
      49A     -0.383806    50A     -0.382775    51A     -0.362513
      52A     -0.362056    53A     -0.361575

  @DF-RHF Final Energy: -1216.47048329207610

   => Energetics <=

    Nuclear Repulsion Energy =            700.8377192337002271
    One-Electron Energy =               -3505.7778580456533746
    Two-Electron Energy =                1588.4696555198770511
    Total Energy =                      -1216.4704832920760964
  Basis Set: (MYBAS AUX)
    Blend: AUG-CC-PVTZ-RI + DEF2-QZVPP-RI
    Molecular point group: c1

    Geometry (in Angstrom), charge = 0, multiplicity = 1:

       Center              X                  Y                   Z               Mass
    ------------   -----------------  -----------------  -----------------  -----------------
         I            0.734461631674    -1.012425569009     1.793952688903   126.904471900000
         I           -1.962780268326    -0.799356269009    -0.503060611097   126.904471900000
         I            1.383305731674    -0.342330269009    -1.664767611097   126.904471900000
         I           -0.155722268326     2.153630730991     0.373910388903   126.904471900000
         C            0.007774731674     0.005090730991    -0.000368611097    12.000000000000

  Basis Set: MYBAS
    Blend: AUG-CC-PVTZ + AUG-CC-PVTZ-PP
  Basis Set: (MYBAS AUX)
    Blend: AUG-CC-PVTZ-JKFIT + DEF2-QZVPP-JKFIT
	 Reference Energy          =   -1216.4704832920760964 [Eh]
	 Singles Energy            =      -0.0000000000000000 [Eh]
	 Same-Spin Energy          =      -0.3597732282582304 [Eh]
	 Opposite-Spin Energy      =      -0.8379721538963187 [Eh]
	 Correlation Energy        =      -1.1977453821545492 [Eh]
	 Total Energy              =   -1217.6682286742307042 [Eh]

	 ================> DF-SCS-MP2 Energies <==================
	-----------------------------------------------------------
	 SCS Same-Spin Scale       =       0.3333333333333333 [-]
	 SCS Opposite-Spin Scale   =       1.2000000000000000 [-]
	 SCS Same-Spin Energy      =      -0.1199244094194101 [Eh]
	 SCS Opposite-Spin Energy  =      -1.0055665846755824 [Eh]
	 SCS Correlation Energy    =      -1.1254909940949924 [Eh]
	 SCS Total Energy          =   -1217.5959742861709856 [Eh]
	-----------------------------------------------------------

  Dipole Moment: [D]
     X:     0.0032      Y:     0.0022      Z:    -0.0003     Total:     0.0039

*** Psi4 exiting successfully. Buy a developer a beer!
