                               Psi4 1.3.2 release

  ==> Input File <==

--------------------------------------------------------------------------
#psi4
#
memory 32 gb

molecule  {
0 1
  I        0.7585800    -0.9966380     1.7928310
  I       -1.9705740    -0.8044580    -0.5026980
  I        1.3755120    -0.3474320    -1.6644050
  I       -0.1635160     2.1485290     0.3742730
  C       -0.0000190    -0.0000110    -0.0000060
units angstrom
no_reorient  #important for SAPT in psi4, default
symmetry c1  #important for SAPT in psi4, default
}

set PROPERTIES_ORIGIN ["COM"]

basis mybas {
    assign aug-cc-pvtz
    assign I aug-cc-pvtz-pp
}
properties('MP2/mybas', properties = ['dipole'])
--------------------------------------------------------------------------

    Molecular point group: c1
  Charge       = 0
  Multiplicity = 1
  Basis Set: MYBAS
    Blend: AUG-CC-PVTZ + AUG-CC-PVTZ-PP
  Basis Set: (MYBAS AUX)
    Blend: AUG-CC-PVTZ-JKFIT + DEF2-QZVPP-JKFIT

    Orbital Energies [Eh]
    ---------------------

    Doubly Occupied:

       1A    -11.429226     2A     -7.746686     3A     -7.746684
       4A     -7.746684     5A     -7.746681     6A     -5.579888
       7A     -5.579887     8A     -5.579886     9A     -5.579879
      10A     -5.567759    11A     -5.567759    12A     -5.567759
      13A     -5.567755    14A     -5.567755    15A     -5.567752
      16A     -5.567752    17A     -5.567751    18A     -2.309617
      19A     -2.309313    20A     -2.309311    21A     -2.309311
      22A     -2.303932    23A     -2.303932    24A     -2.303908
      25A     -2.303908    26A     -2.303907    27A     -2.303814
      28A     -2.303814    29A     -2.303814    30A     -2.290448
      31A     -2.290448    32A     -2.290447    33A     -2.290447
      34A     -2.290446    35A     -2.290436    36A     -2.290436
      37A     -2.290435    38A     -1.051802    39A     -0.905317
      40A     -0.905315    41A     -0.905314    42A     -0.738024
      43A     -0.522660    44A     -0.522658    45A     -0.522658
      46A     -0.419481    47A     -0.419480    48A     -0.383574
      49A     -0.383571    50A     -0.383571    51A     -0.362072
      52A     -0.362071    53A     -0.362071

  @DF-RHF Final Energy: -1216.47053916943855

   => Energetics <=

    Nuclear Repulsion Energy =            700.8244812432905064
    One-Electron Energy =               -3505.7514335358232529
    Two-Electron Energy =                1588.4564131230943076
    Total Energy =                      -1216.4705391694385526
  Basis Set: (MYBAS AUX)
    Blend: AUG-CC-PVTZ-RI + DEF2-QZVPP-RI
    Molecular point group: c1

    Geometry (in Angstrom), charge = 0, multiplicity = 1:

       Center              X                  Y                   Z               Mass
    ------------   -----------------  -----------------  -----------------  -----------------
         I            0.758579950331    -0.996637990194     1.792830894337   126.904471900000
         I           -1.970574049669    -0.804457990194    -0.502698105663   126.904471900000
         I            1.375511950331    -0.347431990194    -1.664405105663   126.904471900000
         I           -0.163516049669     2.148529009806     0.374272894337   126.904471900000
         C           -0.000019049669    -0.000010990194    -0.000006105663    12.000000000000

  Basis Set: MYBAS
    Blend: AUG-CC-PVTZ + AUG-CC-PVTZ-PP
  Basis Set: (MYBAS AUX)
    Blend: AUG-CC-PVTZ-JKFIT + DEF2-QZVPP-JKFIT
	 Reference Energy          =   -1216.4705391694385526 [Eh]
	 Singles Energy            =      -0.0000000000000000 [Eh]
	 Same-Spin Energy          =      -0.3597689974572631 [Eh]
	 Opposite-Spin Energy      =      -0.8379657382180479 [Eh]
	 Correlation Energy        =      -1.1977347356753110 [Eh]
	 Total Energy              =   -1217.6682739051138924 [Eh]

	 ================> DF-SCS-MP2 Energies <==================
	-----------------------------------------------------------
	 SCS Same-Spin Scale       =       0.3333333333333333 [-]
	 SCS Opposite-Spin Scale   =       1.2000000000000000 [-]
	 SCS Same-Spin Energy      =      -0.1199229991524210 [Eh]
	 SCS Opposite-Spin Energy  =      -1.0055588858616573 [Eh]
	 SCS Correlation Energy    =      -1.1254818850140784 [Eh]
	 SCS Total Energy          =   -1217.5960210544526490 [Eh]
	-----------------------------------------------------------

  Dipole Moment: [D]
     X:    -0.0000      Y:    -0.0000      Z:    -0.0000     Total:     0.0001

*** Psi4 exiting successfully. Buy a developer a beer!
