                               Psi4 1.3.2 release

  ==> Input File <==

--------------------------------------------------------------------------
#psi4
#
memory 32 gb

molecule  {
0 1
  I        0.7585800    -0.9966380     1.7928310
  I       -1.9705740    -0.8044580    -0.5026980
  I        1.3755120    -0.3474320    -1.6644050
  I       -0.1635160     2.1485290     0.3742730
  C       -0.0347056     0.0455593    -0.0819827
units angstrom
no_reorient  #important for SAPT in psi4, default
symmetry c1  #important for SAPT in psi4, default
}

set PROPERTIES_ORIGIN ["COM"]

basis mybas {
    assign aug-cc-pvtz
    assign I aug-cc-pvtz-pp
}
properties('MP2/mybas', properties = ['dipole'])
--------------------------------------------------------------------------

    Molecular point group: c1
  Charge       = 0
  Multiplicity = 1
  Basis Set: MYBAS
    Blend: AUG-CC-PVTZ + AUG-CC-PVTZ-PP
  Basis Set: (MYBAS AUX)
    Blend: AUG-CC-PVTZ-JKFIT + DEF2-QZVPP-JKFIT

    Orbital Energies [Eh]
    ---------------------

    Doubly Occupied:

       1A    -11.429782     2A     -7.748749     3A     -7.748748
       4A     -7.748745     5A     -7.740571     6A     -5.581991
       7A     -5.581990     8A     -5.581985     9A     -5.573637
      10A     -5.569838    11A     -5.569835    12A     -5.569834
      13A     -5.569833    14A     -5.569832    15A     -5.569829
      16A     -5.561621    17A     -5.561621    18A     -2.311838
      19A     -2.311587    20A     -2.311586    21A     -2.306039
      22A     -2.306039    23A     -2.306029    24A     -2.305974
      25A     -2.305974    26A     -2.305927    27A     -2.302686
      28A     -2.297609    29A     -2.297609    30A     -2.292543
      31A     -2.292540    32A     -2.292540    33A     -2.292535
      34A     -2.292535    35A     -2.292529    36A     -2.284298
      37A     -2.284298    38A     -1.053417    39A     -0.910227
      40A     -0.910224    41A     -0.895533    42A     -0.738037
      43A     -0.526473    44A     -0.526471    45A     -0.516968
      46A     -0.419351    47A     -0.419350    48A     -0.388030
      49A     -0.388027    50A     -0.373570    51A     -0.364034
      52A     -0.360761    53A     -0.360760

  @DF-RHF Final Energy: -1216.46769868244678

   => Energetics <=

    Nuclear Repulsion Energy =            700.8169202303762404
    One-Electron Energy =               -3505.7244582725465989
    Two-Electron Energy =                1588.4398393597236918
    Total Energy =                      -1216.4676986824467804
  Basis Set: (MYBAS AUX)
    Blend: AUG-CC-PVTZ-RI + DEF2-QZVPP-RI
    Molecular point group: c1

    Geometry (in Angstrom), charge = 0, multiplicity = 1:

       Center              X                  Y                   Z               Mass
    ------------   -----------------  -----------------  -----------------  -----------------
         I            0.759380998967    -0.997690385835     1.794724055491   126.904471900000
         I           -1.969773001033    -0.805510385835    -0.500804944509   126.904471900000
         I            1.376312998967    -0.348484385835    -1.662511944509   126.904471900000
         I           -0.162715001033     2.147476614165     0.376166055491   126.904471900000
         C           -0.033904601033     0.044506914165    -0.080089644509    12.000000000000

  Basis Set: MYBAS
    Blend: AUG-CC-PVTZ + AUG-CC-PVTZ-PP
  Basis Set: (MYBAS AUX)
    Blend: AUG-CC-PVTZ-JKFIT + DEF2-QZVPP-JKFIT
	 Reference Energy          =   -1216.4676986824467804 [Eh]
	 Singles Energy            =      -0.0000000000000000 [Eh]
	 Same-Spin Energy          =      -0.3600014504354874 [Eh]
	 Opposite-Spin Energy      =      -0.8383276986539063 [Eh]
	 Correlation Energy        =      -1.1983291490893937 [Eh]
	 Total Energy              =   -1217.6660278315362120 [Eh]

	 ================> DF-SCS-MP2 Energies <==================
	-----------------------------------------------------------
	 SCS Same-Spin Scale       =       0.3333333333333333 [-]
	 SCS Opposite-Spin Scale   =       1.2000000000000000 [-]
	 SCS Same-Spin Energy      =      -0.1200004834784958 [Eh]
	 SCS Opposite-Spin Energy  =      -1.0059932383846875 [Eh]
	 SCS Correlation Energy    =      -1.1259937218631833 [Eh]
	 SCS Total Energy          =   -1217.5936924043098770 [Eh]
	-----------------------------------------------------------

  Dipole Moment: [D]
     X:    -0.0966      Y:     0.1268      Z:    -0.2282     Total:     0.2784

*** Psi4 exiting successfully. Buy a developer a beer!
