                               Psi4 1.3.2 release

  ==> Input File <==

--------------------------------------------------------------------------
#psi4
#
memory 32 gb

molecule  {
0 1
  I        0.8838214    -0.9101098     1.7814396
  I       -1.9705740    -0.8044580    -0.5026980
  I        1.3755120    -0.3474320    -1.6644050
  I       -0.1635160     2.1485290     0.3742730
  C       -0.0000190    -0.0000110    -0.0000060
units angstrom
no_reorient  #important for SAPT in psi4, default
symmetry c1  #important for SAPT in psi4, default
}

set PROPERTIES_ORIGIN ["COM"]

basis mybas {
    assign aug-cc-pvtz
    assign I aug-cc-pvtz-pp
}
properties('MP2/mybas', properties = ['dipole'])
--------------------------------------------------------------------------

    Molecular point group: c1
  Charge       = 0
  Multiplicity = 1
  Basis Set: MYBAS
    Blend: AUG-CC-PVTZ + AUG-CC-PVTZ-PP
  Basis Set: (MYBAS AUX)
    Blend: AUG-CC-PVTZ-JKFIT + DEF2-QZVPP-JKFIT

    Orbital Energies [Eh]
    ---------------------

    Doubly Occupied:

       1A    -11.429128     2A     -7.748424     3A     -7.746680
       4A     -7.745802     5A     -7.745799     6A     -5.581657
       7A     -5.579893     8A     -5.578991     9A     -5.578987
      10A     -5.569496    11A     -5.569436    12A     -5.567787
      13A     -5.567702    14A     -5.566904    15A     -5.566900
      16A     -5.566869    17A     -5.566866    18A     -2.311156
      19A     -2.309413    20A     -2.308557    21A     -2.308422
      22A     -2.305641    23A     -2.305585    24A     -2.303926
      25A     -2.303851    26A     -2.303058    27A     -2.302993
      28A     -2.302987    29A     -2.302965    30A     -2.292116
      31A     -2.292113    32A     -2.290431    33A     -2.290425
      34A     -2.289596    35A     -2.289591    36A     -2.289590
      37A     -2.289587    38A     -1.051917    39A     -0.908307
      40A     -0.904960    41A     -0.902618    42A     -0.738064
      43A     -0.525111    44A     -0.522478    45A     -0.520349
      46A     -0.422117    47A     -0.417104    48A     -0.387112
      49A     -0.382786    50A     -0.381408    51A     -0.362980
      52A     -0.362082    53A     -0.360090

  @DF-RHF Final Energy: -1216.46966972099131

   => Energetics <=

    Nuclear Repulsion Energy =            701.0337212089846162
    One-Electron Energy =               -3506.1691730281154378
    Two-Electron Energy =                1588.6657820981397435
    Total Energy =                      -1216.4696697209913054
  Basis Set: (MYBAS AUX)
    Blend: AUG-CC-PVTZ-RI + DEF2-QZVPP-RI
    Molecular point group: c1

    Geometry (in Angstrom), charge = 0, multiplicity = 1:

       Center              X                  Y                   Z               Mass
    ------------   -----------------  -----------------  -----------------  -----------------
         I            0.853234078210    -0.931242271941     1.784221576393   126.904471900000
         I           -2.001161321790    -0.825590471941    -0.499916023607   126.904471900000
         I            1.344924678210    -0.368564471941    -1.661623023607   126.904471900000
         I           -0.194103321790     2.127396528059     0.377054976393   126.904471900000
         C           -0.030606321790    -0.021143471941     0.002775976393    12.000000000000

  Basis Set: MYBAS
    Blend: AUG-CC-PVTZ + AUG-CC-PVTZ-PP
  Basis Set: (MYBAS AUX)
    Blend: AUG-CC-PVTZ-JKFIT + DEF2-QZVPP-JKFIT
	 Reference Energy          =   -1216.4696697209913054 [Eh]
	 Singles Energy            =      -0.0000000000000000 [Eh]
	 Same-Spin Energy          =      -0.3598350250921952 [Eh]
	 Opposite-Spin Energy      =      -0.8380660420121617 [Eh]
	 Correlation Energy        =      -1.1979010671043568 [Eh]
	 Total Energy              =   -1217.6675707880956452 [Eh]

	 ================> DF-SCS-MP2 Energies <==================
	-----------------------------------------------------------
	 SCS Same-Spin Scale       =       0.3333333333333333 [-]
	 SCS Opposite-Spin Scale   =       1.2000000000000000 [-]
	 SCS Same-Spin Energy      =      -0.1199450083640650 [Eh]
	 SCS Opposite-Spin Energy  =      -1.0056792504145939 [Eh]
	 SCS Correlation Energy    =      -1.1256242587786589 [Eh]
	 SCS Total Energy          =   -1217.5952939797700765 [Eh]
	-----------------------------------------------------------

  Dipole Moment: [D]
     X:    -0.0142      Y:    -0.0085      Z:    -0.0003     Total:     0.0165

*** Psi4 exiting successfully. Buy a developer a beer!
