                               Psi4 1.4a3.dev225

  ==> Input File <==

--------------------------------------------------------------------------
#psi4
#
memory 32 gb

molecule  {
0 1
  I        0.7585800    -0.9966380     1.7928310
  I       -1.9705740    -0.8044580    -0.5026980
  I        1.3755120    -0.3474320    -1.6644050
  I       -0.1635160     2.1485290     0.3742730
  C       -0.0173623     0.0227742    -0.0409944
units angstrom
no_reorient  #important for SAPT in psi4, default
symmetry c1  #important for SAPT in psi4, default
}

set PROPERTIES_ORIGIN ["COM"]
properties('MP2/aug-cc-pvtz', properties = ['dipole'])
--------------------------------------------------------------------------

    Molecular point group: c1
  Charge       = 0
  Multiplicity = 1
  Basis Set: AUG-CC-PVTZ
    Blend: AUG-CC-PVTZ
  Basis Set: (AUG-CC-PVTZ AUX)
    Blend: AUG-CC-PVTZ-JKFIT + DEF2-UNIVERSAL-JKFIT

    Orbital Energies [Eh]
    ---------------------

    Doubly Occupied:

       1A    -11.429357     2A     -7.747662     3A     -7.747660
       4A     -7.747658     5A     -7.743775     6A     -5.580881
       7A     -5.580880     8A     -5.580874     9A     -5.576922
      10A     -5.568746    11A     -5.568742    12A     -5.568741
      13A     -5.568740    14A     -5.568740    15A     -5.568736
      16A     -5.564823    17A     -5.564823    18A     -2.310634
      19A     -2.310391    20A     -2.310389    21A     -2.306184
      22A     -2.304925    23A     -2.304924    24A     -2.304902
      25A     -2.304856    26A     -2.304855    27A     -2.304815
      28A     -2.300894    29A     -2.300894    30A     -2.291444
      31A     -2.291442    32A     -2.291442    33A     -2.291437
      34A     -2.291436    35A     -2.291431    36A     -2.287490
      37A     -2.287490    38A     -1.052237    39A     -0.907737
      40A     -0.907734    41A     -0.900473    42A     -0.738016
      43A     -0.524383    44A     -0.524382    45A     -0.519703
      46A     -0.419446    47A     -0.419446    48A     -0.385840
      49A     -0.385837    50A     -0.378745    51A     -0.363013
      52A     -0.361523    53A     -0.361523

  @DF-RHF Final Energy: -1216.46978961395826

   => Energetics <=

    Nuclear Repulsion Energy =            700.8235201955617413
    One-Electron Energy =               -3505.7464766447797047
    Two-Electron Energy =                1588.4531668352597080
    Total Energy =                      -1216.4697896139582554
  Basis Set: (AUG-CC-PVTZ AUX)
    Blend: AUG-CC-PVTZ-RI + DEF2-QZVPP-RI
    Molecular point group: c1

    Geometry (in Angstrom), charge = 0, multiplicity = 1:

       Center              X                  Y                   Z               Mass
    ------------   -----------------  -----------------  -----------------  -----------------
         I            0.758980474649    -0.997164189169     1.793777476069   126.904471900000
         I           -1.970173525351    -0.804984189169    -0.501751523931   126.904471900000
         I            1.375912474649    -0.347958189169    -1.663458523931   126.904471900000
         I           -0.163115525351     2.148002810831     0.375219476069   126.904471900000
         C           -0.016961825351     0.022248010831    -0.040047923931    12.000000000000

  Basis Set: AUG-CC-PVTZ
    Blend: AUG-CC-PVTZ
  Basis Set: (AUG-CC-PVTZ AUX)
    Blend: AUG-CC-PVTZ-JKFIT + DEF2-UNIVERSAL-JKFIT
	 Reference Energy          =   -1216.4697896139582554 [Eh]
	 Singles Energy            =      -0.0000000000000000 [Eh]
	 Same-Spin Energy          =      -0.3598302508992730 [Eh]
	 Opposite-Spin Energy      =      -0.8380611980030703 [Eh]
	 Correlation Energy        =      -1.1978914489023433 [Eh]
	 Total Energy              =   -1217.6676810628605381 [Eh]

	 ================> DF-SCS-MP2 Energies <==================
	-----------------------------------------------------------
	 SCS Same-Spin Scale       =       0.3333333333333333 [-]
	 SCS Opposite-Spin Scale   =       1.2000000000000000 [-]
	 SCS Same-Spin Energy      =      -0.1199434169664243 [Eh]
	 SCS Opposite-Spin Energy  =      -1.0056734376036844 [Eh]
	 SCS Correlation Energy    =      -1.1256168545701088 [Eh]
	 SCS Total Energy          =   -1217.5954064685283811 [Eh]
	-----------------------------------------------------------

  Dipole Moment: [D]
     X:    -0.0486      Y:     0.0637      Z:    -0.1147     Total:     0.1399

*** Psi4 exiting successfully. Buy a developer a beer!
