                               Psi4 1.4a3.dev225

  ==> Input File <==

--------------------------------------------------------------------------
#psi4
#
memory 32 gb

molecule  {
0 1
  I        0.7585800    -0.9966380     1.7928310
  I       -1.9705740    -0.8044580    -0.5026980
  I        1.3755120    -0.3474320    -1.6644050
  I       -0.1635160     2.1485290     0.3742730
  C        0.0173243    -0.0227962     0.0409824
units angstrom
no_reorient  #important for SAPT in psi4, default
symmetry c1  #important for SAPT in psi4, default
}

set PROPERTIES_ORIGIN ["COM"]
properties('MP2/aug-cc-pvtz', properties = ['dipole'])
--------------------------------------------------------------------------

    Molecular point group: c1
  Charge       = 0
  Multiplicity = 1
  Basis Set: AUG-CC-PVTZ
    Blend: AUG-CC-PVTZ
  Basis Set: (AUG-CC-PVTZ AUX)
    Blend: AUG-CC-PVTZ-JKFIT + DEF2-UNIVERSAL-JKFIT

    Orbital Energies [Eh]
    ---------------------

    Doubly Occupied:

       1A    -11.429340     2A     -7.749387     3A     -7.745791
       4A     -7.745790     5A     -7.745787     6A     -5.582619
       7A     -5.578982     8A     -5.578981     9A     -5.578975
      10A     -5.570506    11A     -5.570506    12A     -5.566852
      13A     -5.566851    14A     -5.566848    15A     -5.566846
      16A     -5.566843    17A     -5.566842    18A     -2.312418
      19A     -2.308534    20A     -2.308325    21A     -2.308323
      22A     -2.306652    23A     -2.306652    24A     -2.303004
      25A     -2.303004    26A     -2.302994    27A     -2.302934
      28A     -2.302933    29A     -2.302896    30A     -2.293245
      31A     -2.293245    32A     -2.289527    33A     -2.289526
      34A     -2.289524    35A     -2.289517    36A     -2.289516
      37A     -2.289513    38A     -1.052308    39A     -0.910005
      40A     -0.902953    41A     -0.902950    42A     -0.737996
      43A     -0.525785    44A     -0.521351    45A     -0.521350
      46A     -0.419442    47A     -0.419441    48A     -0.388013
      49A     -0.381186    50A     -0.381184    51A     -0.362443
      52A     -0.362443    53A     -0.361186

  @DF-RHF Final Energy: -1216.46970524380913

   => Energetics <=

    Nuclear Repulsion Energy =            700.8254623128682397
    One-Electron Energy =               -3505.7502067954737868
    Two-Electron Energy =                1588.4550392387964166
    Total Energy =                      -1216.4697052438091305
  Basis Set: (AUG-CC-PVTZ AUX)
    Blend: AUG-CC-PVTZ-RI + DEF2-QZVPP-RI
    Molecular point group: c1

    Geometry (in Angstrom), charge = 0, multiplicity = 1:

       Center              X                  Y                   Z               Mass
    ------------   -----------------  -----------------  -----------------  -----------------
         I            0.758179426013    -0.996111791218     1.791884312605   126.904471900000
         I           -1.970974573987    -0.803931791218    -0.503644687395   126.904471900000
         I            1.375111426013    -0.346905791218    -1.665351687395   126.904471900000
         I           -0.163916573987     2.149055208782     0.373326312605   126.904471900000
         C            0.016923726013    -0.022269991218     0.040035712605    12.000000000000

  Basis Set: AUG-CC-PVTZ
    Blend: AUG-CC-PVTZ
  Basis Set: (AUG-CC-PVTZ AUX)
    Blend: AUG-CC-PVTZ-JKFIT + DEF2-UNIVERSAL-JKFIT
	 Reference Energy          =   -1216.4697052438091305 [Eh]
	 Singles Energy            =      -0.0000000000000000 [Eh]
	 Same-Spin Energy          =      -0.3598365223173132 [Eh]
	 Opposite-Spin Energy      =      -0.8380705246481602 [Eh]
	 Correlation Energy        =      -1.1979070469654733 [Eh]
	 Total Energy              =   -1217.6676122907745139 [Eh]

	 ================> DF-SCS-MP2 Energies <==================
	-----------------------------------------------------------
	 SCS Same-Spin Scale       =       0.3333333333333333 [-]
	 SCS Opposite-Spin Scale   =       1.2000000000000000 [-]
	 SCS Same-Spin Energy      =      -0.1199455074391044 [Eh]
	 SCS Opposite-Spin Energy  =      -1.0056846295777921 [Eh]
	 SCS Correlation Energy    =      -1.1256301370168966 [Eh]
	 SCS Total Energy          =   -1217.5953353808260999 [Eh]
	-----------------------------------------------------------

  Dipole Moment: [D]
     X:     0.0500      Y:    -0.0657      Z:     0.1181     Total:     0.1441

*** Psi4 exiting successfully. Buy a developer a beer!
