                               Psi4 1.3.2 release

  ==> Input File <==

--------------------------------------------------------------------------
#psi4
#
memory 32 gb

molecule  {
0 1
  I        0.7585800    -0.9966380     1.7928310
  I       -1.9705740    -0.8044580    -0.5026980
  I        1.3755120    -0.3474320    -1.6644050
  I       -0.1635160     2.1485290     0.3742730
  C       -0.0693922     0.0911297    -0.1639594
units angstrom
no_reorient  #important for SAPT in psi4, default
symmetry c1  #important for SAPT in psi4, default
}

set PROPERTIES_ORIGIN ["COM"]

basis mybas {
    assign aug-cc-pvtz
    assign I aug-cc-pvtz-pp
}
properties('MP2/mybas', properties = ['dipole'])
--------------------------------------------------------------------------

    Molecular point group: c1
  Charge       = 0
  Multiplicity = 1
  Basis Set: MYBAS
    Blend: AUG-CC-PVTZ + AUG-CC-PVTZ-PP
  Basis Set: (MYBAS AUX)
    Blend: AUG-CC-PVTZ-JKFIT + DEF2-QZVPP-JKFIT

    Orbital Energies [Eh]
    ---------------------

    Doubly Occupied:

       1A    -11.431677     2A     -7.751356     3A     -7.751355
       4A     -7.751352     5A     -7.732990     6A     -5.584663
       7A     -5.584662     8A     -5.584656     9A     -5.572445
      10A     -5.572444    11A     -5.572439    12A     -5.572432
      13A     -5.572426    14A     -5.572425    15A     -5.565801
      16A     -5.554121    17A     -5.554121    18A     -2.314696
      19A     -2.314430    20A     -2.314428    21A     -2.308706
      22A     -2.308701    23A     -2.308700    24A     -2.308654
      25A     -2.308653    26A     -2.308583    27A     -2.295145
      28A     -2.295140    29A     -2.295140    30A     -2.295133
      31A     -2.295131    32A     -2.295128    33A     -2.294535
      34A     -2.289838    35A     -2.289838    36A     -2.276911
      37A     -2.276911    38A     -1.057427    39A     -0.915451
      40A     -0.915448    41A     -0.885407    42A     -0.738398
      43A     -0.531580    44A     -0.531578    45A     -0.512303
      46A     -0.419047    47A     -0.419047    48A     -0.392364
      49A     -0.392361    50A     -0.366391    51A     -0.362367
      52A     -0.358404    53A     -0.358403

  @DF-RHF Final Energy: -1216.46035868142349

   => Energetics <=

    Nuclear Repulsion Energy =            700.7654274981571234
    One-Electron Energy =               -3505.5880924176676672
    Two-Electron Energy =                1588.3623062380868305
    Total Energy =                      -1216.4603586814234859
  Basis Set: (MYBAS AUX)
    Blend: AUG-CC-PVTZ-RI + DEF2-QZVPP-RI
    Molecular point group: c1

    Geometry (in Angstrom), charge = 0, multiplicity = 1:

       Center              X                  Y                   Z               Mass
    ------------   -----------------  -----------------  -----------------  -----------------
         I            0.760182047603    -0.998742783785     1.796617216646   126.904471900000
         I           -1.968971952397    -0.806562783785    -0.498911783354   126.904471900000
         I            1.377114047603    -0.349536783785    -1.660618783354   126.904471900000
         I           -0.161913952397     2.146424216215     0.378059216646   126.904471900000
         C           -0.067790152397     0.089024916215    -0.160173183354    12.000000000000

  Basis Set: MYBAS
    Blend: AUG-CC-PVTZ + AUG-CC-PVTZ-PP
  Basis Set: (MYBAS AUX)
    Blend: AUG-CC-PVTZ-JKFIT + DEF2-QZVPP-JKFIT
	 Reference Energy          =   -1216.4603586814234859 [Eh]
	 Singles Energy            =      -0.0000000000000000 [Eh]
	 Same-Spin Energy          =      -0.3605980384426264 [Eh]
	 Opposite-Spin Energy      =      -0.8392432460974099 [Eh]
	 Correlation Energy        =      -1.1998412845400361 [Eh]
	 Total Energy              =   -1217.6601999659635567 [Eh]

	 ================> DF-SCS-MP2 Energies <==================
	-----------------------------------------------------------
	 SCS Same-Spin Scale       =       0.3333333333333333 [-]
	 SCS Opposite-Spin Scale   =       1.2000000000000000 [-]
	 SCS Same-Spin Energy      =      -0.1201993461475421 [Eh]
	 SCS Opposite-Spin Energy  =      -1.0070918953168917 [Eh]
	 SCS Correlation Energy    =      -1.1272912414644338 [Eh]
	 SCS Total Energy          =   -1217.5876499228879766 [Eh]
	-----------------------------------------------------------

  Dipole Moment: [D]
     X:    -0.1924      Y:     0.2527      Z:    -0.4547     Total:     0.5546

*** Psi4 exiting successfully. Buy a developer a beer!
