                               Psi4 1.4a3.dev225

  ==> Input File <==

--------------------------------------------------------------------------
#psi4
#
memory 32 gb

molecule  {
0 1
  I        0.7585800    -0.9966380     1.7928310
  I       -1.9705740    -0.8044580    -0.5026980
  I        1.3755120    -0.3474320    -1.6644050
  I       -0.1635160     2.1485290     0.3742730
  C        0.0069183    -0.0091251     0.0163893
units angstrom
no_reorient  #important for SAPT in psi4, default
symmetry c1  #important for SAPT in psi4, default
}

set PROPERTIES_ORIGIN ["COM"]
properties('MP2/aug-cc-pvtz', properties = ['dipole'])
--------------------------------------------------------------------------

    Molecular point group: c1
  Charge       = 0
  Multiplicity = 1
  Basis Set: AUG-CC-PVTZ
    Blend: AUG-CC-PVTZ
  Basis Set: (AUG-CC-PVTZ AUX)
    Blend: AUG-CC-PVTZ-JKFIT + DEF2-UNIVERSAL-JKFIT

    Orbital Energies [Eh]
    ---------------------

    Doubly Occupied:

       1A    -11.429245     2A     -7.747784     3A     -7.746320
       4A     -7.746319     5A     -7.746316     6A     -5.581000
       7A     -5.579517     8A     -5.579516     9A     -5.579510
      10A     -5.568871    11A     -5.568871    12A     -5.567388
      13A     -5.567387    14A     -5.567386    15A     -5.567382
      16A     -5.567382    17A     -5.567381    18A     -2.310625
      19A     -2.309120    20A     -2.308908    21A     -2.308907
      22A     -2.305009    23A     -2.305009    24A     -2.303548
      25A     -2.303547    26A     -2.303534    27A     -2.303475
      28A     -2.303475    29A     -2.303439    30A     -2.291576
      31A     -2.291576    32A     -2.290073    33A     -2.290072
      34A     -2.290070    35A     -2.290064    36A     -2.290063
      37A     -2.290060    38A     -1.051879    39A     -0.907214
      40A     -0.904366    41A     -0.904363    42A     -0.738020
      43A     -0.523891    44A     -0.522083    45A     -0.522081
      46A     -0.419475    47A     -0.419474    48A     -0.385396
      49A     -0.382636    50A     -0.382633    51A     -0.362240
      52A     -0.362239    53A     -0.361712

  @DF-RHF Final Energy: -1216.47040998131160

   => Energetics <=

    Nuclear Repulsion Energy =            700.8245460459048672
    One-Electron Energy =               -3505.7510606484897835
    Two-Electron Energy =                1588.4561046212734254
    Total Energy =                      -1216.4704099813116045
  Basis Set: (AUG-CC-PVTZ AUX)
    Blend: AUG-CC-PVTZ-RI + DEF2-QZVPP-RI
    Molecular point group: c1

    Geometry (in Angstrom), charge = 0, multiplicity = 1:

       Center              X                  Y                   Z               Mass
    ------------   -----------------  -----------------  -----------------  -----------------
         I            0.758419741066    -0.996427510142     1.792452263030   126.904471900000
         I           -1.970734258934    -0.804247510142    -0.503076736970   126.904471900000
         I            1.375351741066    -0.347221510142    -1.664783736970   126.904471900000
         I           -0.163676258934     2.148739489858     0.373894263030   126.904471900000
         C            0.006758041066    -0.008914610142     0.016010563030    12.000000000000

  Basis Set: AUG-CC-PVTZ
    Blend: AUG-CC-PVTZ
  Basis Set: (AUG-CC-PVTZ AUX)
    Blend: AUG-CC-PVTZ-JKFIT + DEF2-UNIVERSAL-JKFIT
	 Reference Energy          =   -1216.4704099813116045 [Eh]
	 Singles Energy            =      -0.0000000000000000 [Eh]
	 Same-Spin Energy          =      -0.3597794970558167 [Eh]
	 Opposite-Spin Energy      =      -0.8379820608910504 [Eh]
	 Correlation Energy        =      -1.1977615579468672 [Eh]
	 Total Energy              =   -1217.6681715392585375 [Eh]

	 ================> DF-SCS-MP2 Energies <==================
	-----------------------------------------------------------
	 SCS Same-Spin Scale       =       0.3333333333333333 [-]
	 SCS Opposite-Spin Scale   =       1.2000000000000000 [-]
	 SCS Same-Spin Energy      =      -0.1199264990186056 [Eh]
	 SCS Opposite-Spin Energy  =      -1.0055784730692605 [Eh]
	 SCS Correlation Energy    =      -1.1255049720878660 [Eh]
	 SCS Total Energy          =   -1217.5959149533994150 [Eh]
	-----------------------------------------------------------

  Dipole Moment: [D]
     X:     0.0197      Y:    -0.0260      Z:     0.0467     Total:     0.0569

*** Psi4 exiting successfully. Buy a developer a beer!
