                               Psi4 1.3.2 release

  ==> Input File <==

--------------------------------------------------------------------------
#psi4
#
memory 32 gb

molecule  {
0 1
  I        0.9448648    -0.8651558     1.7724842
  I       -1.9705740    -0.8044580    -0.5026980
  I        1.3755120    -0.3474320    -1.6644050
  I       -0.1635160     2.1485290     0.3742730
  C       -0.0000190    -0.0000110    -0.0000060
units angstrom
no_reorient  #important for SAPT in psi4, default
symmetry c1  #important for SAPT in psi4, default
}

set PROPERTIES_ORIGIN ["COM"]

basis mybas {
    assign aug-cc-pvtz
    assign I aug-cc-pvtz-pp
}
properties('MP2/mybas', properties = ['dipole'])
--------------------------------------------------------------------------

    Molecular point group: c1
  Charge       = 0
  Multiplicity = 1
  Basis Set: MYBAS
    Blend: AUG-CC-PVTZ + AUG-CC-PVTZ-PP
  Basis Set: (MYBAS AUX)
    Blend: AUG-CC-PVTZ-JKFIT + DEF2-QZVPP-JKFIT

    Orbital Energies [Eh]
    ---------------------

    Doubly Occupied:

       1A    -11.429008     2A     -7.749291     3A     -7.746676
       4A     -7.745351     5A     -7.745349     6A     -5.582544
       7A     -5.579904     8A     -5.578535     9A     -5.578531
      10A     -5.570361    11A     -5.570272    12A     -5.567795
      13A     -5.567669    14A     -5.566469    15A     -5.566465
      16A     -5.566416    17A     -5.566412    18A     -2.312036
      19A     -2.309424    20A     -2.308113    21A     -2.307972
      22A     -2.306521    23A     -2.306437    24A     -2.303954
      25A     -2.303841    26A     -2.302620    27A     -2.302545
      28A     -2.302540    29A     -2.302517    30A     -2.292945
      31A     -2.292941    32A     -2.290414    33A     -2.290404
      34A     -2.289162    35A     -2.289156    36A     -2.289155
      37A     -2.289152    38A     -1.052059    39A     -0.909739
      40A     -0.904792    41A     -0.901278    42A     -0.738112
      43A     -0.526307    44A     -0.522396    45A     -0.519190
      46A     -0.423503    47A     -0.416028    48A     -0.389024
      49A     -0.382484    50A     -0.380504    51A     -0.362843
      52A     -0.362064    53A     -0.358962

  @DF-RHF Final Energy: -1216.46860024135481

   => Energetics <=

    Nuclear Repulsion Energy =            701.2926590865490653
    One-Electron Energy =               -3506.6861584787629909
    Two-Electron Energy =                1588.9248991508591189
    Total Energy =                      -1216.4686002413548067
  Basis Set: (MYBAS AUX)
    Blend: AUG-CC-PVTZ-RI + DEF2-QZVPP-RI
    Molecular point group: c1

    Geometry (in Angstrom), charge = 0, multiplicity = 1:

       Center              X                  Y                   Z               Mass
    ------------   -----------------  -----------------  -----------------  -----------------
         I            0.899369060650    -0.897267231223     1.777453322630   126.904471900000
         I           -2.016069739350    -0.836569431223    -0.497728877370   126.904471900000
         I            1.330016260650    -0.379543431223    -1.659435877370   126.904471900000
         I           -0.209011739350     2.116417568777     0.379242122630   126.904471900000
         C           -0.045514739350    -0.032122431223     0.004963122630    12.000000000000

  Basis Set: MYBAS
    Blend: AUG-CC-PVTZ + AUG-CC-PVTZ-PP
  Basis Set: (MYBAS AUX)
    Blend: AUG-CC-PVTZ-JKFIT + DEF2-QZVPP-JKFIT
	 Reference Energy          =   -1216.4686002413548067 [Eh]
	 Singles Energy            =      -0.0000000000000000 [Eh]
	 Same-Spin Energy          =      -0.3599161635523245 [Eh]
	 Opposite-Spin Energy      =      -0.8381893287837074 [Eh]
	 Correlation Energy        =      -1.1981054923360319 [Eh]
	 Total Energy              =   -1217.6667057336908329 [Eh]

	 ================> DF-SCS-MP2 Energies <==================
	-----------------------------------------------------------
	 SCS Same-Spin Scale       =       0.3333333333333333 [-]
	 SCS Opposite-Spin Scale   =       1.2000000000000000 [-]
	 SCS Same-Spin Energy      =      -0.1199720545174415 [Eh]
	 SCS Opposite-Spin Energy  =      -1.0058271945404489 [Eh]
	 SCS Correlation Energy    =      -1.1257992490578903 [Eh]
	 SCS Total Energy          =   -1217.5943994904127976 [Eh]
	-----------------------------------------------------------

  Dipole Moment: [D]
     X:    -0.0216      Y:    -0.0123      Z:    -0.0012     Total:     0.0249

*** Psi4 exiting successfully. Buy a developer a beer!
