                               Psi4 1.3.2 release

  ==> Input File <==

--------------------------------------------------------------------------
#psi4
#
memory 32 gb

molecule  {
0 1
  I        0.7585800    -0.9966380     1.7928310
  I       -1.9705740    -0.8044580    -0.5026980
  I        1.3755120    -0.3474320    -1.6644050
  I       -0.1635160     2.1485290     0.3742730
  C        0.0693542    -0.0911517     0.1639474
units angstrom
no_reorient  #important for SAPT in psi4, default
symmetry c1  #important for SAPT in psi4, default
}

set PROPERTIES_ORIGIN ["COM"]

basis mybas {
    assign aug-cc-pvtz
    assign I aug-cc-pvtz-pp
}
properties('MP2/mybas', properties = ['dipole'])
--------------------------------------------------------------------------

    Molecular point group: c1
  Charge       = 0
  Multiplicity = 1
  Basis Set: MYBAS
    Blend: AUG-CC-PVTZ + AUG-CC-PVTZ-PP
  Basis Set: (MYBAS AUX)
    Blend: AUG-CC-PVTZ-JKFIT + DEF2-QZVPP-JKFIT

    Orbital Energies [Eh]
    ---------------------

    Doubly Occupied:

       1A    -11.430636     2A     -7.757389     3A     -7.743225
       4A     -7.743224     5A     -7.743221     6A     -5.590623
       7A     -5.578781     8A     -5.578781     9A     -5.576406
      10A     -5.576405    11A     -5.576399    12A     -5.564242
      13A     -5.564241    14A     -5.564236    15A     -5.564211
      16A     -5.564205    17A     -5.564204    18A     -2.321692
      19A     -2.314887    20A     -2.314887    21A     -2.305683
      22A     -2.305503    23A     -2.305501    24A     -2.301865
      25A     -2.301865    26A     -2.300387    27A     -2.300375
      28A     -2.300375    29A     -2.300310    30A     -2.300310
      31A     -2.300265    32A     -2.286857    33A     -2.286856
      34A     -2.286846    35A     -2.286839    36A     -2.286838
      37A     -2.286838    38A     -1.061947    39A     -0.921942
      40A     -0.896004    41A     -0.896002    42A     -0.737194
      43A     -0.535575    44A     -0.520587    45A     -0.520585
      46A     -0.418742    47A     -0.418741    48A     -0.398775
      49A     -0.372992    50A     -0.372989    51A     -0.362658
      52A     -0.362657    53A     -0.358582

  @DF-RHF Final Energy: -1216.45485373689735

   => Energetics <=

    Nuclear Repulsion Energy =            700.8888581189332854
    One-Electron Energy =               -3505.8246595807404447
    Two-Electron Energy =                1588.4809477249100382
    Total Energy =                      -1216.4548537368973484
  Basis Set: (MYBAS AUX)
    Blend: AUG-CC-PVTZ-RI + DEF2-QZVPP-RI
    Molecular point group: c1

    Geometry (in Angstrom), charge = 0, multiplicity = 1:

       Center              X                  Y                   Z               Mass
    ------------   -----------------  -----------------  -----------------  -----------------
         I            0.756977853059    -0.994533196602     1.789044572028   126.904471900000
         I           -1.972176146941    -0.802353196602    -0.506484427972   126.904471900000
         I            1.373909853059    -0.345327196602    -1.668191427972   126.904471900000
         I           -0.165118146941     2.150633803398     0.370486572028   126.904471900000
         C            0.067752053059    -0.089046896602     0.160160972028    12.000000000000

  Basis Set: MYBAS
    Blend: AUG-CC-PVTZ + AUG-CC-PVTZ-PP
  Basis Set: (MYBAS AUX)
    Blend: AUG-CC-PVTZ-JKFIT + DEF2-QZVPP-JKFIT
	 Reference Energy          =   -1216.4548537368973484 [Eh]
	 Singles Energy            =      -0.0000000000000000 [Eh]
	 Same-Spin Energy          =      -0.3609990288242959 [Eh]
	 Opposite-Spin Energy      =      -0.8398488657592462 [Eh]
	 Correlation Energy        =      -1.2008478945835421 [Eh]
	 Total Energy              =   -1217.6557016314809516 [Eh]

	 ================> DF-SCS-MP2 Energies <==================
	-----------------------------------------------------------
	 SCS Same-Spin Scale       =       0.3333333333333333 [-]
	 SCS Opposite-Spin Scale   =       1.2000000000000000 [-]
	 SCS Same-Spin Energy      =      -0.1203330096080986 [Eh]
	 SCS Opposite-Spin Energy  =      -1.0078186389110955 [Eh]
	 SCS Correlation Energy    =      -1.1281516485191940 [Eh]
	 SCS Total Energy          =   -1217.5830053854165271 [Eh]
	-----------------------------------------------------------

  Dipole Moment: [D]
     X:     0.2256      Y:    -0.2965      Z:     0.5332     Total:     0.6505

*** Psi4 exiting successfully. Buy a developer a beer!
