                               Psi4 1.3.2 release

  ==> Input File <==

--------------------------------------------------------------------------
#psi4
#
memory 32 gb

molecule  {
0 1
  I        0.6296427    -1.0783107     1.7954878
  I       -1.9705740    -0.8044580    -0.5026980
  I        1.3755120    -0.3474320    -1.6644050
  I       -0.1635160     2.1485290     0.3742730
  C       -0.0000190    -0.0000110    -0.0000060
units angstrom
no_reorient  #important for SAPT in psi4, default
symmetry c1  #important for SAPT in psi4, default
}

set PROPERTIES_ORIGIN ["COM"]

basis mybas {
    assign aug-cc-pvtz
    assign I aug-cc-pvtz-pp
}
properties('MP2/mybas', properties = ['dipole'])
--------------------------------------------------------------------------

    Molecular point group: c1
  Charge       = 0
  Multiplicity = 1
  Basis Set: MYBAS
    Blend: AUG-CC-PVTZ + AUG-CC-PVTZ-PP
  Basis Set: (MYBAS AUX)
    Blend: AUG-CC-PVTZ-JKFIT + DEF2-QZVPP-JKFIT

    Orbital Energies [Eh]
    ---------------------

    Doubly Occupied:

       1A    -11.429121     2A     -7.747538     3A     -7.747536
       4A     -7.746681     5A     -7.744952     6A     -5.580755
       7A     -5.580751     8A     -5.579895     9A     -5.578132
      10A     -5.568612    11A     -5.568609    12A     -5.568582
      13A     -5.568578    14A     -5.567791    15A     -5.567702
      16A     -5.566078    17A     -5.566015    18A     -2.310340
      19A     -2.310174    20A     -2.309394    21A     -2.307643
      22A     -2.304764    23A     -2.304737    24A     -2.304736
      25A     -2.304677    26A     -2.303924    27A     -2.303851
      28A     -2.302190    29A     -2.302134    30A     -2.291268
      31A     -2.291264    32A     -2.291263    33A     -2.291259
      34A     -2.290433    35A     -2.290426    36A     -2.288772
      37A     -2.288768    38A     -1.051925    39A     -0.908087
      40A     -0.905678    41A     -0.902122    42A     -0.738068
      43A     -0.524943    44A     -0.522860    45A     -0.520134
      46A     -0.422253    47A     -0.417003    48A     -0.386085
      49A     -0.384609    50A     -0.380651    51A     -0.363728
      52A     -0.361972    53A     -0.359380

  @DF-RHF Final Energy: -1216.46962306960972

   => Energetics <=

    Nuclear Repulsion Energy =            701.0387208055262818
    One-Electron Energy =               -3506.1790029436915574
    Two-Electron Energy =                1588.6706590685555511
    Total Energy =                      -1216.4696230696097246
  Basis Set: (MYBAS AUX)
    Blend: AUG-CC-PVTZ-RI + DEF2-QZVPP-RI
    Molecular point group: c1

    Geometry (in Angstrom), charge = 0, multiplicity = 1:

       Center              X                  Y                   Z               Mass
    ------------   -----------------  -----------------  -----------------  -----------------
         I            0.661132559272    -1.058364050346     1.794838833301   126.904471900000
         I           -1.939084140728    -0.784511350346    -0.503346966699   126.904471900000
         I            1.407001859272    -0.327485350346    -1.665053966699   126.904471900000
         I           -0.132026140728     2.168475649654     0.373624033301   126.904471900000
         C            0.031470859272     0.019935649654    -0.000654966699    12.000000000000

  Basis Set: MYBAS
    Blend: AUG-CC-PVTZ + AUG-CC-PVTZ-PP
  Basis Set: (MYBAS AUX)
    Blend: AUG-CC-PVTZ-JKFIT + DEF2-QZVPP-JKFIT
	 Reference Energy          =   -1216.4696230696097246 [Eh]
	 Singles Energy            =      -0.0000000000000000 [Eh]
	 Same-Spin Energy          =      -0.3598380827671486 [Eh]
	 Opposite-Spin Energy      =      -0.8380702844710614 [Eh]
	 Correlation Energy        =      -1.1979083672382100 [Eh]
	 Total Energy              =   -1217.6675314368478666 [Eh]

	 ================> DF-SCS-MP2 Energies <==================
	-----------------------------------------------------------
	 SCS Same-Spin Scale       =       0.3333333333333333 [-]
	 SCS Opposite-Spin Scale   =       1.2000000000000000 [-]
	 SCS Same-Spin Energy      =      -0.1199460275890495 [Eh]
	 SCS Opposite-Spin Energy  =      -1.0056843413652736 [Eh]
	 SCS Correlation Energy    =      -1.1256303689543232 [Eh]
	 SCS Total Energy          =   -1217.5952534385639865 [Eh]
	-----------------------------------------------------------

  Dipole Moment: [D]
     X:     0.0123      Y:     0.0089      Z:    -0.0017     Total:     0.0153

*** Psi4 exiting successfully. Buy a developer a beer!
