                               Psi4 1.4a3.dev225

  ==> Input File <==

--------------------------------------------------------------------------
#psi4
#
memory 32 gb

molecule  {
0 1
  I        0.7585800    -0.9966380     1.7928310
  I       -1.9705740    -0.8044580    -0.5026980
  I        1.3755120    -0.3474320    -1.6644050
  I       -0.1635160     2.1485290     0.3742730
  C       -0.0069563     0.0091031    -0.0164013
units angstrom
no_reorient  #important for SAPT in psi4, default
symmetry c1  #important for SAPT in psi4, default
}

set PROPERTIES_ORIGIN ["COM"]
properties('MP2/aug-cc-pvtz', properties = ['dipole'])
--------------------------------------------------------------------------

    Molecular point group: c1
  Charge       = 0
  Multiplicity = 1
  Basis Set: AUG-CC-PVTZ
    Blend: AUG-CC-PVTZ
  Basis Set: (AUG-CC-PVTZ AUX)
    Blend: AUG-CC-PVTZ-JKFIT + DEF2-UNIVERSAL-JKFIT

    Orbital Energies [Eh]
    ---------------------

    Doubly Occupied:

       1A    -11.429246     2A     -7.747064     3A     -7.747063
       4A     -7.747060     5A     -7.745550     6A     -5.580273
       7A     -5.580271     8A     -5.580266     9A     -5.578732
      10A     -5.568143    11A     -5.568140    12A     -5.568139
      13A     -5.568138    14A     -5.568137    15A     -5.568134
      16A     -5.566609    17A     -5.566609    18A     -2.309974
      19A     -2.309731    20A     -2.309730    21A     -2.308125
      22A     -2.304312    23A     -2.304312    24A     -2.304295
      25A     -2.304243    26A     -2.304243    27A     -2.304203
      28A     -2.302714    29A     -2.302714    30A     -2.290835
      31A     -2.290835    32A     -2.290834    33A     -2.290828
      34A     -2.290828    35A     -2.290823    36A     -2.289285
      37A     -2.289285    38A     -1.051875    39A     -0.906278
      40A     -0.906275    41A     -0.903392    42A     -0.738021
      43A     -0.523302    44A     -0.523300    45A     -0.521452
      46A     -0.419475    47A     -0.419475    48A     -0.384492
      49A     -0.384490    50A     -0.381685    51A     -0.362440
      52A     -0.361875    53A     -0.361874

  @DF-RHF Final Energy: -1216.47041528804766

   => Energetics <=

    Nuclear Repulsion Energy =            700.8244168775070193
    One-Electron Energy =               -3505.7508120994930323
    Two-Electron Energy =                1588.4559799339385791
    Total Energy =                      -1216.4704152880476613
  Basis Set: (AUG-CC-PVTZ AUX)
    Blend: AUG-CC-PVTZ-RI + DEF2-QZVPP-RI
    Molecular point group: c1

    Geometry (in Angstrom), charge = 0, multiplicity = 1:

       Center              X                  Y                   Z               Mass
    ------------   -----------------  -----------------  -----------------  -----------------
         I            0.758740159596    -0.996848470246     1.793209525644   126.904471900000
         I           -1.970413840404    -0.804668470246    -0.502319474356   126.904471900000
         I            1.375672159596    -0.347642470246    -1.664026474356   126.904471900000
         I           -0.163355840404     2.148318529754     0.374651525644   126.904471900000
         C           -0.006796140404     0.008892629754    -0.016022774356    12.000000000000

  Basis Set: AUG-CC-PVTZ
    Blend: AUG-CC-PVTZ
  Basis Set: (AUG-CC-PVTZ AUX)
    Blend: AUG-CC-PVTZ-JKFIT + DEF2-UNIVERSAL-JKFIT
	 Reference Energy          =   -1216.4704152880476613 [Eh]
	 Singles Energy            =      -0.0000000000000000 [Eh]
	 Same-Spin Energy          =      -0.3597791012409139 [Eh]
	 Opposite-Spin Energy      =      -0.8379814769891709 [Eh]
	 Correlation Energy        =      -1.1977605782300849 [Eh]
	 Total Energy              =   -1217.6681758662778066 [Eh]

	 ================> DF-SCS-MP2 Energies <==================
	-----------------------------------------------------------
	 SCS Same-Spin Scale       =       0.3333333333333333 [-]
	 SCS Opposite-Spin Scale   =       1.2000000000000000 [-]
	 SCS Same-Spin Energy      =      -0.1199263670803046 [Eh]
	 SCS Opposite-Spin Energy  =      -1.0055777723870050 [Eh]
	 SCS Correlation Energy    =      -1.1255041394673095 [Eh]
	 SCS Total Energy          =   -1217.5959194275149002 [Eh]
	-----------------------------------------------------------

  Dipole Moment: [D]
     X:    -0.0196      Y:     0.0256      Z:    -0.0461     Total:     0.0563

*** Psi4 exiting successfully. Buy a developer a beer!
