                               Psi4 1.3.2 release

  ==> Input File <==

--------------------------------------------------------------------------
#psi4
#
memory 32 gb

molecule  {
0 1
  I        0.5639839    -1.1172009     1.7935351
  I       -1.9705740    -0.8044580    -0.5026980
  I        1.3755120    -0.3474320    -1.6644050
  I       -0.1635160     2.1485290     0.3742730
  C       -0.0000190    -0.0000110    -0.0000060
units angstrom
no_reorient  #important for SAPT in psi4, default
symmetry c1  #important for SAPT in psi4, default
}

set PROPERTIES_ORIGIN ["COM"]

basis mybas {
    assign aug-cc-pvtz
    assign I aug-cc-pvtz-pp
}
properties('MP2/mybas', properties = ['dipole'])
--------------------------------------------------------------------------

    Molecular point group: c1
  Charge       = 0
  Multiplicity = 1
  Basis Set: MYBAS
    Blend: AUG-CC-PVTZ + AUG-CC-PVTZ-PP
  Basis Set: (MYBAS AUX)
    Blend: AUG-CC-PVTZ-JKFIT + DEF2-QZVPP-JKFIT

    Orbital Energies [Eh]
    ---------------------

    Doubly Occupied:

       1A    -11.428984     2A     -7.747952     3A     -7.747950
       4A     -7.746681     5A     -7.744094     6A     -5.581177
       7A     -5.581173     8A     -5.579909     9A     -5.577267
      10A     -5.569026    11A     -5.569023    12A     -5.568982
      13A     -5.568978    14A     -5.567804    15A     -5.567670
      16A     -5.565245    17A     -5.565151    18A     -2.310753
      19A     -2.310595    20A     -2.309417    21A     -2.306793
      22A     -2.305180    23A     -2.305154    24A     -2.305145
      25A     -2.305084    26A     -2.303957    27A     -2.303846
      28A     -2.301358    29A     -2.301277    30A     -2.291666
      31A     -2.291662    32A     -2.291661    33A     -2.291656
      34A     -2.290420    35A     -2.290410    36A     -2.287942
      37A     -2.287936    38A     -1.052084    39A     -0.909525
      40A     -0.905859    41A     -0.900431    42A     -0.738128
      43A     -0.526072    44A     -0.522972    45A     -0.518845
      46A     -0.423833    47A     -0.415818    48A     -0.387424
      49A     -0.385228    50A     -0.379479    51A     -0.364453
      52A     -0.361875    53A     -0.357310

  @DF-RHF Final Energy: -1216.46844010774998

   => Energetics <=

    Nuclear Repulsion Energy =            701.3100192970306352
    One-Electron Energy =               -3506.7202920206395902
    Two-Electron Energy =                1588.9418326158590844
    Total Energy =                      -1216.4684401077499842
  Basis Set: (MYBAS AUX)
    Blend: AUG-CC-PVTZ-RI + DEF2-QZVPP-RI
    Molecular point group: c1

    Geometry (in Angstrom), charge = 0, multiplicity = 1:

       Center              X                  Y                   Z               Mass
    ------------   -----------------  -----------------  -----------------  -----------------
         I            0.611509379943    -1.087756231878     1.793363034439   126.904471900000
         I           -1.923048520057    -0.775013331878    -0.502870065561   126.904471900000
         I            1.423037479943    -0.317987331878    -1.664577065561   126.904471900000
         I           -0.115990520057     2.177973668122     0.374100934439   126.904471900000
         C            0.047506479943     0.029433668122    -0.000178065561    12.000000000000

  Basis Set: MYBAS
    Blend: AUG-CC-PVTZ + AUG-CC-PVTZ-PP
  Basis Set: (MYBAS AUX)
    Blend: AUG-CC-PVTZ-JKFIT + DEF2-QZVPP-JKFIT
	 Reference Energy          =   -1216.4684401077499842 [Eh]
	 Singles Energy            =      -0.0000000000000000 [Eh]
	 Same-Spin Energy          =      -0.3599266522865462 [Eh]
	 Opposite-Spin Energy      =      -0.8382038603478432 [Eh]
	 Correlation Energy        =      -1.1981305126343895 [Eh]
	 Total Energy              =   -1217.6665706203843911 [Eh]

	 ================> DF-SCS-MP2 Energies <==================
	-----------------------------------------------------------
	 SCS Same-Spin Scale       =       0.3333333333333333 [-]
	 SCS Opposite-Spin Scale   =       1.2000000000000000 [-]
	 SCS Same-Spin Energy      =      -0.1199755507621821 [Eh]
	 SCS Opposite-Spin Energy  =      -1.0058446324174117 [Eh]
	 SCS Correlation Energy    =      -1.1258201831795938 [Eh]
	 SCS Total Energy          =   -1217.5942602909294692 [Eh]
	-----------------------------------------------------------

  Dipole Moment: [D]
     X:     0.0174      Y:     0.0134      Z:    -0.0032     Total:     0.0222

*** Psi4 exiting successfully. Buy a developer a beer!
