                               Psi4 1.3.2 release

  ==> Input File <==

--------------------------------------------------------------------------
#psi4
#
memory 32 gb

molecule  {
0 1
  I        0.7902610    -0.9754451     1.7908006
  I       -1.9705740    -0.8044580    -0.5026980
  I        1.3755120    -0.3474320    -1.6644050
  I       -0.1635160     2.1485290     0.3742730
  C       -0.0000190    -0.0000110    -0.0000060
units angstrom
no_reorient  #important for SAPT in psi4, default
symmetry c1  #important for SAPT in psi4, default
}

set PROPERTIES_ORIGIN ["COM"]

basis mybas {
    assign aug-cc-pvtz
    assign I aug-cc-pvtz-pp
}
properties('MP2/mybas', properties = ['dipole'])
--------------------------------------------------------------------------

    Molecular point group: c1
  Charge       = 0
  Multiplicity = 1
  Basis Set: MYBAS
    Blend: AUG-CC-PVTZ + AUG-CC-PVTZ-PP
  Basis Set: (MYBAS AUX)
    Blend: AUG-CC-PVTZ-JKFIT + DEF2-QZVPP-JKFIT

    Orbital Energies [Eh]
    ---------------------

    Doubly Occupied:

       1A    -11.429220     2A     -7.747120     3A     -7.746683
       4A     -7.746466     5A     -7.746464     6A     -5.580328
       7A     -5.579885     8A     -5.579665     9A     -5.579661
      10A     -5.568192    11A     -5.568177    12A     -5.567765
      13A     -5.567743    14A     -5.567546    15A     -5.567542
      16A     -5.567537    17A     -5.567534    18A     -2.309865
      19A     -2.309417    20A     -2.309179    21A     -2.309091
      22A     -2.304323    23A     -2.304309    24A     -2.303891
      25A     -2.303881    26A     -2.303705    27A     -2.303658
      28A     -2.303643    29A     -2.303617    30A     -2.290863
      31A     -2.290862    32A     -2.290443    33A     -2.290441
      34A     -2.290237    35A     -2.290233    36A     -2.290231
      37A     -2.290228    38A     -1.051809    39A     -0.906082
      40A     -0.905224    41A     -0.904636    42A     -0.738026
      43A     -0.523279    44A     -0.522611    45A     -0.522082
      46A     -0.420124    47A     -0.418854    48A     -0.384411
      49A     -0.383352    50A     -0.382991    51A     -0.362456
      52A     -0.362081    53A     -0.361608

  @DF-RHF Final Energy: -1216.47048387108475

   => Energetics <=

    Nuclear Repulsion Energy =            700.8376916459270660
    One-Electron Energy =               -3505.7778054654959305
    Two-Electron Energy =                1588.4696299484842257
    Total Energy =                      -1216.4704838710847525
  Basis Set: (MYBAS AUX)
    Blend: AUG-CC-PVTZ-RI + DEF2-QZVPP-RI
    Molecular point group: c1

    Geometry (in Angstrom), charge = 0, multiplicity = 1:

       Center              X                  Y                   Z               Mass
    ------------   -----------------  -----------------  -----------------  -----------------
         I            0.782523609739    -0.980620958551     1.791296371877   126.904471900000
         I           -1.978311390261    -0.809633858551    -0.502202228123   126.904471900000
         I            1.367774609739    -0.352607858551    -1.663909228123   126.904471900000
         I           -0.171253390261     2.143353141449     0.374768771877   126.904471900000
         C           -0.007756390261    -0.005186858551     0.000489771877    12.000000000000

  Basis Set: MYBAS
    Blend: AUG-CC-PVTZ + AUG-CC-PVTZ-PP
  Basis Set: (MYBAS AUX)
    Blend: AUG-CC-PVTZ-JKFIT + DEF2-QZVPP-JKFIT
	 Reference Energy          =   -1216.4704838710847525 [Eh]
	 Singles Energy            =      -0.0000000000000000 [Eh]
	 Same-Spin Energy          =      -0.3597731943178122 [Eh]
	 Opposite-Spin Energy      =      -0.8379721091655599 [Eh]
	 Correlation Energy        =      -1.1977453034833720 [Eh]
	 Total Energy              =   -1217.6682291745680686 [Eh]

	 ================> DF-SCS-MP2 Energies <==================
	-----------------------------------------------------------
	 SCS Same-Spin Scale       =       0.3333333333333333 [-]
	 SCS Opposite-Spin Scale   =       1.2000000000000000 [-]
	 SCS Same-Spin Energy      =      -0.1199243981059374 [Eh]
	 SCS Opposite-Spin Energy  =      -1.0055665309986719 [Eh]
	 SCS Correlation Energy    =      -1.1254909291046094 [Eh]
	 SCS Total Energy          =   -1217.5959748001894241 [Eh]
	-----------------------------------------------------------

  Dipole Moment: [D]
     X:    -0.0034      Y:    -0.0022      Z:     0.0001     Total:     0.0041

*** Psi4 exiting successfully. Buy a developer a beer!
