                               Psi4 1.3.2 release

  ==> Input File <==

--------------------------------------------------------------------------
#psi4
#
memory 32 gb

molecule  {
0 1
  I        0.6945345    -1.0381067     1.7952530
  I       -1.9705740    -0.8044580    -0.5026980
  I        1.3755120    -0.3474320    -1.6644050
  I       -0.1635160     2.1485290     0.3742730
  C       -0.0000190    -0.0000110    -0.0000060
units angstrom
no_reorient  #important for SAPT in psi4, default
symmetry c1  #important for SAPT in psi4, default
}

set PROPERTIES_ORIGIN ["COM"]

basis mybas {
    assign aug-cc-pvtz
    assign I aug-cc-pvtz-pp
}
properties('MP2/mybas', properties = ['dipole'])
--------------------------------------------------------------------------

    Molecular point group: c1
  Charge       = 0
  Multiplicity = 1
  Basis Set: MYBAS
    Blend: AUG-CC-PVTZ + AUG-CC-PVTZ-PP
  Basis Set: (MYBAS AUX)
    Blend: AUG-CC-PVTZ-JKFIT + DEF2-QZVPP-JKFIT

    Orbital Energies [Eh]
    ---------------------

    Doubly Occupied:

       1A    -11.429200     2A     -7.747115     3A     -7.747113
       4A     -7.746683     5A     -7.745817     6A     -5.580324
       7A     -5.580320     8A     -5.579887     9A     -5.579006
      10A     -5.568189    11A     -5.568185    12A     -5.568173
      13A     -5.568169    14A     -5.567775    15A     -5.567730
      16A     -5.566916    17A     -5.566885    18A     -2.309929
      19A     -2.309746    20A     -2.309375    21A     -2.308502
      22A     -2.304344    23A     -2.304318    24A     -2.304312
      25A     -2.304262    26A     -2.303895    27A     -2.303863
      28A     -2.303030    29A     -2.303001    30A     -2.290862
      31A     -2.290858    32A     -2.290856    33A     -2.290852
      34A     -2.290441    35A     -2.290437    36A     -2.289607
      37A     -2.289606    38A     -1.051832    39A     -0.906687
      40A     -0.905496    41A     -0.903748    42A     -0.738034
      43A     -0.523805    44A     -0.522755    45A     -0.521406
      46A     -0.420809    47A     -0.418223    48A     -0.384795
      49A     -0.384057    50A     -0.382020    51A     -0.362936
      52A     -0.362035    53A     -0.360962

  @DF-RHF Final Energy: -1216.47031386503977

   => Energetics <=

    Nuclear Repulsion Energy =            700.8776567484128464
    One-Electron Energy =               -3505.8575723421427028
    Two-Electron Energy =                1588.5096017286900860
    Total Energy =                      -1216.4703138650397705
  Basis Set: (MYBAS AUX)
    Blend: AUG-CC-PVTZ-RI + DEF2-QZVPP-RI
    Molecular point group: c1

    Geometry (in Angstrom), charge = 0, multiplicity = 1:

       Center              X                  Y                   Z               Mass
    ------------   -----------------  -----------------  -----------------  -----------------
         I            0.710176060347    -1.027978933626     1.794661377689   126.904471900000
         I           -1.954932439653    -0.794330233626    -0.503289622311   126.904471900000
         I            1.391153560347    -0.337304233626    -1.664996622311   126.904471900000
         I           -0.147874439653     2.158656766374     0.373681377689   126.904471900000
         C            0.015622560347     0.010116766374    -0.000597622311    12.000000000000

  Basis Set: MYBAS
    Blend: AUG-CC-PVTZ + AUG-CC-PVTZ-PP
  Basis Set: (MYBAS AUX)
    Blend: AUG-CC-PVTZ-JKFIT + DEF2-QZVPP-JKFIT
	 Reference Energy          =   -1216.4703138650397705 [Eh]
	 Singles Energy            =      -0.0000000000000000 [Eh]
	 Same-Spin Energy          =      -0.3597860388148098 [Eh]
	 Opposite-Spin Energy      =      -0.8379915654584766 [Eh]
	 Correlation Energy        =      -1.1977776042732864 [Eh]
	 Total Energy              =   -1217.6680914693131399 [Eh]

	 ================> DF-SCS-MP2 Energies <==================
	-----------------------------------------------------------
	 SCS Same-Spin Scale       =       0.3333333333333333 [-]
	 SCS Opposite-Spin Scale   =       1.2000000000000000 [-]
	 SCS Same-Spin Energy      =      -0.1199286796049366 [Eh]
	 SCS Opposite-Spin Energy  =      -1.0055898785501720 [Eh]
	 SCS Correlation Energy    =      -1.1255185581551086 [Eh]
	 SCS Total Energy          =   -1217.5958324231949064 [Eh]
	-----------------------------------------------------------

  Dipole Moment: [D]
     X:     0.0064      Y:     0.0044      Z:    -0.0006     Total:     0.0078

*** Psi4 exiting successfully. Buy a developer a beer!
