                               Psi4 1.3.2 release

  ==> Input File <==

--------------------------------------------------------------------------
#psi4
#
memory 32 gb

molecule  {
0 1
  S        1.8205190     0.0641380    -0.3390420
  C       -1.2625450    -0.0636770     0.0596210
  C        0.8711260    -1.2781040     0.4345100
  C       -0.5666070    -1.2221760     0.0100460
  C       -0.5777350     1.1920400     0.3472900
  C       -2.7289820     0.0096020    -0.2663480
  C        0.7484780     1.3650420     0.1277540
  H        0.9719080    -1.1855360     1.5235300
  H        1.3455570    -2.2125020     0.1247530
  H       -1.0557030    -2.1491070    -0.2838310
  H       -1.1720770     2.0582400     0.6333130
  H       -2.9093790     0.6497060    -1.1365390
  H       -3.2903190     0.4352850     0.5730180
  H       -3.1351240    -0.9830860    -0.4783410
  H        1.1656629     2.3876388    -0.0498299
units angstrom
no_reorient  #important for SAPT in psi4, default
symmetry c1  #important for SAPT in psi4, default
}

set PROPERTIES_ORIGIN ["COM"]
properties('MP2/aug-cc-pvtz', properties = ['dipole'])
--------------------------------------------------------------------------

    Molecular point group: c1
  Charge       = 0
  Multiplicity = 1
  Basis Set: AUG-CC-PVTZ
    Blend: AUG-CC-PVTZ
  Basis Set: (AUG-CC-PVTZ AUX)
    Blend: AUG-CC-PVTZ-JKFIT

    Orbital Energies [Eh]
    ---------------------

    Doubly Occupied:

       1A    -91.960746     2A    -11.272469     3A    -11.264017
       4A    -11.244699     5A    -11.238143     6A    -11.231098
       7A    -11.227308     8A     -8.961231     9A     -6.642445
      10A     -6.641489    11A     -6.640652    12A     -1.144939
      13A     -1.047021    14A     -1.022324    15A     -0.936599
      16A     -0.849202    17A     -0.801107    18A     -0.675642
      19A     -0.658638    20A     -0.619830    21A     -0.604744
      22A     -0.575415    23A     -0.569877    24A     -0.534656
      25A     -0.517819    26A     -0.473225    27A     -0.461763
      28A     -0.442559    29A     -0.354712    30A     -0.293324

  @DF-RHF Final Energy:  -629.45274174019687

   => Energetics <=

    Nuclear Repulsion Energy =            346.6542120749780906
    One-Electron Energy =               -1550.3985227109205880
    Two-Electron Energy =                 574.2915688957455131
    Total Energy =                       -629.4527417401968705
  Basis Set: (AUG-CC-PVTZ AUX)
    Blend: AUG-CC-PVTZ-RI
    Molecular point group: c1

    Geometry (in Angstrom), charge = 0, multiplicity = 1:

       Center              X                  Y                   Z               Mass
    ------------   -----------------  -----------------  -----------------  -----------------
         S            1.750291750734     0.054532335489    -0.326793686274    31.972071174400
         C           -1.332772249266    -0.073282664511     0.071869313726    12.000000000000
         C            0.800898750734    -1.287709664511     0.446758313726    12.000000000000
         C           -0.636834249266    -1.231781664511     0.022294313726    12.000000000000
         C           -0.647962249266     1.182434335489     0.359538313726    12.000000000000
         C           -2.799209249266    -0.000003664511    -0.254099686274    12.000000000000
         C            0.678250750734     1.355436335489     0.140002313726    12.000000000000
         H            0.901680750734    -1.195141664511     1.535778313726     1.007825032230
         H            1.275329750734    -2.222107664511     0.137001313726     1.007825032230
         H           -1.125930249266    -2.158712664511    -0.271582686274     1.007825032230
         H           -1.242304249266     2.048634335489     0.645561313726     1.007825032230
         H           -2.979606249266     0.640100335489    -1.124290686274     1.007825032230
         H           -3.360546249266     0.425679335489     0.585266313726     1.007825032230
         H           -3.205351249266    -0.992691664511    -0.466092686274     1.007825032230
         H            1.095435650734     2.378033135489    -0.037581586274     1.007825032230

  Basis Set: AUG-CC-PVTZ
    Blend: AUG-CC-PVTZ
  Basis Set: (AUG-CC-PVTZ AUX)
    Blend: AUG-CC-PVTZ-JKFIT
	 Reference Energy          =    -629.4527417401968705 [Eh]
	 Singles Energy            =      -0.0000000000000000 [Eh]
	 Same-Spin Energy          =      -0.3122893765444531 [Eh]
	 Opposite-Spin Energy      =      -1.0194045963044303 [Eh]
	 Correlation Energy        =      -1.3316939728488832 [Eh]
	 Total Energy              =    -630.7844357130458093 [Eh]

	 ================> DF-SCS-MP2 Energies <==================
	-----------------------------------------------------------
	 SCS Same-Spin Scale       =       0.3333333333333333 [-]
	 SCS Opposite-Spin Scale   =       1.2000000000000000 [-]
	 SCS Same-Spin Energy      =      -0.1040964588481510 [Eh]
	 SCS Opposite-Spin Energy  =      -1.2232855155653162 [Eh]
	 SCS Correlation Energy    =      -1.3273819744134672 [Eh]
	 SCS Total Energy          =    -630.7801237146103404 [Eh]
	-----------------------------------------------------------

  Dipole Moment: [D]
     X:    -1.1049      Y:    -0.2814      Z:     0.3768     Total:     1.2008

*** Psi4 exiting successfully. Buy a developer a beer!
