                               Psi4 1.3.2 release

  ==> Input File <==

--------------------------------------------------------------------------
#psi4
#
memory 32 gb

molecule  {
0 1
  S        1.8205190     0.0641380    -0.3390420
  C       -1.2625450    -0.0636770     0.0596210
  C        0.8711260    -1.2781040     0.4345100
  C       -0.5666070    -1.2221760     0.0100460
  C       -0.5777350     1.1920400     0.3472900
  C       -2.7289820     0.0096020    -0.2663480
  C        0.7484780     1.3650420     0.1277540
  H        0.9719080    -1.1855360     1.5235300
  H        1.3455570    -2.2125020     0.1247530
  H       -1.0557030    -2.1491070    -0.2838310
  H       -1.1643120     2.0450404     0.6809100
  H       -2.9093790     0.6497060    -1.1365390
  H       -3.2903190     0.4352850     0.5730180
  H       -3.1351240    -0.9830860    -0.4783410
  H        1.2144190     2.3444380     0.1915340
units angstrom
no_reorient  #important for SAPT in psi4, default
symmetry c1  #important for SAPT in psi4, default
}

set PROPERTIES_ORIGIN ["COM"]
properties('MP2/aug-cc-pvtz', properties = ['dipole'])
--------------------------------------------------------------------------

    Molecular point group: c1
  Charge       = 0
  Multiplicity = 1
  Basis Set: AUG-CC-PVTZ
    Blend: AUG-CC-PVTZ
  Basis Set: (AUG-CC-PVTZ AUX)
    Blend: AUG-CC-PVTZ-JKFIT

    Orbital Energies [Eh]
    ---------------------

    Doubly Occupied:

       1A    -91.959167     2A    -11.268110     3A    -11.263974
       4A    -11.244143     5A    -11.237885     6A    -11.232227
       7A    -11.226791     8A     -8.959717     9A     -6.640952
      10A     -6.640017    11A     -6.639158    12A     -1.144830
      13A     -1.046895    14A     -1.022634    15A     -0.936283
      16A     -0.849125    17A     -0.803928    18A     -0.676249
      19A     -0.663015    20A     -0.619706    21A     -0.605599
      22A     -0.576609    23A     -0.569499    24A     -0.534375
      25A     -0.517623    26A     -0.477132    27A     -0.461481
      28A     -0.438995    29A     -0.353492    30A     -0.295559

  @DF-RHF Final Energy:  -629.45696300211443

   => Energetics <=

    Nuclear Repulsion Energy =            346.7820435772956671
    One-Electron Energy =               -1550.6676738781134191
    Two-Electron Energy =                 574.4286672987034308
    Total Energy =                       -629.4569630021144349
  Basis Set: (AUG-CC-PVTZ AUX)
    Blend: AUG-CC-PVTZ-RI
    Molecular point group: c1

    Geometry (in Angstrom), charge = 0, multiplicity = 1:

       Center              X                  Y                   Z               Mass
    ------------   -----------------  -----------------  -----------------  -----------------
         S            1.749783306529     0.055039693918    -0.329393078271    31.972071174400
         C           -1.333280693471    -0.072775306082     0.069269921729    12.000000000000
         C            0.800390306529    -1.287202306082     0.444158921729    12.000000000000
         C           -0.637342693471    -1.231274306082     0.019694921729    12.000000000000
         C           -0.648470693471     1.182941693918     0.356938921729    12.000000000000
         C           -2.799717693471     0.000503693918    -0.256699078271    12.000000000000
         C            0.677742306529     1.355943693918     0.137402921729    12.000000000000
         H            0.901172306529    -1.194634306082     1.533178921729     1.007825032230
         H            1.274821306529    -2.221600306082     0.134401921729     1.007825032230
         H           -1.126438693471    -2.158205306082    -0.274182078271     1.007825032230
         H           -1.235047693471     2.035942093918     0.690558921729     1.007825032230
         H           -2.980114693471     0.640607693918    -1.126890078271     1.007825032230
         H           -3.361054693471     0.426186693918     0.582666921729     1.007825032230
         H           -3.205859693471    -0.992184306082    -0.468692078271     1.007825032230
         H            1.143683306529     2.335339693918     0.201182921729     1.007825032230

  Basis Set: AUG-CC-PVTZ
    Blend: AUG-CC-PVTZ
  Basis Set: (AUG-CC-PVTZ AUX)
    Blend: AUG-CC-PVTZ-JKFIT
	 Reference Energy          =    -629.4569630021144349 [Eh]
	 Singles Energy            =      -0.0000000000000000 [Eh]
	 Same-Spin Energy          =      -0.3116346300013763 [Eh]
	 Opposite-Spin Energy      =      -1.0185742741540882 [Eh]
	 Correlation Energy        =      -1.3302089041554646 [Eh]
	 Total Energy              =    -630.7871719062699185 [Eh]

	 ================> DF-SCS-MP2 Energies <==================
	-----------------------------------------------------------
	 SCS Same-Spin Scale       =       0.3333333333333333 [-]
	 SCS Opposite-Spin Scale   =       1.2000000000000000 [-]
	 SCS Same-Spin Energy      =      -0.1038782100004587 [Eh]
	 SCS Opposite-Spin Energy  =      -1.2222891289849058 [Eh]
	 SCS Correlation Energy    =      -1.3261673389853645 [Eh]
	 SCS Total Energy          =    -630.7831303410997634 [Eh]
	-----------------------------------------------------------

  Dipole Moment: [D]
     X:    -1.1028      Y:    -0.2931      Z:     0.5803     Total:     1.2802

*** Psi4 exiting successfully. Buy a developer a beer!
