                               Psi4 1.3.2 release

  ==> Input File <==

--------------------------------------------------------------------------
#psi4
#
memory 32 gb

molecule  {
0 1
  S        1.8205190     0.0641380    -0.3390420
  C       -1.2625450    -0.0636770     0.0596210
  C        0.8711260    -1.2781040     0.4345100
  C       -0.5666070    -1.2221760     0.0100460
  C       -0.5777350     1.1920400     0.3472900
  C       -2.7289820     0.0096020    -0.2663480
  C        0.7484780     1.3650420     0.1277540
  H        0.9719080    -1.1855360     1.5235300
  H        1.3455570    -2.2125020     0.1247530
  H       -1.0557030    -2.1491070    -0.2838310
  H       -1.1720770     2.0582400     0.6333130
  H       -2.9093790     0.6497060    -1.1365390
  H       -3.2903190     0.4352850     0.5730180
  H       -3.1351240    -0.9830860    -0.4783410
  H        1.1949166     2.3617183     0.0949884
units angstrom
no_reorient  #important for SAPT in psi4, default
symmetry c1  #important for SAPT in psi4, default
}

set PROPERTIES_ORIGIN ["COM"]
properties('MP2/aug-cc-pvtz', properties = ['dipole'])
--------------------------------------------------------------------------

    Molecular point group: c1
  Charge       = 0
  Multiplicity = 1
  Basis Set: AUG-CC-PVTZ
    Blend: AUG-CC-PVTZ
  Basis Set: (AUG-CC-PVTZ AUX)
    Blend: AUG-CC-PVTZ-JKFIT

    Orbital Energies [Eh]
    ---------------------

    Doubly Occupied:

       1A    -91.959902     2A    -11.269429     3A    -11.264009
       4A    -11.244299     5A    -11.237750     6A    -11.231546
       7A    -11.226942     8A     -8.960424     9A     -6.641653
      10A     -6.640709    11A     -6.639859    12A     -1.144841
      13A     -1.046996    14A     -1.022608    15A     -0.936349
      16A     -0.849133    17A     -0.803359    18A     -0.675908
      19A     -0.662300    20A     -0.619812    21A     -0.604542
      22A     -0.576502    23A     -0.569733    24A     -0.534409
      25A     -0.517686    26A     -0.475374    27A     -0.461600
      28A     -0.441396    29A     -0.354063    30A     -0.294526

  @DF-RHF Final Energy:  -629.45632791614969

   => Energetics <=

    Nuclear Repulsion Energy =            346.7565199400994516
    One-Electron Energy =               -1550.6103745721079576
    Two-Electron Energy =                 574.3975267158588167
    Total Energy =                       -629.4563279161496894
  Basis Set: (AUG-CC-PVTZ AUX)
    Blend: AUG-CC-PVTZ-RI
    Molecular point group: c1

    Geometry (in Angstrom), charge = 0, multiplicity = 1:

       Center              X                  Y                   Z               Mass
    ------------   -----------------  -----------------  -----------------  -----------------
         S            1.750028594599     0.054765507313    -0.328096421454    31.972071174400
         C           -1.333035405401    -0.073049492687     0.070566578546    12.000000000000
         C            0.800635594599    -1.287476492687     0.445455578546    12.000000000000
         C           -0.637097405401    -1.231548492687     0.020991578546    12.000000000000
         C           -0.648225405401     1.182667507313     0.358235578546    12.000000000000
         C           -2.799472405401     0.000229507313    -0.255402421454    12.000000000000
         C            0.677987594599     1.355669507313     0.138699578546    12.000000000000
         H            0.901417594599    -1.194908492687     1.534475578546     1.007825032230
         H            1.275066594599    -2.221874492687     0.135698578546     1.007825032230
         H           -1.126193405401    -2.158479492687    -0.272885421454     1.007825032230
         H           -1.242567405401     2.048867507313     0.644258578546     1.007825032230
         H           -2.979869405401     0.640333507313    -1.125593421454     1.007825032230
         H           -3.360809405401     0.425912507313     0.583963578546     1.007825032230
         H           -3.205614405401    -0.992458492687    -0.467395421454     1.007825032230
         H            1.124426194599     2.352345807313     0.105933978546     1.007825032230

  Basis Set: AUG-CC-PVTZ
    Blend: AUG-CC-PVTZ
  Basis Set: (AUG-CC-PVTZ AUX)
    Blend: AUG-CC-PVTZ-JKFIT
	 Reference Energy          =    -629.4563279161496894 [Eh]
	 Singles Energy            =      -0.0000000000000000 [Eh]
	 Same-Spin Energy          =      -0.3118542160093100 [Eh]
	 Opposite-Spin Energy      =      -1.0187677556636139 [Eh]
	 Correlation Energy        =      -1.3306219716729237 [Eh]
	 Total Energy              =    -630.7869498878226295 [Eh]

	 ================> DF-SCS-MP2 Energies <==================
	-----------------------------------------------------------
	 SCS Same-Spin Scale       =       0.3333333333333333 [-]
	 SCS Opposite-Spin Scale   =       1.2000000000000000 [-]
	 SCS Same-Spin Energy      =      -0.1039514053364367 [Eh]
	 SCS Opposite-Spin Energy  =      -1.2225213067963365 [Eh]
	 SCS Correlation Energy    =      -1.3264727121327731 [Eh]
	 SCS Total Energy          =    -630.7828006282824163 [Eh]
	-----------------------------------------------------------

  Dipole Moment: [D]
     X:    -1.0949      Y:    -0.2760      Z:     0.4767     Total:     1.2257

*** Psi4 exiting successfully. Buy a developer a beer!
