                               Psi4 1.3.2 release

  ==> Input File <==

--------------------------------------------------------------------------
#psi4
#
memory 32 gb

molecule  {
0 1
  S        1.8205190     0.0641380    -0.3390420
  C       -1.2625450    -0.0636770     0.0596210
  C        0.8711260    -1.2781040     0.4345100
  C       -0.5666070    -1.2221760     0.0100460
  C       -0.5777350     1.1920400     0.3472900
  C       -2.7289820     0.0096020    -0.2663480
  C        0.7484780     1.3650420     0.1277540
  H        0.9719080    -1.1855360     1.5235300
  H        1.3455570    -2.2125020     0.1247530
  H       -1.0557030    -2.1491070    -0.2838310
  H       -1.1720770     2.0582400     0.6333130
  H       -2.9093790     0.6497060    -1.1365390
  H       -3.2903190     0.4352850     0.5730180
  H       -3.1351240    -0.9830860    -0.4783410
  H        1.1754141     2.3789987    -0.0015571
units angstrom
no_reorient  #important for SAPT in psi4, default
symmetry c1  #important for SAPT in psi4, default
}

set PROPERTIES_ORIGIN ["COM"]
properties('MP2/aug-cc-pvtz', properties = ['dipole'])
--------------------------------------------------------------------------

    Molecular point group: c1
  Charge       = 0
  Multiplicity = 1
  Basis Set: AUG-CC-PVTZ
    Blend: AUG-CC-PVTZ
  Basis Set: (AUG-CC-PVTZ AUX)
    Blend: AUG-CC-PVTZ-JKFIT

    Orbital Energies [Eh]
    ---------------------

    Doubly Occupied:

       1A    -91.960478     2A    -11.271292     3A    -11.264011
       4A    -11.244541     5A    -11.237932     6A    -11.231192
       7A    -11.227165     8A     -8.960976     9A     -6.642194
      10A     -6.641243    11A     -6.640402    12A     -1.144893
      13A     -1.047017    14A     -1.022440    15A     -0.936498
      16A     -0.849168    17A     -0.802013    18A     -0.675687
      19A     -0.660167    20A     -0.619842    21A     -0.604653
      22A     -0.575888    23A     -0.569819    24A     -0.534554
      25A     -0.517758    26A     -0.473737    27A     -0.461934
      28A     -0.442307    29A     -0.354497    30A     -0.293702

  @DF-RHF Final Energy:  -629.45432030515701

   => Energetics <=

    Nuclear Repulsion Energy =            346.6965128843146431
    One-Electron Energy =               -1550.4856636940235148
    Two-Electron Energy =                 574.3348305045518600
    Total Energy =                       -629.4543203051570117
  Basis Set: (AUG-CC-PVTZ AUX)
    Blend: AUG-CC-PVTZ-RI
    Molecular point group: c1

    Geometry (in Angstrom), charge = 0, multiplicity = 1:

       Center              X                  Y                   Z               Mass
    ------------   -----------------  -----------------  -----------------  -----------------
         S            1.750204032322     0.054610058831    -0.327227931634    31.972071174400
         C           -1.332859967678    -0.073204941169     0.071435068366    12.000000000000
         C            0.800811032322    -1.287631941169     0.446324068366    12.000000000000
         C           -0.636921967678    -1.231703941169     0.021860068366    12.000000000000
         C           -0.648049967678     1.182512058831     0.359104068366    12.000000000000
         C           -2.799296967678     0.000074058831    -0.254533931634    12.000000000000
         C            0.678163032322     1.355514058831     0.139568068366    12.000000000000
         H            0.901593032322    -1.195063941169     1.535344068366     1.007825032230
         H            1.275242032322    -2.222029941169     0.136567068366     1.007825032230
         H           -1.126017967678    -2.158634941169    -0.272016931634     1.007825032230
         H           -1.242391967678     2.048712058831     0.645127068366     1.007825032230
         H           -2.979693967678     0.640178058831    -1.124724931634     1.007825032230
         H           -3.360633967678     0.425757058831     0.584832068366     1.007825032230
         H           -3.205438967678    -0.992613941169    -0.466526931634     1.007825032230
         H            1.105099132322     2.369470758831     0.010256968366     1.007825032230

  Basis Set: AUG-CC-PVTZ
    Blend: AUG-CC-PVTZ
  Basis Set: (AUG-CC-PVTZ AUX)
    Blend: AUG-CC-PVTZ-JKFIT
	 Reference Energy          =    -629.4543203051570117 [Eh]
	 Singles Energy            =      -0.0000000000000000 [Eh]
	 Same-Spin Energy          =      -0.3121263579002561 [Eh]
	 Opposite-Spin Energy      =      -1.0191437694568983 [Eh]
	 Correlation Energy        =      -1.3312701273571546 [Eh]
	 Total Energy              =    -630.7855904325141410 [Eh]

	 ================> DF-SCS-MP2 Energies <==================
	-----------------------------------------------------------
	 SCS Same-Spin Scale       =       0.3333333333333333 [-]
	 SCS Opposite-Spin Scale   =       1.2000000000000000 [-]
	 SCS Same-Spin Energy      =      -0.1040421193000854 [Eh]
	 SCS Opposite-Spin Energy  =      -1.2229725233482780 [Eh]
	 SCS Correlation Energy    =      -1.3270146426483633 [Eh]
	 SCS Total Energy          =    -630.7813349478053624 [Eh]
	-----------------------------------------------------------

  Dipole Moment: [D]
     X:    -1.0991      Y:    -0.2769      Z:     0.4095     Total:     1.2052

*** Psi4 exiting successfully. Buy a developer a beer!
