                               Psi4 1.3.2 release

  ==> Input File <==

--------------------------------------------------------------------------
#psi4
#
memory 32 gb

molecule  {
0 1
  S        1.8205190     0.0641380    -0.3390420
  C       -1.2625450    -0.0636770     0.0596210
  C        0.8711260    -1.2781040     0.4345100
  C       -0.5666070    -1.2221760     0.0100460
  C       -0.5777350     1.1920400     0.3472900
  C       -2.7289820     0.0096020    -0.2663480
  C        0.7484780     1.3650420     0.1277540
  H        0.9719080    -1.1855360     1.5235300
  H        1.3455570    -2.2125020     0.1247530
  H       -1.0557030    -2.1491070    -0.2838310
  H       -1.1720770     2.0582400     0.6333130
  H       -2.9093790     0.6497060    -1.1365390
  H       -3.2903190     0.4352850     0.5730180
  H       -3.1351240    -0.9830860    -0.4783410
  H        1.1851653     2.3703585     0.0467157
units angstrom
no_reorient  #important for SAPT in psi4, default
symmetry c1  #important for SAPT in psi4, default
}

set PROPERTIES_ORIGIN ["COM"]
properties('MP2/aug-cc-pvtz', properties = ['dipole'])
--------------------------------------------------------------------------

    Molecular point group: c1
  Charge       = 0
  Multiplicity = 1
  Basis Set: AUG-CC-PVTZ
    Blend: AUG-CC-PVTZ
  Basis Set: (AUG-CC-PVTZ AUX)
    Blend: AUG-CC-PVTZ-JKFIT

    Orbital Energies [Eh]
    ---------------------

    Doubly Occupied:

       1A    -91.960197     2A    -11.270276     3A    -11.264008
       4A    -11.244408     5A    -11.237800     6A    -11.231341
       7A    -11.227043     8A     -8.960707     9A     -6.641931
      10A     -6.640983    11A     -6.640138    12A     -1.144860
      13A     -1.047010    14A     -1.022536    15A     -0.936415
      16A     -0.849146    17A     -0.802773    18A     -0.675778
      19A     -0.661395    20A     -0.619835    21A     -0.604586
      22A     -0.576251    23A     -0.569770    24A     -0.534472
      25A     -0.517714    26A     -0.474467    27A     -0.461867
      28A     -0.441917    29A     -0.354281    30A     -0.294103

  @DF-RHF Final Energy:  -629.45550120125336

   => Energetics <=

    Nuclear Repulsion Energy =            346.7307608113555943
    One-Electron Energy =               -1550.5565116652028337
    Two-Electron Energy =                 574.3702496525938841
    Total Energy =                       -629.4555012012533552
  Basis Set: (AUG-CC-PVTZ AUX)
    Blend: AUG-CC-PVTZ-RI
    Molecular point group: c1

    Geometry (in Angstrom), charge = 0, multiplicity = 1:

       Center              X                  Y                   Z               Mass
    ------------   -----------------  -----------------  -----------------  -----------------
         S            1.750116313910     0.054687783072    -0.327662176994    31.972071174400
         C           -1.332947686090    -0.073127216928     0.071000823006    12.000000000000
         C            0.800723313910    -1.287554216928     0.445889823006    12.000000000000
         C           -0.637009686090    -1.231626216928     0.021425823006    12.000000000000
         C           -0.648137686090     1.182589783072     0.358669823006    12.000000000000
         C           -2.799384686090     0.000151783072    -0.254968176994    12.000000000000
         C            0.678075313910     1.355591783072     0.139133823006    12.000000000000
         H            0.901505313910    -1.194986216928     1.534909823006     1.007825032230
         H            1.275154313910    -2.221952216928     0.136132823006     1.007825032230
         H           -1.126105686090    -2.158557216928    -0.272451176994     1.007825032230
         H           -1.242479686090     2.048789783072     0.644692823006     1.007825032230
         H           -2.979781686090     0.640255783072    -1.125159176994     1.007825032230
         H           -3.360721686090     0.425834783072     0.584397823006     1.007825032230
         H           -3.205526686090    -0.992536216928    -0.466961176994     1.007825032230
         H            1.114762613910     2.360908283072     0.058095523006     1.007825032230

  Basis Set: AUG-CC-PVTZ
    Blend: AUG-CC-PVTZ
  Basis Set: (AUG-CC-PVTZ AUX)
    Blend: AUG-CC-PVTZ-JKFIT
	 Reference Energy          =    -629.4555012012533552 [Eh]
	 Singles Energy            =      -0.0000000000000000 [Eh]
	 Same-Spin Energy          =      -0.3119810503186713 [Eh]
	 Opposite-Spin Energy      =      -1.0189317254395054 [Eh]
	 Correlation Energy        =      -1.3309127757581767 [Eh]
	 Total Energy              =    -630.7864139770115344 [Eh]

	 ================> DF-SCS-MP2 Energies <==================
	-----------------------------------------------------------
	 SCS Same-Spin Scale       =       0.3333333333333333 [-]
	 SCS Opposite-Spin Scale   =       1.2000000000000000 [-]
	 SCS Same-Spin Energy      =      -0.1039936834395571 [Eh]
	 SCS Opposite-Spin Energy  =      -1.2227180705274063 [Eh]
	 SCS Correlation Energy    =      -1.3267117539669635 [Eh]
	 SCS Total Energy          =    -630.7822129552203023 [Eh]
	-----------------------------------------------------------

  Dipole Moment: [D]
     X:    -1.0957      Y:    -0.2751      Z:     0.4428     Total:     1.2134

*** Psi4 exiting successfully. Buy a developer a beer!
