                               Psi4 1.3.2 release

  ==> Input File <==

--------------------------------------------------------------------------
#psi4
#
memory 32 gb

molecule  {
0 1
  S        1.8205190     0.0641380    -0.3390420
  C       -1.2625450    -0.0636770     0.0596210
  C        0.8711260    -1.2781040     0.4345100
  C       -0.5666070    -1.2221760     0.0100460
  C       -0.5777350     1.1920400     0.3472900
  C       -2.7289820     0.0096020    -0.2663480
  C        0.7484780     1.3650420     0.1277540
  H        0.9719080    -1.1855360     1.5235300
  H        1.3455570    -2.2125020     0.1247530
  H       -1.0557030    -2.1491070    -0.2838310
  H       -1.1720770     2.0582400     0.6333130
  H       -2.9093790     0.6497060    -1.1365390
  H       -3.2903190     0.4352850     0.5730180
  H       -3.1351240    -0.9830860    -0.4783410
  H        1.2046678     2.3530782     0.1432612
units angstrom
no_reorient  #important for SAPT in psi4, default
symmetry c1  #important for SAPT in psi4, default
}

set PROPERTIES_ORIGIN ["COM"]
properties('MP2/aug-cc-pvtz', properties = ['dipole'])
--------------------------------------------------------------------------

    Molecular point group: c1
  Charge       = 0
  Multiplicity = 1
  Basis Set: AUG-CC-PVTZ
    Blend: AUG-CC-PVTZ
  Basis Set: (AUG-CC-PVTZ AUX)
    Blend: AUG-CC-PVTZ-JKFIT

    Orbital Energies [Eh]
    ---------------------

    Doubly Occupied:

       1A    -91.959591     2A    -11.268759     3A    -11.264012
       4A    -11.244215     5A    -11.237783     6A    -11.231806
       7A    -11.226863     8A     -8.960127     9A     -6.641361
      10A     -6.640419    11A     -6.639565    12A     -1.144836
      13A     -1.046972    14A     -1.022655    15A     -0.936302
      16A     -0.849130    17A     -0.803752    18A     -0.676068
      19A     -0.662872    20A     -0.619776    21A     -0.604523
      22A     -0.576643    23A     -0.569712    24A     -0.534367
      25A     -0.517675    26A     -0.476405    27A     -0.461184
      28A     -0.440749    29A     -0.353842    30A     -0.294969

  @DF-RHF Final Energy:  -629.45683723662557

   => Energetics <=

    Nuclear Repulsion Energy =            346.7734510501019258
    One-Electron Energy =               -1550.6467121135872276
    Two-Electron Energy =                 574.4164238268596137
    Total Energy =                       -629.4568372366255744
  Basis Set: (AUG-CC-PVTZ AUX)
    Blend: AUG-CC-PVTZ-RI
    Molecular point group: c1

    Geometry (in Angstrom), charge = 0, multiplicity = 1:

       Center              X                  Y                   Z               Mass
    ------------   -----------------  -----------------  -----------------  -----------------
         S            1.749940876187     0.054843230655    -0.328530666814    31.972071174400
         C           -1.333123123813    -0.072971769345     0.070132333186    12.000000000000
         C            0.800547876187    -1.287398769345     0.445021333186    12.000000000000
         C           -0.637185123813    -1.231470769345     0.020557333186    12.000000000000
         C           -0.648313123813     1.182745230655     0.357801333186    12.000000000000
         C           -2.799560123813     0.000307230655    -0.255836666814    12.000000000000
         C            0.677899876187     1.355747230655     0.138265333186    12.000000000000
         H            0.901329876187    -1.194830769345     1.534041333186     1.007825032230
         H            1.274978876187    -2.221796769345     0.135264333186     1.007825032230
         H           -1.126281123813    -2.158401769345    -0.273319666814     1.007825032230
         H           -1.242655123813     2.048945230655     0.643824333186     1.007825032230
         H           -2.979957123813     0.640411230655    -1.126027666814     1.007825032230
         H           -3.360897123813     0.425990230655     0.583529333186     1.007825032230
         H           -3.205702123813    -0.992380769345    -0.467829666814     1.007825032230
         H            1.134089676187     2.343783430655     0.153772533186     1.007825032230

  Basis Set: AUG-CC-PVTZ
    Blend: AUG-CC-PVTZ
  Basis Set: (AUG-CC-PVTZ AUX)
    Blend: AUG-CC-PVTZ-JKFIT
	 Reference Energy          =    -629.4568372366255744 [Eh]
	 Singles Energy            =      -0.0000000000000000 [Eh]
	 Same-Spin Energy          =      -0.3117464344482824 [Eh]
	 Opposite-Spin Energy      =      -1.0186509041002880 [Eh]
	 Correlation Energy        =      -1.3303973385485703 [Eh]
	 Total Energy              =    -630.7872345751741250 [Eh]

	 ================> DF-SCS-MP2 Energies <==================
	-----------------------------------------------------------
	 SCS Same-Spin Scale       =       0.3333333333333333 [-]
	 SCS Opposite-Spin Scale   =       1.2000000000000000 [-]
	 SCS Same-Spin Energy      =      -0.1039154781494274 [Eh]
	 SCS Opposite-Spin Energy  =      -1.2223810849203456 [Eh]
	 SCS Correlation Energy    =      -1.3262965630697729 [Eh]
	 SCS Total Energy          =    -630.7831337996952925 [Eh]
	-----------------------------------------------------------

  Dipole Moment: [D]
     X:    -1.0967      Y:    -0.2796      Z:     0.5110     Total:     1.2418

*** Psi4 exiting successfully. Buy a developer a beer!
