                               Psi4 1.3.2 release

  ==> Input File <==

--------------------------------------------------------------------------
#psi4
#
memory 32 gb

molecule  {
0 1
  S        1.8205190     0.0641380    -0.3390420
  C       -1.2625450    -0.0636770     0.0596210
  C        0.8711260    -1.2781040     0.4345100
  C       -0.5666070    -1.2221760     0.0100460
  C       -0.5777350     1.1920400     0.3472900
  C       -2.7289820     0.0096020    -0.2663480
  C        0.7484780     1.3650420     0.1277540
  H        0.9719080    -1.1855360     1.5235300
  H        1.3455570    -2.2125020     0.1247530
  H       -1.0557030    -2.1491070    -0.2838310
  H       -1.1410169     2.0054415     0.8237010
  H       -2.9093790     0.6497060    -1.1365390
  H       -3.2903190     0.4352850     0.5730180
  H       -3.1351240    -0.9830860    -0.4783410
  H        1.2144190     2.3444380     0.1915340
units angstrom
no_reorient  #important for SAPT in psi4, default
symmetry c1  #important for SAPT in psi4, default
}

set PROPERTIES_ORIGIN ["COM"]
properties('MP2/aug-cc-pvtz', properties = ['dipole'])
--------------------------------------------------------------------------

    Molecular point group: c1
  Charge       = 0
  Multiplicity = 1
  Basis Set: AUG-CC-PVTZ
    Blend: AUG-CC-PVTZ
  Basis Set: (AUG-CC-PVTZ AUX)
    Blend: AUG-CC-PVTZ-JKFIT

    Orbital Energies [Eh]
    ---------------------

    Doubly Occupied:

       1A    -91.959177     2A    -11.268163     3A    -11.263998
       4A    -11.244141     5A    -11.239029     6A    -11.232545
       7A    -11.226641     8A     -8.959726     9A     -6.640952
      10A     -6.640030    11A     -6.639172    12A     -1.144830
      13A     -1.046858    14A     -1.022312    15A     -0.936242
      16A     -0.848554    17A     -0.803973    18A     -0.674555
      19A     -0.662554    20A     -0.619716    21A     -0.607635
      22A     -0.576295    23A     -0.568655    24A     -0.534394
      25A     -0.517489    26A     -0.476273    27A     -0.463774
      28A     -0.435344    29A     -0.353189    30A     -0.296065

  @DF-RHF Final Energy:  -629.45496647410766

   => Energetics <=

    Nuclear Repulsion Energy =            346.7305629581054518
    One-Electron Energy =               -1550.5664958155284694
    Two-Electron Energy =                 574.3809663833152399
    Total Energy =                       -629.4549664741076640
  Basis Set: (AUG-CC-PVTZ AUX)
    Blend: AUG-CC-PVTZ-RI
    Molecular point group: c1

    Geometry (in Angstrom), charge = 0, multiplicity = 1:

       Center              X                  Y                   Z               Mass
    ------------   -----------------  -----------------  -----------------  -----------------
         S            1.749573751892     0.055395911883    -0.330677576564    31.972071174400
         C           -1.333490248108    -0.072419088117     0.067985423436    12.000000000000
         C            0.800180751892    -1.286846088117     0.442874423436    12.000000000000
         C           -0.637552248108    -1.230918088117     0.018410423436    12.000000000000
         C           -0.648680248108     1.183297911883     0.355654423436    12.000000000000
         C           -2.799927248108     0.000859911883    -0.257983576564    12.000000000000
         C            0.677532751892     1.356299911883     0.136118423436    12.000000000000
         H            0.900962751892    -1.194278088117     1.531894423436     1.007825032230
         H            1.274611751892    -2.221244088117     0.133117423436     1.007825032230
         H           -1.126648248108    -2.157849088117    -0.275466576564     1.007825032230
         H           -1.211962148108     1.996699411883     0.832065423436     1.007825032230
         H           -2.980324248108     0.640963911883    -1.128174576564     1.007825032230
         H           -3.361264248108     0.426542911883     0.581382423436     1.007825032230
         H           -3.206069248108    -0.991828088117    -0.469976576564     1.007825032230
         H            1.143473751892     2.335695911883     0.199898423436     1.007825032230

  Basis Set: AUG-CC-PVTZ
    Blend: AUG-CC-PVTZ
  Basis Set: (AUG-CC-PVTZ AUX)
    Blend: AUG-CC-PVTZ-JKFIT
	 Reference Energy          =    -629.4549664741076640 [Eh]
	 Singles Energy            =      -0.0000000000000000 [Eh]
	 Same-Spin Energy          =      -0.3116634625152532 [Eh]
	 Opposite-Spin Energy      =      -1.0188053930232408 [Eh]
	 Correlation Energy        =      -1.3304688555384940 [Eh]
	 Total Energy              =    -630.7854353296461341 [Eh]

	 ================> DF-SCS-MP2 Energies <==================
	-----------------------------------------------------------
	 SCS Same-Spin Scale       =       0.3333333333333333 [-]
	 SCS Opposite-Spin Scale   =       1.2000000000000000 [-]
	 SCS Same-Spin Energy      =      -0.1038878208384177 [Eh]
	 SCS Opposite-Spin Energy  =      -1.2225664716278890 [Eh]
	 SCS Correlation Energy    =      -1.3264542924663068 [Eh]
	 SCS Total Energy          =    -630.7814207665740014 [Eh]
	-----------------------------------------------------------

  Dipole Moment: [D]
     X:    -1.0883      Y:    -0.3330      Z:     0.6782     Total:     1.3249

*** Psi4 exiting successfully. Buy a developer a beer!
