                               Psi4 1.3.2 release

  ==> Input File <==

--------------------------------------------------------------------------
#psi4
#
memory 32 gb

molecule  {
0 1
  S        1.8205190     0.0641380    -0.3390420
  C       -1.2625450    -0.0636770     0.0596210
  C        0.8711260    -1.2781040     0.4345100
  C       -0.5666070    -1.2221760     0.0100460
  C       -0.5777350     1.1920400     0.3472900
  C       -2.7289820     0.0096020    -0.2663480
  C        0.7484780     1.3650420     0.1277540
  H        0.9719080    -1.1855360     1.5235300
  H        1.3455570    -2.2125020     0.1247530
  H       -1.0557030    -2.1491070    -0.2838310
  H       -1.1565470     2.0318408     0.7285070
  H       -2.9093790     0.6497060    -1.1365390
  H       -3.2903190     0.4352850     0.5730180
  H       -3.1351240    -0.9830860    -0.4783410
  H        1.2144190     2.3444380     0.1915340
units angstrom
no_reorient  #important for SAPT in psi4, default
symmetry c1  #important for SAPT in psi4, default
}

set PROPERTIES_ORIGIN ["COM"]
properties('MP2/aug-cc-pvtz', properties = ['dipole'])
--------------------------------------------------------------------------

    Molecular point group: c1
  Charge       = 0
  Multiplicity = 1
  Basis Set: AUG-CC-PVTZ
    Blend: AUG-CC-PVTZ
  Basis Set: (AUG-CC-PVTZ AUX)
    Blend: AUG-CC-PVTZ-JKFIT

    Orbital Energies [Eh]
    ---------------------

    Doubly Occupied:

       1A    -91.959120     2A    -11.268038     3A    -11.263956
       4A    -11.244136     5A    -11.238070     6A    -11.232333
       7A    -11.226758     8A     -8.959669     9A     -6.640902
      10A     -6.639970    11A     -6.639112    12A     -1.144823
      13A     -1.046867    14A     -1.022558    15A     -0.936281
      16A     -0.849022    17A     -0.803931    18A     -0.675958
      19A     -0.662897    20A     -0.619697    21A     -0.606477
      22A     -0.576519    23A     -0.569257    24A     -0.534392
      25A     -0.517571    26A     -0.476796    27A     -0.462278
      28A     -0.437885    29A     -0.353380    30A     -0.295709

  @DF-RHF Final Energy:  -629.45659011841394

   => Energetics <=

    Nuclear Repulsion Energy =            346.7737451655069663
    One-Electron Energy =               -1550.6519466325576104
    Two-Electron Energy =                 574.4216113486365884
    Total Energy =                       -629.4565901184139420
  Basis Set: (AUG-CC-PVTZ AUX)
    Blend: AUG-CC-PVTZ-RI
    Molecular point group: c1

    Geometry (in Angstrom), charge = 0, multiplicity = 1:

       Center              X                  Y                   Z               Mass
    ------------   -----------------  -----------------  -----------------  -----------------
         S            1.749713455283     0.055158432940    -0.329821244369    31.972071174400
         C           -1.333350544717    -0.072656567060     0.068841755631    12.000000000000
         C            0.800320455283    -1.287083567060     0.443730755631    12.000000000000
         C           -0.637412544717    -1.231155567060     0.019266755631    12.000000000000
         C           -0.648540544717     1.183060432940     0.356510755631    12.000000000000
         C           -2.799787544717     0.000622432940    -0.257127244369    12.000000000000
         C            0.677672455283     1.356062432940     0.136974755631    12.000000000000
         H            0.901102455283    -1.194515567060     1.532750755631     1.007825032230
         H            1.274751455283    -2.221481567060     0.133973755631     1.007825032230
         H           -1.126508544717    -2.158086567060    -0.274610244369     1.007825032230
         H           -1.227352544717     2.022861232940     0.737727755631     1.007825032230
         H           -2.980184544717     0.640726432940    -1.127318244369     1.007825032230
         H           -3.361124544717     0.426305432940     0.582238755631     1.007825032230
         H           -3.205929544717    -0.992065567060    -0.469120244369     1.007825032230
         H            1.143613455283     2.335458432940     0.200754755631     1.007825032230

  Basis Set: AUG-CC-PVTZ
    Blend: AUG-CC-PVTZ
  Basis Set: (AUG-CC-PVTZ AUX)
    Blend: AUG-CC-PVTZ-JKFIT
	 Reference Energy          =    -629.4565901184139420 [Eh]
	 Singles Energy            =      -0.0000000000000000 [Eh]
	 Same-Spin Energy          =      -0.3116276362147453 [Eh]
	 Opposite-Spin Energy      =      -1.0186091540952056 [Eh]
	 Correlation Energy        =      -1.3302367903099510 [Eh]
	 Total Energy              =    -630.7868269087239241 [Eh]

	 ================> DF-SCS-MP2 Energies <==================
	-----------------------------------------------------------
	 SCS Same-Spin Scale       =       0.3333333333333333 [-]
	 SCS Opposite-Spin Scale   =       1.2000000000000000 [-]
	 SCS Same-Spin Energy      =      -0.1038758787382484 [Eh]
	 SCS Opposite-Spin Energy  =      -1.2223309849142467 [Eh]
	 SCS Correlation Energy    =      -1.3262068636524953 [Eh]
	 SCS Total Energy          =    -630.7827969820664293 [Eh]
	-----------------------------------------------------------

  Dipole Moment: [D]
     X:    -1.1012      Y:    -0.3035      Z:     0.6141     Total:     1.2969

*** Psi4 exiting successfully. Buy a developer a beer!
