                               Psi4 1.3.2 release

  ==> Input File <==

--------------------------------------------------------------------------
#psi4
#
memory 32 gb

molecule  {
0 1
  S        1.8205190     0.0641380    -0.3390420
  C       -1.2625450    -0.0636770     0.0596210
  C        0.8711260    -1.2781040     0.4345100
  C       -0.5666070    -1.2221760     0.0100460
  C       -0.5777350     1.1920400     0.3472900
  C       -2.7289820     0.0096020    -0.2663480
  C        0.7484780     1.3650420     0.1277540
  H        0.9719080    -1.1855360     1.5235300
  H        1.3455570    -2.2125020     0.1247530
  H       -1.0557030    -2.1491070    -0.2838310
  H       -1.1332519     1.9922419     0.8712980
  H       -2.9093790     0.6497060    -1.1365390
  H       -3.2903190     0.4352850     0.5730180
  H       -3.1351240    -0.9830860    -0.4783410
  H        1.2144190     2.3444380     0.1915340
units angstrom
no_reorient  #important for SAPT in psi4, default
symmetry c1  #important for SAPT in psi4, default
}

set PROPERTIES_ORIGIN ["COM"]
properties('MP2/aug-cc-pvtz', properties = ['dipole'])
--------------------------------------------------------------------------

    Molecular point group: c1
  Charge       = 0
  Multiplicity = 1
  Basis Set: AUG-CC-PVTZ
    Blend: AUG-CC-PVTZ
  Basis Set: (AUG-CC-PVTZ AUX)
    Blend: AUG-CC-PVTZ-JKFIT

    Orbital Energies [Eh]
    ---------------------

    Doubly Occupied:

       1A    -91.959283     2A    -11.268360     3A    -11.264058
       4A    -11.244157     5A    -11.239791     6A    -11.232651
       7A    -11.226556     8A     -8.959831     9A     -6.641054
      10A     -6.640136    11A     -6.639278    12A     -1.144845
      13A     -1.046880    14A     -1.022150    15A     -0.936205
      16A     -0.848205    17A     -0.804012    18A     -0.673530
      19A     -0.662285    20A     -0.619744    21A     -0.607903
      22A     -0.576172    23A     -0.568283    24A     -0.534380
      25A     -0.517459    26A     -0.476087    27A     -0.464457
      28A     -0.433936    29A     -0.353108    30A     -0.296272

  @DF-RHF Final Energy:  -629.45366566608413

   => Energetics <=

    Nuclear Repulsion Energy =            346.6962050403747071
    One-Electron Energy =               -1550.4976041557486042
    Two-Electron Energy =                 574.3477334492897626
    Total Energy =                       -629.4536656660841345
  Basis Set: (AUG-CC-PVTZ AUX)
    Blend: AUG-CC-PVTZ-RI
    Molecular point group: c1

    Geometry (in Angstrom), charge = 0, multiplicity = 1:

       Center              X                  Y                   Z               Mass
    ------------   -----------------  -----------------  -----------------  -----------------
         S            1.749503900646     0.055514650905    -0.331105742662    31.972071174400
         C           -1.333560099354    -0.072300349095     0.067557257338    12.000000000000
         C            0.800110900646    -1.286727349095     0.442446257338    12.000000000000
         C           -0.637622099354    -1.230799349095     0.017982257338    12.000000000000
         C           -0.648750099354     1.183416650905     0.355226257338    12.000000000000
         C           -2.799997099354     0.000978650905    -0.258411742662    12.000000000000
         C            0.677462900646     1.356418650905     0.135690257338    12.000000000000
         H            0.900892900646    -1.194159349095     1.531466257338     1.007825032230
         H            1.274541900646    -2.221125349095     0.132689257338     1.007825032230
         H           -1.126718099354    -2.157730349095    -0.275894742662     1.007825032230
         H           -1.204266999354     1.983618550905     0.879234257338     1.007825032230
         H           -2.980394099354     0.641082650905    -1.128602742662     1.007825032230
         H           -3.361334099354     0.426661650905     0.580954257338     1.007825032230
         H           -3.206139099354    -0.991709349095    -0.470404742662     1.007825032230
         H            1.143403900646     2.335814650905     0.199470257338     1.007825032230

  Basis Set: AUG-CC-PVTZ
    Blend: AUG-CC-PVTZ
  Basis Set: (AUG-CC-PVTZ AUX)
    Blend: AUG-CC-PVTZ-JKFIT
	 Reference Energy          =    -629.4536656660841345 [Eh]
	 Singles Energy            =      -0.0000000000000000 [Eh]
	 Same-Spin Energy          =      -0.3117061417650200 [Eh]
	 Opposite-Spin Energy      =      -1.0189696855291492 [Eh]
	 Correlation Energy        =      -1.3306758272941692 [Eh]
	 Total Energy              =    -630.7843414933782924 [Eh]

	 ================> DF-SCS-MP2 Energies <==================
	-----------------------------------------------------------
	 SCS Same-Spin Scale       =       0.3333333333333333 [-]
	 SCS Opposite-Spin Scale   =       1.2000000000000000 [-]
	 SCS Same-Spin Energy      =      -0.1039020472550067 [Eh]
	 SCS Opposite-Spin Energy  =      -1.2227636226349790 [Eh]
	 SCS Correlation Energy    =      -1.3266656698899857 [Eh]
	 SCS Total Energy          =    -630.7803313359740969 [Eh]
	-----------------------------------------------------------

  Dipole Moment: [D]
     X:    -1.0772      Y:    -0.3521      Z:     0.7081     Total:     1.3363

*** Psi4 exiting successfully. Buy a developer a beer!
