                               Psi4 1.3.2 release

  ==> Input File <==

--------------------------------------------------------------------------
#psi4
#
memory 32 gb

molecule  {
0 1
  S        1.8205190     0.0641380    -0.3390420
  C       -1.2625450    -0.0636770     0.0596210
  C        0.8711260    -1.2781040     0.4345100
  C       -0.5666070    -1.2221760     0.0100460
  C       -0.5777350     1.1920400     0.3472900
  C       -2.7289820     0.0096020    -0.2663480
  C        0.7484780     1.3650420     0.1277540
  H        0.9719080    -1.1855360     1.5235300
  H        1.3455570    -2.2125020     0.1247530
  H       -1.0557030    -2.1491070    -0.2838310
  H       -1.1720770     2.0582400     0.6333130
  H       -2.9093790     0.6497060    -1.1365390
  H       -3.2903190     0.4352850     0.5730180
  H       -3.1351240    -0.9830860    -0.4783410
  H        1.2144190     2.3444380     0.1915340
units angstrom
no_reorient  #important for SAPT in psi4, default
symmetry c1  #important for SAPT in psi4, default
}

set PROPERTIES_ORIGIN ["COM"]
properties('MP2/aug-cc-pvtz', properties = ['dipole'])
--------------------------------------------------------------------------

    Molecular point group: c1
  Charge       = 0
  Multiplicity = 1
  Basis Set: AUG-CC-PVTZ
    Blend: AUG-CC-PVTZ
  Basis Set: (AUG-CC-PVTZ AUX)
    Blend: AUG-CC-PVTZ-JKFIT

    Orbital Energies [Eh]
    ---------------------

    Doubly Occupied:

       1A    -91.959266     2A    -11.268272     3A    -11.264018
       4A    -11.244157     5A    -11.237901     6A    -11.232121
       7A    -11.226806     8A     -8.959816     9A     -6.641054
      10A     -6.640113    11A     -6.639255    12A     -1.144843
      13A     -1.046938    14A     -1.022675    15A     -0.936272
      16A     -0.849135    17A     -0.803938    18A     -0.676245
      19A     -0.663110    20A     -0.619728    21A     -0.604530
      22A     -0.576674    23A     -0.569709    24A     -0.534345
      25A     -0.517681    26A     -0.477512    27A     -0.460667
      28A     -0.439978    29A     -0.353616    30A     -0.295429

  @DF-RHF Final Energy:  -629.45705527703933

   => Energetics <=

    Nuclear Repulsion Energy =            346.7813274373926333
    One-Electron Energy =               -1550.6651559036513390
    Two-Electron Energy =                 574.4267731892194888
    Total Energy =                       -629.4570552770393306
  Basis Set: (AUG-CC-PVTZ AUX)
    Blend: AUG-CC-PVTZ-RI
    Molecular point group: c1

    Geometry (in Angstrom), charge = 0, multiplicity = 1:

       Center              X                  Y                   Z               Mass
    ------------   -----------------  -----------------  -----------------  -----------------
         S            1.749853157775     0.054920954897    -0.328964912174    31.972071174400
         C           -1.333210842225    -0.072894045103     0.069698087826    12.000000000000
         C            0.800460157775    -1.287321045103     0.444587087826    12.000000000000
         C           -0.637272842225    -1.231393045103     0.020123087826    12.000000000000
         C           -0.648400842225     1.182822954897     0.357367087826    12.000000000000
         C           -2.799647842225     0.000384954897    -0.256270912174    12.000000000000
         C            0.677812157775     1.355824954897     0.137831087826    12.000000000000
         H            0.901242157775    -1.194753045103     1.533607087826     1.007825032230
         H            1.274891157775    -2.221719045103     0.134830087826     1.007825032230
         H           -1.126368842225    -2.158324045103    -0.273753912174     1.007825032230
         H           -1.242742842225     2.049022954897     0.643390087826     1.007825032230
         H           -2.980044842225     0.640488954897    -1.126461912174     1.007825032230
         H           -3.360984842225     0.426067954897     0.583095087826     1.007825032230
         H           -3.205789842225    -0.992303045103    -0.468263912174     1.007825032230
         H            1.143753157775     2.335220954897     0.201611087826     1.007825032230

  Basis Set: AUG-CC-PVTZ
    Blend: AUG-CC-PVTZ
  Basis Set: (AUG-CC-PVTZ AUX)
    Blend: AUG-CC-PVTZ-JKFIT
	 Reference Energy          =    -629.4570552770393306 [Eh]
	 Singles Energy            =      -0.0000000000000000 [Eh]
	 Same-Spin Energy          =      -0.3116581116755213 [Eh]
	 Opposite-Spin Energy      =      -1.0185801343372398 [Eh]
	 Correlation Energy        =      -1.3302382460127611 [Eh]
	 Total Energy              =    -630.7872935230520852 [Eh]

	 ================> DF-SCS-MP2 Energies <==================
	-----------------------------------------------------------
	 SCS Same-Spin Scale       =       0.3333333333333333 [-]
	 SCS Opposite-Spin Scale   =       1.2000000000000000 [-]
	 SCS Same-Spin Energy      =      -0.1038860372251738 [Eh]
	 SCS Opposite-Spin Energy  =      -1.2222961612046876 [Eh]
	 SCS Correlation Energy    =      -1.3261821984298614 [Eh]
	 SCS Total Energy          =    -630.7832374754691500 [Eh]
	-----------------------------------------------------------

  Dipole Moment: [D]
     X:    -1.1012      Y:    -0.2858      Z:     0.5455     Total:     1.2617

*** Psi4 exiting successfully. Buy a developer a beer!
