                               Psi4 1.3.2 release

  ==> Input File <==

--------------------------------------------------------------------------
#psi4
#
memory 32 gb

molecule  {
0 1
  S        1.8205190     0.0641380    -0.3390420
  C       -1.2625450    -0.0636770     0.0596210
  C        0.8711260    -1.2781040     0.4345100
  C       -0.5666070    -1.2221760     0.0100460
  C       -0.5777350     1.1920400     0.3472900
  C       -2.7289820     0.0096020    -0.2663480
  C        0.7484780     1.3650420     0.1277540
  H        0.9719080    -1.1855360     1.5235300
  H        1.3455570    -2.2125020     0.1247530
  H       -1.0557030    -2.1491070    -0.2838310
  H       -1.1487820     2.0186411     0.7761040
  H       -2.9093790     0.6497060    -1.1365390
  H       -3.2903190     0.4352850     0.5730180
  H       -3.1351240    -0.9830860    -0.4783410
  H        1.2144190     2.3444380     0.1915340
units angstrom
no_reorient  #important for SAPT in psi4, default
symmetry c1  #important for SAPT in psi4, default
}

set PROPERTIES_ORIGIN ["COM"]
properties('MP2/aug-cc-pvtz', properties = ['dipole'])
--------------------------------------------------------------------------

    Molecular point group: c1
  Charge       = 0
  Multiplicity = 1
  Basis Set: AUG-CC-PVTZ
    Blend: AUG-CC-PVTZ
  Basis Set: (AUG-CC-PVTZ AUX)
    Blend: AUG-CC-PVTZ-JKFIT

    Orbital Energies [Eh]
    ---------------------

    Doubly Occupied:

       1A    -91.959123     2A    -11.268055     3A    -11.263964
       4A    -11.244135     5A    -11.238453     6A    -11.232439
       7A    -11.226708     8A     -8.959672     9A     -6.640901
      10A     -6.639975    11A     -6.639116    12A     -1.144823
      13A     -1.046854    14A     -1.022450    15A     -0.936268
      16A     -0.848830    17A     -0.803946    18A     -0.675383
      19A     -0.662749    20A     -0.619701    21A     -0.607157
      22A     -0.576412    23A     -0.568977    24A     -0.534398
      25A     -0.517527    26A     -0.476509    27A     -0.463046
      28A     -0.436664    29A     -0.353279    30A     -0.295878

  @DF-RHF Final Energy:  -629.45593105186924

   => Energetics <=

    Nuclear Repulsion Energy =            346.7565163236350827
    One-Electron Energy =               -1550.6181119543543900
    Two-Electron Energy =                 574.4056645788501783
    Total Energy =                       -629.4559310518692428
  Basis Set: (AUG-CC-PVTZ AUX)
    Blend: AUG-CC-PVTZ-RI
    Molecular point group: c1

    Geometry (in Angstrom), charge = 0, multiplicity = 1:

       Center              X                  Y                   Z               Mass
    ------------   -----------------  -----------------  -----------------  -----------------
         S            1.749643604037     0.055277172862    -0.330249410466    31.972071174400
         C           -1.333420395963    -0.072537827138     0.068413589534    12.000000000000
         C            0.800250604037    -1.286964827138     0.443302589534    12.000000000000
         C           -0.637482395963    -1.231036827138     0.018838589534    12.000000000000
         C           -0.648610395963     1.183179172862     0.356082589534    12.000000000000
         C           -2.799857395963     0.000741172862    -0.257555410466    12.000000000000
         C            0.677602604037     1.356181172862     0.136546589534    12.000000000000
         H            0.901032604037    -1.194396827138     1.532322589534     1.007825032230
         H            1.274681604037    -2.221362827138     0.133545589534     1.007825032230
         H           -1.126578395963    -2.157967827138    -0.275038410466     1.007825032230
         H           -1.219657395963     2.009780272862     0.784896589534     1.007825032230
         H           -2.980254395963     0.640845172862    -1.127746410466     1.007825032230
         H           -3.361194395963     0.426424172862     0.581810589534     1.007825032230
         H           -3.205999395963    -0.991946827138    -0.469548410466     1.007825032230
         H            1.143543604037     2.335577172862     0.200326589534     1.007825032230

  Basis Set: AUG-CC-PVTZ
    Blend: AUG-CC-PVTZ
  Basis Set: (AUG-CC-PVTZ AUX)
    Blend: AUG-CC-PVTZ-JKFIT
	 Reference Energy          =    -629.4559310518692428 [Eh]
	 Singles Energy            =      -0.0000000000000000 [Eh]
	 Same-Spin Energy          =      -0.3116372454485350 [Eh]
	 Opposite-Spin Energy      =      -1.0186857149131714 [Eh]
	 Correlation Energy        =      -1.3303229603617064 [Eh]
	 Total Energy              =    -630.7862540122309838 [Eh]

	 ================> DF-SCS-MP2 Energies <==================
	-----------------------------------------------------------
	 SCS Same-Spin Scale       =       0.3333333333333333 [-]
	 SCS Opposite-Spin Scale   =       1.2000000000000000 [-]
	 SCS Same-Spin Energy      =      -0.1038790818161783 [Eh]
	 SCS Opposite-Spin Energy  =      -1.2224228578958056 [Eh]
	 SCS Correlation Energy    =      -1.3263019397119840 [Eh]
	 SCS Total Energy          =    -630.7822329915812816 [Eh]
	-----------------------------------------------------------

  Dipole Moment: [D]
     X:    -1.0964      Y:    -0.3168      Z:     0.6468     Total:     1.3118

*** Psi4 exiting successfully. Buy a developer a beer!
