                               Psi4 1.3.2 release

  ==> Input File <==

--------------------------------------------------------------------------
#psi4
#
memory 32 gb

molecule  {
0 1
  O       -0.3911139     1.1517043    -0.1815126
  O       -0.3703240    -1.1378310     0.1786440
  C        0.9437350     0.7292120     0.2081230
  C        0.9442940    -0.7286720    -0.2079020
  C       -1.2056960    -0.0002420     0.0002480
  H        1.0881780     0.8312400     1.2920210
  H        1.6593840     1.3596400    -0.3231520
  H        1.0894950    -0.8305950    -1.2917000
  H        1.6600270    -1.3586360     0.3238180
  H       -1.8301230     0.0948300     0.8968380
  H       -1.8312890    -0.0954850    -0.8954820
units angstrom
no_reorient  #important for SAPT in psi4, default
symmetry c1  #important for SAPT in psi4, default
}

set PROPERTIES_ORIGIN ["COM"]
properties('MP2/aug-cc-pvtz', properties = ['dipole'])
--------------------------------------------------------------------------

    Molecular point group: c1
  Charge       = 0
  Multiplicity = 1
  Basis Set: AUG-CC-PVTZ
    Blend: AUG-CC-PVTZ
  Basis Set: (AUG-CC-PVTZ AUX)
    Blend: AUG-CC-PVTZ-JKFIT

    Orbital Energies [Eh]
    ---------------------

    Doubly Occupied:

       1A    -20.569188     2A    -20.569020     3A    -11.328590
       4A    -11.288136     5A    -11.286972     6A     -1.431700
       7A     -1.328763     8A     -1.032676     9A     -0.864717
      10A     -0.854266    11A     -0.714584    12A     -0.703248
      13A     -0.641254    14A     -0.594333    15A     -0.575836
      16A     -0.569669    17A     -0.517536    18A     -0.506838
      19A     -0.450238    20A     -0.421908

  @DF-RHF Final Energy:  -266.89363330679402

   => Energetics <=

    Nuclear Repulsion Energy =            193.6072998632990902
    One-Electron Energy =                -748.5029206227904979
    Two-Electron Energy =                 288.0019874526973922
    Total Energy =                       -266.8936333067940154
  Basis Set: (AUG-CC-PVTZ AUX)
    Blend: AUG-CC-PVTZ-RI
    Molecular point group: c1

    Geometry (in Angstrom), charge = 0, multiplicity = 1:

       Center              X                  Y                   Z               Mass
    ------------   -----------------  -----------------  -----------------  -----------------
         O           -0.362194462628     1.148645279486    -0.181000777656    15.994914619570
         O           -0.341404562628    -1.140890020514     0.179155822344    15.994914619570
         C            0.972654437372     0.726152979486     0.208634822344    12.000000000000
         C            0.973213437372    -0.731731020514    -0.207390177656    12.000000000000
         C           -1.176776562628    -0.003301020514     0.000759822344    12.000000000000
         H            1.117097437372     0.828180979486     1.292532822344     1.007825032230
         H            1.688303437372     1.356580979486    -0.322640177656     1.007825032230
         H            1.118414437372    -0.833654020514    -1.291188177656     1.007825032230
         H            1.688946437372    -1.361695020514     0.324329822344     1.007825032230
         H           -1.801203562628     0.091770979486     0.897349822344     1.007825032230
         H           -1.802369562628    -0.098544020514    -0.894970177656     1.007825032230

  Basis Set: AUG-CC-PVTZ
    Blend: AUG-CC-PVTZ
  Basis Set: (AUG-CC-PVTZ AUX)
    Blend: AUG-CC-PVTZ-JKFIT
	 Reference Energy          =    -266.8936333067940154 [Eh]
	 Singles Energy            =      -0.0000000000000000 [Eh]
	 Same-Spin Energy          =      -0.2552959656875493 [Eh]
	 Opposite-Spin Energy      =      -0.8254318936210807 [Eh]
	 Correlation Energy        =      -1.0807278593086300 [Eh]
	 Total Energy              =    -267.9743611661026534 [Eh]

	 ================> DF-SCS-MP2 Energies <==================
	-----------------------------------------------------------
	 SCS Same-Spin Scale       =       0.3333333333333333 [-]
	 SCS Opposite-Spin Scale   =       1.2000000000000000 [-]
	 SCS Same-Spin Energy      =      -0.0850986552291831 [Eh]
	 SCS Opposite-Spin Energy  =      -0.9905182723452968 [Eh]
	 SCS Correlation Energy    =      -1.0756169275744798 [Eh]
	 SCS Total Energy          =    -267.9692502343684737 [Eh]
	-----------------------------------------------------------

  Dipole Moment: [D]
     X:     1.2768      Y:    -0.0368      Z:     0.0172     Total:     1.2775

*** Psi4 exiting successfully. Buy a developer a beer!
