                               Psi4 1.3.2 release

  ==> Input File <==

--------------------------------------------------------------------------
#psi4
#
memory 32 gb

molecule  {
0 1
  O       -0.3864163     1.0444041    -0.2118180
  O       -0.3703240    -1.1378310     0.1786440
  C        0.9437350     0.7292120     0.2081230
  C        0.9442940    -0.7286720    -0.2079020
  C       -1.2056960    -0.0002420     0.0002480
  H        1.0881780     0.8312400     1.2920210
  H        1.6593840     1.3596400    -0.3231520
  H        1.0894950    -0.8305950    -1.2917000
  H        1.6600270    -1.3586360     0.3238180
  H       -1.8301230     0.0948300     0.8968380
  H       -1.8312890    -0.0954850    -0.8954820
units angstrom
no_reorient  #important for SAPT in psi4, default
symmetry c1  #important for SAPT in psi4, default
}

set PROPERTIES_ORIGIN ["COM"]
properties('MP2/aug-cc-pvtz', properties = ['dipole'])
--------------------------------------------------------------------------

    Molecular point group: c1
  Charge       = 0
  Multiplicity = 1
  Basis Set: AUG-CC-PVTZ
    Blend: AUG-CC-PVTZ
  Basis Set: (AUG-CC-PVTZ AUX)
    Blend: AUG-CC-PVTZ-JKFIT

    Orbital Energies [Eh]
    ---------------------

    Doubly Occupied:

       1A    -20.566353     2A    -20.561167     3A    -11.322604
       4A    -11.290042     5A    -11.283181     6A     -1.455307
       7A     -1.332249     8A     -1.041067     9A     -0.862187
      10A     -0.856150    11A     -0.722251    12A     -0.712811
      13A     -0.653316    14A     -0.593390    15A     -0.585690
      16A     -0.572785    17A     -0.510179    18A     -0.504415
      19A     -0.448524    20A     -0.416168

  @DF-RHF Final Energy:  -266.89275975872130

   => Energetics <=

    Nuclear Repulsion Energy =            196.2226128438732076
    One-Electron Energy =                -753.6510726565261393
    Two-Electron Energy =                 290.5357000539316346
    Total Energy =                       -266.8927597587212972
  Basis Set: (AUG-CC-PVTZ AUX)
    Blend: AUG-CC-PVTZ-RI
    Molecular point group: c1

    Geometry (in Angstrom), charge = 0, multiplicity = 1:

       Center              X                  Y                   Z               Mass
    ------------   -----------------  -----------------  -----------------  -----------------
         O           -0.358511732690     1.064526227435    -0.204758995441    15.994914619570
         O           -0.342419432690    -1.117708872565     0.185703004559    15.994914619570
         C            0.971639567310     0.749334127435     0.215182004559    12.000000000000
         C            0.972198567310    -0.708549872565    -0.200842995441    12.000000000000
         C           -1.177791432690     0.019880127435     0.007307004559    12.000000000000
         H            1.116082567310     0.851362127435     1.299080004559     1.007825032230
         H            1.687288567310     1.379762127435    -0.316092995441     1.007825032230
         H            1.117399567310    -0.810472872565    -1.284640995441     1.007825032230
         H            1.687931567310    -1.338513872565     0.330877004559     1.007825032230
         H           -1.802218432690     0.114952127435     0.903897004559     1.007825032230
         H           -1.803384432690    -0.075362872565    -0.888422995441     1.007825032230

  Basis Set: AUG-CC-PVTZ
    Blend: AUG-CC-PVTZ
  Basis Set: (AUG-CC-PVTZ AUX)
    Blend: AUG-CC-PVTZ-JKFIT
	 Reference Energy          =    -266.8927597587212972 [Eh]
	 Singles Energy            =      -0.0000000000000000 [Eh]
	 Same-Spin Energy          =      -0.2549615353403649 [Eh]
	 Opposite-Spin Energy      =      -0.8228180777509885 [Eh]
	 Correlation Energy        =      -1.0777796130913533 [Eh]
	 Total Energy              =    -267.9705393718126629 [Eh]

	 ================> DF-SCS-MP2 Energies <==================
	-----------------------------------------------------------
	 SCS Same-Spin Scale       =       0.3333333333333333 [-]
	 SCS Opposite-Spin Scale   =       1.2000000000000000 [-]
	 SCS Same-Spin Energy      =      -0.0849871784467883 [Eh]
	 SCS Opposite-Spin Energy  =      -0.9873816933011861 [Eh]
	 SCS Correlation Energy    =      -1.0723688717479745 [Eh]
	 SCS Total Energy          =    -267.9651286304692803 [Eh]
	-----------------------------------------------------------

  Dipole Moment: [D]
     X:     1.3340      Y:     0.3355      Z:     0.0448     Total:     1.3763

*** Psi4 exiting successfully. Buy a developer a beer!
