                               Psi4 1.3.2 release

  ==> Input File <==

--------------------------------------------------------------------------
#psi4
#
memory 32 gb

molecule  {
0 1
  O       -0.3753718     1.1143822    -0.1876046
  O       -0.3703240    -1.1378310     0.1786440
  C        0.9437350     0.7292120     0.2081230
  C        0.9442940    -0.7286720    -0.2079020
  C       -1.2056960    -0.0002420     0.0002480
  H        1.0881780     0.8312400     1.2920210
  H        1.6593840     1.3596400    -0.3231520
  H        1.0894950    -0.8305950    -1.2917000
  H        1.6600270    -1.3586360     0.3238180
  H       -1.8301230     0.0948300     0.8968380
  H       -1.8312890    -0.0954850    -0.8954820
units angstrom
no_reorient  #important for SAPT in psi4, default
symmetry c1  #important for SAPT in psi4, default
}

set PROPERTIES_ORIGIN ["COM"]
properties('MP2/aug-cc-pvtz', properties = ['dipole'])
--------------------------------------------------------------------------

    Molecular point group: c1
  Charge       = 0
  Multiplicity = 1
  Basis Set: AUG-CC-PVTZ
    Blend: AUG-CC-PVTZ
  Basis Set: (AUG-CC-PVTZ AUX)
    Blend: AUG-CC-PVTZ-JKFIT

    Orbital Energies [Eh]
    ---------------------

    Doubly Occupied:

       1A    -20.567925     2A    -20.566644     3A    -11.327930
       4A    -11.286759     5A    -11.284945     6A     -1.439771
       7A     -1.331683     8A     -1.034726     9A     -0.863223
      10A     -0.856052    11A     -0.717407    12A     -0.706926
      13A     -0.644307    14A     -0.595158    15A     -0.577634
      16A     -0.574372    17A     -0.515656    18A     -0.504944
      19A     -0.448281    20A     -0.420957

  @DF-RHF Final Energy:  -266.89565207101526

   => Energetics <=

    Nuclear Repulsion Energy =            194.6479495772047414
    One-Electron Energy =                -750.5566033563006840
    Two-Electron Energy =                 289.0130017080807079
    Total Energy =                       -266.8956520710152631
  Basis Set: (AUG-CC-PVTZ AUX)
    Blend: AUG-CC-PVTZ-RI
    Molecular point group: c1

    Geometry (in Angstrom), charge = 0, multiplicity = 1:

       Center              X                  Y                   Z               Mass
    ------------   -----------------  -----------------  -----------------  -----------------
         O           -0.349853287781     1.119386250402    -0.185776661252    15.994914619570
         O           -0.344805487781    -1.132826949598     0.180471938748    15.994914619570
         C            0.969253512219     0.734216050402     0.209950938748    12.000000000000
         C            0.969812512219    -0.723667949598    -0.206074061252    12.000000000000
         C           -1.180177487781     0.004762050402     0.002075938748    12.000000000000
         H            1.113696512219     0.836244050402     1.293848938748     1.007825032230
         H            1.684902512219     1.364644050402    -0.321324061252     1.007825032230
         H            1.115013512219    -0.825590949598    -1.289872061252     1.007825032230
         H            1.685545512219    -1.353631949598     0.325645938748     1.007825032230
         H           -1.804604487781     0.099834050402     0.898665938748     1.007825032230
         H           -1.805770487781    -0.090480949598    -0.893654061252     1.007825032230

  Basis Set: AUG-CC-PVTZ
    Blend: AUG-CC-PVTZ
  Basis Set: (AUG-CC-PVTZ AUX)
    Blend: AUG-CC-PVTZ-JKFIT
	 Reference Energy          =    -266.8956520710152631 [Eh]
	 Singles Energy            =      -0.0000000000000000 [Eh]
	 Same-Spin Energy          =      -0.2550691927417426 [Eh]
	 Opposite-Spin Energy      =      -0.8241861086405669 [Eh]
	 Correlation Energy        =      -1.0792553013823094 [Eh]
	 Total Energy              =    -267.9749073723975812 [Eh]

	 ================> DF-SCS-MP2 Energies <==================
	-----------------------------------------------------------
	 SCS Same-Spin Scale       =       0.3333333333333333 [-]
	 SCS Opposite-Spin Scale   =       1.2000000000000000 [-]
	 SCS Same-Spin Energy      =      -0.0850230642472475 [Eh]
	 SCS Opposite-Spin Energy  =      -0.9890233303686802 [Eh]
	 SCS Correlation Energy    =      -1.0740463946159278 [Eh]
	 SCS Total Energy          =    -267.9696984656312111 [Eh]
	-----------------------------------------------------------

  Dipole Moment: [D]
     X:     1.2262      Y:     0.0825      Z:     0.0137     Total:     1.2290

*** Psi4 exiting successfully. Buy a developer a beer!
