                               Psi4 1.3.2 release

  ==> Input File <==

--------------------------------------------------------------------------
#psi4
#
memory 32 gb

molecule  {
0 1
  O       -0.3708850     1.1374830    -0.1792890
  O       -0.3703240    -1.1378310     0.1786440
  C        0.9437350     0.7292120     0.2081230
  C        0.9442940    -0.7286720    -0.2079020
  C       -1.2056960    -0.0002420     0.0002480
  H        1.0881780     0.8312400     1.2920210
  H        1.6593840     1.3596400    -0.3231520
  H        1.0894950    -0.8305950    -1.2917000
  H        1.6600270    -1.3586360     0.3238180
  H       -1.8914955     0.0899861     0.8513410
  H       -1.8312890    -0.0954850    -0.8954820
units angstrom
no_reorient  #important for SAPT in psi4, default
symmetry c1  #important for SAPT in psi4, default
}

set PROPERTIES_ORIGIN ["COM"]
properties('MP2/aug-cc-pvtz', properties = ['dipole'])
--------------------------------------------------------------------------

    Molecular point group: c1
  Charge       = 0
  Multiplicity = 1
  Basis Set: AUG-CC-PVTZ
    Blend: AUG-CC-PVTZ
  Basis Set: (AUG-CC-PVTZ AUX)
    Blend: AUG-CC-PVTZ-JKFIT

    Orbital Energies [Eh]
    ---------------------

    Doubly Occupied:

       1A    -20.569447     2A    -20.569305     3A    -11.329795
       4A    -11.286311     5A    -11.285647     6A     -1.435627
       7A     -1.331498     8A     -1.033050     9A     -0.866131
      10A     -0.854968    11A     -0.714621    12A     -0.707072
      13A     -0.639374    14A     -0.596056    15A     -0.578422
      16A     -0.574098    17A     -0.517432    18A     -0.505395
      19A     -0.448287    20A     -0.421014

  @DF-RHF Final Energy:  -266.89435747430446

   => Energetics <=

    Nuclear Repulsion Energy =            194.0616224339553071
    One-Electron Energy =                -749.3848603396077124
    Two-Electron Energy =                 288.4288804313479204
    Total Energy =                       -266.8943574743044564
  Basis Set: (AUG-CC-PVTZ AUX)
    Blend: AUG-CC-PVTZ-RI
    Molecular point group: c1

    Geometry (in Angstrom), charge = 0, multiplicity = 1:

       Center              X                  Y                   Z               Mass
    ------------   -----------------  -----------------  -----------------  -----------------
         O           -0.345500383950     1.137562288374    -0.178638236937    15.994914619570
         O           -0.344939383950    -1.137751711626     0.179294763063    15.994914619570
         C            0.969119616050     0.729291288374     0.208773763063    12.000000000000
         C            0.969678616050    -0.728592711626    -0.207251236937    12.000000000000
         C           -1.180311383950    -0.000162711626     0.000898763063    12.000000000000
         H            1.113562616050     0.831319288374     1.292671763063     1.007825032230
         H            1.684768616050     1.359719288374    -0.322501236937     1.007825032230
         H            1.114879616050    -0.830515711626    -1.291049236937     1.007825032230
         H            1.685411616050    -1.358556711626     0.324468763063     1.007825032230
         H           -1.866110883950     0.090065388374     0.851991763063     1.007825032230
         H           -1.805904383950    -0.095405711626    -0.894831236937     1.007825032230

  Basis Set: AUG-CC-PVTZ
    Blend: AUG-CC-PVTZ
  Basis Set: (AUG-CC-PVTZ AUX)
    Blend: AUG-CC-PVTZ-JKFIT
	 Reference Energy          =    -266.8943574743044564 [Eh]
	 Singles Energy            =      -0.0000000000000000 [Eh]
	 Same-Spin Energy          =      -0.2551312818350836 [Eh]
	 Opposite-Spin Energy      =      -0.8246994970113615 [Eh]
	 Correlation Energy        =      -1.0798307788464450 [Eh]
	 Total Energy              =    -267.9741882531508850 [Eh]

	 ================> DF-SCS-MP2 Energies <==================
	-----------------------------------------------------------
	 SCS Same-Spin Scale       =       0.3333333333333333 [-]
	 SCS Opposite-Spin Scale   =       1.2000000000000000 [-]
	 SCS Same-Spin Energy      =      -0.0850437606116945 [Eh]
	 SCS Opposite-Spin Energy  =      -0.9896393964136337 [Eh]
	 SCS Correlation Energy    =      -1.0746831570253284 [Eh]
	 SCS Total Energy          =    -267.9690406313297899 [Eh]
	-----------------------------------------------------------

  Dipole Moment: [D]
     X:     1.1881      Y:     0.0006      Z:     0.0049     Total:     1.1881

*** Psi4 exiting successfully. Buy a developer a beer!
