                               Psi4 1.3.2 release

  ==> Input File <==

--------------------------------------------------------------------------
#psi4
#
memory 32 gb

molecule  {
0 1
  O       -0.3708850     1.1374830    -0.1792890
  O       -0.3703240    -1.1378310     0.1786440
  C        0.9437350     0.7292120     0.2081230
  C        0.9442940    -0.7286720    -0.2079020
  C       -1.2056960    -0.0002420     0.0002480
  H        1.0881780     0.8312400     1.2920210
  H        1.6593840     1.3596400    -0.3231520
  H        1.0894950    -0.8305950    -1.2917000
  H        1.6600270    -1.3586360     0.3238180
  H       -1.7657083     0.0992107     0.9379669
  H       -1.8312890    -0.0954850    -0.8954820
units angstrom
no_reorient  #important for SAPT in psi4, default
symmetry c1  #important for SAPT in psi4, default
}

set PROPERTIES_ORIGIN ["COM"]
properties('MP2/aug-cc-pvtz', properties = ['dipole'])
--------------------------------------------------------------------------

    Molecular point group: c1
  Charge       = 0
  Multiplicity = 1
  Basis Set: AUG-CC-PVTZ
    Blend: AUG-CC-PVTZ
  Basis Set: (AUG-CC-PVTZ AUX)
    Blend: AUG-CC-PVTZ-JKFIT

    Orbital Energies [Eh]
    ---------------------

    Doubly Occupied:

       1A    -20.567482     2A    -20.567281     3A    -11.329715
       4A    -11.285641     5A    -11.284973     6A     -1.435370
       7A     -1.330699     8A     -1.032730     9A     -0.863499
      10A     -0.854668    11A     -0.717660    12A     -0.703393
      13A     -0.644313    14A     -0.595264    15A     -0.576496
      16A     -0.570306    17A     -0.516377    18A     -0.504363
      19A     -0.447889    20A     -0.423357

  @DF-RHF Final Energy:  -266.89442305926582

   => Energetics <=

    Nuclear Repulsion Energy =            194.2282653607685461
    One-Electron Energy =                -749.7424219273657400
    Two-Electron Energy =                 288.6197335073313752
    Total Energy =                       -266.8944230592658187
  Basis Set: (AUG-CC-PVTZ AUX)
    Blend: AUG-CC-PVTZ-RI
    Molecular point group: c1

    Geometry (in Angstrom), charge = 0, multiplicity = 1:

       Center              X                  Y                   Z               Mass
    ------------   -----------------  -----------------  -----------------  -----------------
         O           -0.347212661143     1.137436718585    -0.179817431266    15.994914619570
         O           -0.346651661143    -1.137877281415     0.178115568734    15.994914619570
         C            0.967407338857     0.729165718585     0.207594568734    12.000000000000
         C            0.967966338857    -0.728718281415    -0.208430431266    12.000000000000
         C           -1.182023661143    -0.000288281415    -0.000280431266    12.000000000000
         H            1.111850338857     0.831193718585     1.291492568734     1.007825032230
         H            1.683056338857     1.359593718585    -0.323680431266     1.007825032230
         H            1.113167338857    -0.830641281415    -1.292228431266     1.007825032230
         H            1.683699338857    -1.358682281415     0.323289568734     1.007825032230
         H           -1.742035961143     0.099164418585     0.937438468734     1.007825032230
         H           -1.807616661143    -0.095531281415    -0.896010431266     1.007825032230

  Basis Set: AUG-CC-PVTZ
    Blend: AUG-CC-PVTZ
  Basis Set: (AUG-CC-PVTZ AUX)
    Blend: AUG-CC-PVTZ-JKFIT
	 Reference Energy          =    -266.8944230592658187 [Eh]
	 Singles Energy            =      -0.0000000000000000 [Eh]
	 Same-Spin Energy          =      -0.2552472857440468 [Eh]
	 Opposite-Spin Energy      =      -0.8248790532737745 [Eh]
	 Correlation Energy        =      -1.0801263390178213 [Eh]
	 Total Energy              =    -267.9745493982836138 [Eh]

	 ================> DF-SCS-MP2 Energies <==================
	-----------------------------------------------------------
	 SCS Same-Spin Scale       =       0.3333333333333333 [-]
	 SCS Opposite-Spin Scale   =       1.2000000000000000 [-]
	 SCS Same-Spin Energy      =      -0.0850824285813489 [Eh]
	 SCS Opposite-Spin Energy  =      -0.9898548639285294 [Eh]
	 SCS Correlation Energy    =      -1.0749372925098784 [Eh]
	 SCS Total Energy          =    -267.9693603517757197 [Eh]
	-----------------------------------------------------------

  Dipole Moment: [D]
     X:     1.1935      Y:     0.0016      Z:    -0.0054     Total:     1.1935

*** Psi4 exiting successfully. Buy a developer a beer!
