                               Psi4 1.3.2 release

  ==> Input File <==

--------------------------------------------------------------------------
#psi4
#
memory 32 gb

molecule  {
0 1
  O       -0.3356114     1.2732327    -0.1270086
  O       -0.3703240    -1.1378310     0.1786440
  C        0.9437350     0.7292120     0.2081230
  C        0.9442940    -0.7286720    -0.2079020
  C       -1.2056960    -0.0002420     0.0002480
  H        1.0881780     0.8312400     1.2920210
  H        1.6593840     1.3596400    -0.3231520
  H        1.0894950    -0.8305950    -1.2917000
  H        1.6600270    -1.3586360     0.3238180
  H       -1.8301230     0.0948300     0.8968380
  H       -1.8312890    -0.0954850    -0.8954820
units angstrom
no_reorient  #important for SAPT in psi4, default
symmetry c1  #important for SAPT in psi4, default
}

set PROPERTIES_ORIGIN ["COM"]
properties('MP2/aug-cc-pvtz', properties = ['dipole'])
--------------------------------------------------------------------------

    Molecular point group: c1
  Charge       = 0
  Multiplicity = 1
  Basis Set: AUG-CC-PVTZ
    Blend: AUG-CC-PVTZ
  Basis Set: (AUG-CC-PVTZ AUX)
    Blend: AUG-CC-PVTZ-JKFIT

    Orbital Energies [Eh]
    ---------------------

    Doubly Occupied:

       1A    -20.578073     2A    -20.570530     3A    -11.341129
       4A    -11.289481     5A    -11.279970     6A     -1.418682
       7A     -1.323832     8A     -1.024320     9A     -0.875329
      10A     -0.845788    11A     -0.710125    12A     -0.697211
      13A     -0.634399    14A     -0.596293    15A     -0.579279
      16A     -0.560249    17A     -0.519217    18A     -0.499225
      19A     -0.446386    20A     -0.430189

  @DF-RHF Final Energy:  -266.87884248859092

   => Energetics <=

    Nuclear Repulsion Energy =            191.2894373838135778
    One-Electron Energy =                -743.8971431479025114
    Two-Electron Energy =                 285.7288632754979858
    Total Energy =                       -266.8788424885909194
  Basis Set: (AUG-CC-PVTZ AUX)
    Blend: AUG-CC-PVTZ-RI
    Molecular point group: c1

    Geometry (in Angstrom), charge = 0, multiplicity = 1:

       Center              X                  Y                   Z               Mass
    ------------   -----------------  -----------------  -----------------  -----------------
         O           -0.318682729318     1.243918669520    -0.138271828287    15.994914619570
         O           -0.353395329318    -1.167145030480     0.167380771713    15.994914619570
         C            0.960663670682     0.699897969520     0.196859771713    12.000000000000
         C            0.961222670682    -0.757986030480    -0.219165228287    12.000000000000
         C           -1.188767329318    -0.029556030480    -0.011015228287    12.000000000000
         H            1.105106670682     0.801925969520     1.280757771713     1.007825032230
         H            1.676312670682     1.330325969520    -0.334415228287     1.007825032230
         H            1.106423670682    -0.859909030480    -1.302963228287     1.007825032230
         H            1.676955670682    -1.387950030480     0.312554771713     1.007825032230
         H           -1.813194329318     0.065515969520     0.885574771713     1.007825032230
         H           -1.814360329318    -0.124799030480    -0.906745228287     1.007825032230

  Basis Set: AUG-CC-PVTZ
    Blend: AUG-CC-PVTZ
  Basis Set: (AUG-CC-PVTZ AUX)
    Blend: AUG-CC-PVTZ-JKFIT
	 Reference Energy          =    -266.8788424885909194 [Eh]
	 Singles Energy            =      -0.0000000000000000 [Eh]
	 Same-Spin Energy          =      -0.2562738358778232 [Eh]
	 Opposite-Spin Energy      =      -0.8291806034048943 [Eh]
	 Correlation Energy        =      -1.0854544392827175 [Eh]
	 Total Energy              =    -267.9642969278736473 [Eh]

	 ================> DF-SCS-MP2 Energies <==================
	-----------------------------------------------------------
	 SCS Same-Spin Scale       =       0.3333333333333333 [-]
	 SCS Opposite-Spin Scale   =       1.2000000000000000 [-]
	 SCS Same-Spin Energy      =      -0.0854246119592744 [Eh]
	 SCS Opposite-Spin Energy  =      -0.9950167240858732 [Eh]
	 SCS Correlation Energy    =      -1.0804413360451475 [Eh]
	 SCS Total Energy          =    -267.9592838246360884 [Eh]
	-----------------------------------------------------------

  Dipole Moment: [D]
     X:     0.9844      Y:    -0.4548      Z:    -0.0854     Total:     1.0878

*** Psi4 exiting successfully. Buy a developer a beer!
