                               Psi4 1.3.2 release

  ==> Input File <==

--------------------------------------------------------------------------
#psi4
#
memory 32 gb

molecule  {
0 1
  O       -0.3917553     0.9972602    -0.2273248
  O       -0.3703240    -1.1378310     0.1786440
  C        0.9437350     0.7292120     0.2081230
  C        0.9442940    -0.7286720    -0.2079020
  C       -1.2056960    -0.0002420     0.0002480
  H        1.0881780     0.8312400     1.2920210
  H        1.6593840     1.3596400    -0.3231520
  H        1.0894950    -0.8305950    -1.2917000
  H        1.6600270    -1.3586360     0.3238180
  H       -1.8301230     0.0948300     0.8968380
  H       -1.8312890    -0.0954850    -0.8954820
units angstrom
no_reorient  #important for SAPT in psi4, default
symmetry c1  #important for SAPT in psi4, default
}

set PROPERTIES_ORIGIN ["COM"]
properties('MP2/aug-cc-pvtz', properties = ['dipole'])
--------------------------------------------------------------------------

    Molecular point group: c1
  Charge       = 0
  Multiplicity = 1
  Basis Set: AUG-CC-PVTZ
    Blend: AUG-CC-PVTZ
  Basis Set: (AUG-CC-PVTZ AUX)
    Blend: AUG-CC-PVTZ-JKFIT

    Orbital Energies [Eh]
    ---------------------

    Doubly Occupied:

       1A    -20.565266     2A    -20.557238     3A    -11.319243
       4A    -11.292357     5A    -11.282033     6A     -1.467763
       7A     -1.331664     8A     -1.045930     9A     -0.864164
      10A     -0.853451    11A     -0.726102    12A     -0.717333
      13A     -0.660503    14A     -0.592948    15A     -0.589715
      16A     -0.571706    17A     -0.505252    18A     -0.503628
      19A     -0.448283    20A     -0.412918

  @DF-RHF Final Energy:  -266.88650268536094

   => Energetics <=

    Nuclear Repulsion Energy =            197.3137775120111712
    One-Electron Energy =                -755.7855651998842177
    Two-Electron Energy =                 291.5852850025121370
    Total Energy =                       -266.8865026853609379
  Basis Set: (AUG-CC-PVTZ AUX)
    Blend: AUG-CC-PVTZ-RI
    Molecular point group: c1

    Geometry (in Angstrom), charge = 0, multiplicity = 1:

       Center              X                  Y                   Z               Mass
    ------------   -----------------  -----------------  -----------------  -----------------
         O           -0.362697294496     1.027567301188    -0.216915704528    15.994914619570
         O           -0.341265994496    -1.107523898812     0.189053095472    15.994914619570
         C            0.972793005504     0.759519101188     0.218532095472    12.000000000000
         C            0.973352005504    -0.698364898812    -0.197492904528    12.000000000000
         C           -1.176637994496     0.030065101188     0.010657095472    12.000000000000
         H            1.117236005504     0.861547101188     1.302430095472     1.007825032230
         H            1.688442005504     1.389947101188    -0.312742904528     1.007825032230
         H            1.118553005504    -0.800287898812    -1.281290904528     1.007825032230
         H            1.689085005504    -1.328328898812     0.334227095472     1.007825032230
         H           -1.801064994496     0.125137101188     0.907247095472     1.007825032230
         H           -1.802230994496    -0.065177898812    -0.885072904528     1.007825032230

  Basis Set: AUG-CC-PVTZ
    Blend: AUG-CC-PVTZ
  Basis Set: (AUG-CC-PVTZ AUX)
    Blend: AUG-CC-PVTZ-JKFIT
	 Reference Energy          =    -266.8865026853609379 [Eh]
	 Singles Energy            =      -0.0000000000000000 [Eh]
	 Same-Spin Energy          =      -0.2550423628981474 [Eh]
	 Opposite-Spin Energy      =      -0.8221886930370895 [Eh]
	 Correlation Energy        =      -1.0772310559352369 [Eh]
	 Total Energy              =    -267.9637337412961529 [Eh]

	 ================> DF-SCS-MP2 Energies <==================
	-----------------------------------------------------------
	 SCS Same-Spin Scale       =       0.3333333333333333 [-]
	 SCS Opposite-Spin Scale   =       1.2000000000000000 [-]
	 SCS Same-Spin Energy      =      -0.0850141209660491 [Eh]
	 SCS Opposite-Spin Energy  =      -0.9866264316445074 [Eh]
	 SCS Correlation Energy    =      -1.0716405526105566 [Eh]
	 SCS Total Energy          =    -267.9581432379715125 [Eh]
	-----------------------------------------------------------

  Dipole Moment: [D]
     X:     1.4050      Y:     0.5115      Z:     0.0603     Total:     1.4964

*** Psi4 exiting successfully. Buy a developer a beer!
