                               Psi4 1.3.2 release

  ==> Input File <==

--------------------------------------------------------------------------
#psi4
#
memory 32 gb

molecule  {
0 1
  O       -0.3708850     1.1374830    -0.1792890
  O       -0.3703240    -1.1378310     0.1786440
  C        0.9437350     0.7292120     0.2081230
  C        0.9442940    -0.7286720    -0.2079020
  C       -1.2056960    -0.0002420     0.0002480
  H        1.0881780     0.8312400     1.2920210
  H        1.6593840     1.3596400    -0.3231520
  H        1.0894950    -0.8305950    -1.2917000
  H        1.6600270    -1.3586360     0.3238180
  H       -1.7324577     0.1012206     0.9568298
  H       -1.8312890    -0.0954850    -0.8954820
units angstrom
no_reorient  #important for SAPT in psi4, default
symmetry c1  #important for SAPT in psi4, default
}

set PROPERTIES_ORIGIN ["COM"]
properties('MP2/aug-cc-pvtz', properties = ['dipole'])
--------------------------------------------------------------------------

    Molecular point group: c1
  Charge       = 0
  Multiplicity = 1
  Basis Set: AUG-CC-PVTZ
    Blend: AUG-CC-PVTZ
  Basis Set: (AUG-CC-PVTZ AUX)
    Blend: AUG-CC-PVTZ-JKFIT

    Orbital Energies [Eh]
    ---------------------

    Doubly Occupied:

       1A    -20.567012     2A    -20.566729     3A    -11.329685
       4A    -11.285491     5A    -11.284815     6A     -1.435335
       7A     -1.330508     8A     -1.032675     9A     -0.862927
      10A     -0.854603    11A     -0.718557    12A     -0.702519
      13A     -0.645460    14A     -0.595124    15A     -0.576989
      16A     -0.568214    17A     -0.516111    18A     -0.504103
      19A     -0.447812    20A     -0.423555

  @DF-RHF Final Energy:  -266.89357544219797

   => Energetics <=

    Nuclear Repulsion Energy =            194.2754430347210075
    One-Electron Energy =                -749.8415872379371194
    Two-Electron Energy =                 288.6725687610181694
    Total Energy =                       -266.8935754421979709
  Basis Set: (AUG-CC-PVTZ AUX)
    Blend: AUG-CC-PVTZ-RI
    Molecular point group: c1

    Geometry (in Angstrom), charge = 0, multiplicity = 1:

       Center              X                  Y                   Z               Mass
    ------------   -----------------  -----------------  -----------------  -----------------
         O           -0.347665284654     1.137409358838    -0.180074202332    15.994914619570
         O           -0.347104284654    -1.137904641162     0.177858797668    15.994914619570
         C            0.966954715346     0.729138358838     0.207337797668    12.000000000000
         C            0.967513715346    -0.728745641162    -0.208687202332    12.000000000000
         C           -1.182476284654    -0.000315641162    -0.000537202332    12.000000000000
         H            1.111397715346     0.831166358838     1.291235797668     1.007825032230
         H            1.682603715346     1.359566358838    -0.323937202332     1.007825032230
         H            1.112714715346    -0.830668641162    -1.292485202332     1.007825032230
         H            1.683246715346    -1.358709641162     0.323032797668     1.007825032230
         H           -1.709237984654     0.101146958838     0.956044597668     1.007825032230
         H           -1.808069284654    -0.095558641162    -0.896267202332     1.007825032230

  Basis Set: AUG-CC-PVTZ
    Blend: AUG-CC-PVTZ
  Basis Set: (AUG-CC-PVTZ AUX)
    Blend: AUG-CC-PVTZ-JKFIT
	 Reference Energy          =    -266.8935754421979709 [Eh]
	 Singles Energy            =      -0.0000000000000000 [Eh]
	 Same-Spin Energy          =      -0.2553088335448000 [Eh]
	 Opposite-Spin Energy      =      -0.8249716425170428 [Eh]
	 Correlation Energy        =      -1.0802804760618427 [Eh]
	 Total Energy              =    -267.9738559182598010 [Eh]

	 ================> DF-SCS-MP2 Energies <==================
	-----------------------------------------------------------
	 SCS Same-Spin Scale       =       0.3333333333333333 [-]
	 SCS Opposite-Spin Scale   =       1.2000000000000000 [-]
	 SCS Same-Spin Energy      =      -0.0851029445149333 [Eh]
	 SCS Opposite-Spin Energy  =      -0.9899659710204514 [Eh]
	 SCS Correlation Energy    =      -1.0750689155353848 [Eh]
	 SCS Total Energy          =    -267.9686443577333534 [Eh]
	-----------------------------------------------------------

  Dipole Moment: [D]
     X:     1.1954      Y:     0.0016      Z:    -0.0102     Total:     1.1955

*** Psi4 exiting successfully. Buy a developer a beer!
