                               Psi4 1.4a3.dev225

  ==> Input File <==

--------------------------------------------------------------------------
#psi4
#
memory 32 gb

molecule  {
0 1
  O       -0.3708180     1.1374600    -0.1796520
  O       -0.3702750    -1.1377920     0.1790210
  C        0.9435640     0.7290890     0.2086020
  C        0.9441010    -0.7285680    -0.2083840
  C       -1.2345630    -0.0402317     0.0065671
  H        1.0871020     0.8300640     1.2927200
  H        1.6596950     1.3594640    -0.3218900
  H        1.0883850    -0.8294390    -1.2924060
  H        1.6603130    -1.3585000     0.3225370
  H       -1.8301100     0.0954290     0.8966270
  H       -1.8312480    -0.0960600    -0.8953020
units angstrom
no_reorient  #important for SAPT in psi4, default
symmetry c1  #important for SAPT in psi4, default
}

set PROPERTIES_ORIGIN ["COM"]
properties('MP2/aug-cc-pvtz', properties = ['dipole'])
--------------------------------------------------------------------------

    Molecular point group: c1
  Charge       = 0
  Multiplicity = 1
  Basis Set: AUG-CC-PVTZ
    Blend: AUG-CC-PVTZ
  Basis Set: (AUG-CC-PVTZ AUX)
    Blend: AUG-CC-PVTZ-JKFIT

    Orbital Energies [Eh]
    ---------------------

    Doubly Occupied:

       1A    -20.570214     2A    -20.562436     3A    -11.330529
       4A    -11.286217     5A    -11.282146     6A     -1.429396
       7A     -1.323597     8A     -1.031856     9A     -0.868700
      10A     -0.851183    11A     -0.714596    12A     -0.701080
      13A     -0.643893    14A     -0.593122    15A     -0.582792
      16A     -0.569252    17A     -0.511301    18A     -0.499413
      19A     -0.445582    20A     -0.426937

  @DF-RHF Final Energy:  -266.89272628856088

   => Energetics <=

    Nuclear Repulsion Energy =            193.5802914625126334
    One-Electron Energy =                -748.4975514129847625
    Two-Electron Energy =                 288.0245336619112777
    Total Energy =                       -266.8927262885608798
  Basis Set: (AUG-CC-PVTZ AUX)
    Blend: AUG-CC-PVTZ-RI
    Molecular point group: c1

    Geometry (in Angstrom), charge = 0, multiplicity = 1:

       Center              X                  Y                   Z               Mass
    ------------   -----------------  -----------------  -----------------  -----------------
         O           -0.341535174685     1.143955058523    -0.180646536735    15.994914619570
         O           -0.340992174685    -1.131296941477     0.178026463265    15.994914619570
         C            0.972846825315     0.735584058523     0.207607463265    12.000000000000
         C            0.973383825315    -0.722072941477    -0.209378536735    12.000000000000
         C           -1.205280174685    -0.033736641477     0.005572563265    12.000000000000
         H            1.116384825315     0.836559058523     1.291725463265     1.007825032230
         H            1.688977825315     1.365959058523    -0.322884536735     1.007825032230
         H            1.117667825315    -0.822943941477    -1.293400536735     1.007825032230
         H            1.689595825315    -1.352004941477     0.321542463265     1.007825032230
         H           -1.800827174685     0.101924058523     0.895632463265     1.007825032230
         H           -1.801965174685    -0.089564941477    -0.896296536735     1.007825032230

  Basis Set: AUG-CC-PVTZ
    Blend: AUG-CC-PVTZ
  Basis Set: (AUG-CC-PVTZ AUX)
    Blend: AUG-CC-PVTZ-JKFIT
	 Reference Energy          =    -266.8927262885608798 [Eh]
	 Singles Energy            =      -0.0000000000000000 [Eh]
	 Same-Spin Energy          =      -0.2552146476995248 [Eh]
	 Opposite-Spin Energy      =      -0.8252269756837444 [Eh]
	 Correlation Energy        =      -1.0804416233832692 [Eh]
	 Total Energy              =    -267.9731679119441310 [Eh]

	 ================> DF-SCS-MP2 Energies <==================
	-----------------------------------------------------------
	 SCS Same-Spin Scale       =       0.3333333333333333 [-]
	 SCS Opposite-Spin Scale   =       1.2000000000000000 [-]
	 SCS Same-Spin Energy      =      -0.0850715492331749 [Eh]
	 SCS Opposite-Spin Energy  =      -0.9902723708204932 [Eh]
	 SCS Correlation Energy    =      -1.0753439200536681 [Eh]
	 SCS Total Energy          =    -267.9680702086145629 [Eh]
	-----------------------------------------------------------

  Dipole Moment: [D]
     X:     1.0626      Y:    -0.1622      Z:     0.0173     Total:     1.0750

*** Psi4 exiting successfully. Buy a developer a beer!
