                               Psi4 1.3.2 release

  ==> Input File <==

--------------------------------------------------------------------------
#psi4
#
memory 32 gb

molecule  {
0 1
  O       -0.3708850     1.1374830    -0.1792890
  O       -0.3703240    -1.1378310     0.1786440
  C        0.9437350     0.7292120     0.2081230
  C        0.9442940    -0.7286720    -0.2079020
  C       -1.2056960    -0.0002420     0.0002480
  H        1.0881780     0.8312400     1.2920210
  H        1.6593840     1.3596400    -0.3231520
  H        1.0894950    -0.8305950    -1.2917000
  H        1.6600270    -1.3586360     0.3238180
  H       -1.7982767     0.0970796     0.9179615
  H       -1.8312890    -0.0954850    -0.8954820
units angstrom
no_reorient  #important for SAPT in psi4, default
symmetry c1  #important for SAPT in psi4, default
}

set PROPERTIES_ORIGIN ["COM"]
properties('MP2/aug-cc-pvtz', properties = ['dipole'])
--------------------------------------------------------------------------

    Molecular point group: c1
  Charge       = 0
  Multiplicity = 1
  Basis Set: AUG-CC-PVTZ
    Blend: AUG-CC-PVTZ
  Basis Set: (AUG-CC-PVTZ AUX)
    Blend: AUG-CC-PVTZ-JKFIT

    Orbital Energies [Eh]
    ---------------------

    Doubly Occupied:

       1A    -20.567949     2A    -20.567830     3A    -11.329741
       4A    -11.285799     5A    -11.285136     6A     -1.435419
       7A     -1.330895     8A     -1.032795     9A     -0.864105
      10A     -0.854738    11A     -0.716821    12A     -0.704288
      13A     -0.643123    14A     -0.595426    15A     -0.575967
      16A     -0.572376    17A     -0.516644    18A     -0.504624
      19A     -0.447976    20A     -0.423004

  @DF-RHF Final Energy:  -266.89492386510904

   => Energetics <=

    Nuclear Repulsion Energy =            194.1833285439278711
    One-Electron Energy =                -749.6471946722082293
    Two-Electron Energy =                 288.5689422631713796
    Total Energy =                       -266.8949238651090354
  Basis Set: (AUG-CC-PVTZ AUX)
    Blend: AUG-CC-PVTZ-RI
    Molecular point group: c1

    Geometry (in Angstrom), charge = 0, multiplicity = 1:

       Center              X                  Y                   Z               Mass
    ------------   -----------------  -----------------  -----------------  -----------------
         O           -0.346769324074     1.137465728166    -0.179545107928    15.994914619570
         O           -0.346208324074    -1.137848271834     0.178387892072    15.994914619570
         C            0.967850675926     0.729194728166     0.207866892072    12.000000000000
         C            0.968409675926    -0.728689271834    -0.208158107928    12.000000000000
         C           -1.181580324074    -0.000259271834    -0.000008107928    12.000000000000
         H            1.112293675926     0.831222728166     1.291764892072     1.007825032230
         H            1.683499675926     1.359622728166    -0.323408107928     1.007825032230
         H            1.113610675926    -0.830612271834    -1.291956107928     1.007825032230
         H            1.684142675926    -1.358653271834     0.323561892072     1.007825032230
         H           -1.774161024074     0.097062328166     0.917705392072     1.007825032230
         H           -1.807173324074    -0.095502271834    -0.895738107928     1.007825032230

  Basis Set: AUG-CC-PVTZ
    Blend: AUG-CC-PVTZ
  Basis Set: (AUG-CC-PVTZ AUX)
    Blend: AUG-CC-PVTZ-JKFIT
	 Reference Energy          =    -266.8949238651090354 [Eh]
	 Singles Energy            =      -0.0000000000000000 [Eh]
	 Same-Spin Energy          =      -0.2551989605968560 [Eh]
	 Opposite-Spin Energy      =      -0.8248056493620538 [Eh]
	 Correlation Energy        =      -1.0800046099589098 [Eh]
	 Total Energy              =    -267.9749284750679408 [Eh]

	 ================> DF-SCS-MP2 Energies <==================
	-----------------------------------------------------------
	 SCS Same-Spin Scale       =       0.3333333333333333 [-]
	 SCS Opposite-Spin Scale   =       1.2000000000000000 [-]
	 SCS Same-Spin Energy      =      -0.0850663201989520 [Eh]
	 SCS Opposite-Spin Energy  =      -0.9897667792344645 [Eh]
	 SCS Correlation Energy    =      -1.0748330994334165 [Eh]
	 SCS Total Energy          =    -267.9697569645424551 [Eh]
	-----------------------------------------------------------

  Dipole Moment: [D]
     X:     1.1918      Y:     0.0015      Z:    -0.0015     Total:     1.1918

*** Psi4 exiting successfully. Buy a developer a beer!
