                               Psi4 1.3.2 release

  ==> Input File <==

--------------------------------------------------------------------------
#psi4
#
memory 32 gb

molecule  {
0 1
  O       -0.3708850     1.1374830    -0.1792890
  O       -0.3703240    -1.1378310     0.1786440
  C        0.9437350     0.7292120     0.2081230
  C        0.9442940    -0.7286720    -0.2079020
  C       -1.1470106     0.0797376    -0.0123731
  H        1.0881780     0.8312400     1.2920210
  H        1.6593840     1.3596400    -0.3231520
  H        1.0894950    -0.8305950    -1.2917000
  H        1.6600270    -1.3586360     0.3238180
  H       -1.8301230     0.0948300     0.8968380
  H       -1.8312890    -0.0954850    -0.8954820
units angstrom
no_reorient  #important for SAPT in psi4, default
symmetry c1  #important for SAPT in psi4, default
}

set PROPERTIES_ORIGIN ["COM"]
properties('MP2/aug-cc-pvtz', properties = ['dipole'])
--------------------------------------------------------------------------

    Molecular point group: c1
  Charge       = 0
  Multiplicity = 1
  Basis Set: AUG-CC-PVTZ
    Blend: AUG-CC-PVTZ
  Basis Set: (AUG-CC-PVTZ AUX)
    Blend: AUG-CC-PVTZ-JKFIT

    Orbital Energies [Eh]
    ---------------------

    Doubly Occupied:

       1A    -20.580194     2A    -20.564553     3A    -11.331045
       4A    -11.293526     5A    -11.285024     6A     -1.460599
       7A     -1.340867     8A     -1.037127     9A     -0.866129
      10A     -0.854039    11A     -0.723597    12A     -0.715336
      13A     -0.647052    14A     -0.598867    15A     -0.584981
      16A     -0.560971    17A     -0.528684    18A     -0.506022
      19A     -0.453112    20A     -0.408831

  @DF-RHF Final Energy:  -266.88532322364136

   => Energetics <=

    Nuclear Repulsion Energy =            195.3619004821042324
    One-Electron Energy =                -751.8133354915034943
    Two-Electron Energy =                 289.5661117857578688
    Total Energy =                       -266.8853232236413646
  Basis Set: (AUG-CC-PVTZ AUX)
    Blend: AUG-CC-PVTZ-RI
    Molecular point group: c1

    Geometry (in Angstrom), charge = 0, multiplicity = 1:

       Center              X                  Y                   Z               Mass
    ------------   -----------------  -----------------  -----------------  -----------------
         O           -0.355847640376     1.124533128934    -0.177211916325    15.994914619570
         O           -0.355286640376    -1.150780871066     0.180721083675    15.994914619570
         C            0.958772359624     0.716262128934     0.210200083675    12.000000000000
         C            0.959331359624    -0.741621871066    -0.205824916325    12.000000000000
         C           -1.131973240376     0.066787728934    -0.010296016325    12.000000000000
         H            1.103215359624     0.818290128934     1.294098083675     1.007825032230
         H            1.674421359624     1.346690128934    -0.321074916325     1.007825032230
         H            1.104532359624    -0.843544871066    -1.289622916325     1.007825032230
         H            1.675064359624    -1.371585871066     0.325895083675     1.007825032230
         H           -1.815085640376     0.081880128934     0.898915083675     1.007825032230
         H           -1.816251640376    -0.108434871066    -0.893404916325     1.007825032230

  Basis Set: AUG-CC-PVTZ
    Blend: AUG-CC-PVTZ
  Basis Set: (AUG-CC-PVTZ AUX)
    Blend: AUG-CC-PVTZ-JKFIT
	 Reference Energy          =    -266.8853232236413646 [Eh]
	 Singles Energy            =      -0.0000000000000000 [Eh]
	 Same-Spin Energy          =      -0.2556780425676153 [Eh]
	 Opposite-Spin Energy      =      -0.8248022288434993 [Eh]
	 Correlation Energy        =      -1.0804802714111146 [Eh]
	 Total Energy              =    -267.9658034950524552 [Eh]

	 ================> DF-SCS-MP2 Energies <==================
	-----------------------------------------------------------
	 SCS Same-Spin Scale       =       0.3333333333333333 [-]
	 SCS Opposite-Spin Scale   =       1.2000000000000000 [-]
	 SCS Same-Spin Energy      =      -0.0852260141892051 [Eh]
	 SCS Opposite-Spin Energy  =      -0.9897626746121991 [Eh]
	 SCS Correlation Energy    =      -1.0749886888014042 [Eh]
	 SCS Total Energy          =    -267.9603119124427622 [Eh]
	-----------------------------------------------------------

  Dipole Moment: [D]
     X:     1.5087      Y:     0.3505      Z:    -0.0374     Total:     1.5494

*** Psi4 exiting successfully. Buy a developer a beer!
