                               Psi4 1.3.2 release

  ==> Input File <==

--------------------------------------------------------------------------
#psi4
#
memory 32 gb

molecule  {
0 1
  O       -0.3607116     1.1833045    -0.1623064
  O       -0.3703240    -1.1378310     0.1786440
  C        0.9437350     0.7292120     0.2081230
  C        0.9442940    -0.7286720    -0.2079020
  C       -1.2056960    -0.0002420     0.0002480
  H        1.0881780     0.8312400     1.2920210
  H        1.6593840     1.3596400    -0.3231520
  H        1.0894950    -0.8305950    -1.2917000
  H        1.6600270    -1.3586360     0.3238180
  H       -1.8301230     0.0948300     0.8968380
  H       -1.8312890    -0.0954850    -0.8954820
units angstrom
no_reorient  #important for SAPT in psi4, default
symmetry c1  #important for SAPT in psi4, default
}

set PROPERTIES_ORIGIN ["COM"]
properties('MP2/aug-cc-pvtz', properties = ['dipole'])
--------------------------------------------------------------------------

    Molecular point group: c1
  Charge       = 0
  Multiplicity = 1
  Basis Set: AUG-CC-PVTZ
    Blend: AUG-CC-PVTZ
  Basis Set: (AUG-CC-PVTZ AUX)
    Blend: AUG-CC-PVTZ-JKFIT

    Orbital Energies [Eh]
    ---------------------

    Doubly Occupied:

       1A    -20.571727     2A    -20.569282     3A    -11.333494
       4A    -11.286924     5A    -11.283588     6A     -1.428233
       7A     -1.329336     8A     -1.029539     9A     -0.868145
      10A     -0.851941    11A     -0.713641    12A     -0.702099
      13A     -0.638082    14A     -0.596223    15A     -0.576326
      16A     -0.569349    17A     -0.518542    18A     -0.504219
      19A     -0.447525    20A     -0.425420

  @DF-RHF Final Energy:  -266.89192005658276

   => Energetics <=

    Nuclear Repulsion Energy =            193.1531574733152183
    One-Electron Energy =                -747.6028853645233312
    Two-Electron Energy =                 287.5578078346253506
    Total Energy =                       -266.8919200565827623
  Basis Set: (AUG-CC-PVTZ AUX)
    Blend: AUG-CC-PVTZ-RI
    Molecular point group: c1

    Geometry (in Angstrom), charge = 0, multiplicity = 1:

       Center              X                  Y                   Z               Mass
    ------------   -----------------  -----------------  -----------------  -----------------
         O           -0.338360279130     1.173418568526    -0.165943887384    15.994914619570
         O           -0.347972679130    -1.147716931474     0.175006512616    15.994914619570
         C            0.966086320870     0.719326068526     0.204485512616    12.000000000000
         C            0.966645320870    -0.738557931474    -0.211539487384    12.000000000000
         C           -1.183344679130    -0.010127931474    -0.003389487384    12.000000000000
         H            1.110529320870     0.821354068526     1.288383512616     1.007825032230
         H            1.681735320870     1.349754068526    -0.326789487384     1.007825032230
         H            1.111846320870    -0.840480931474    -1.295337487384     1.007825032230
         H            1.682378320870    -1.368521931474     0.320180512616     1.007825032230
         H           -1.807771679130     0.084944068526     0.893200512616     1.007825032230
         H           -1.808937679130    -0.105370931474    -0.899119487384     1.007825032230

  Basis Set: AUG-CC-PVTZ
    Blend: AUG-CC-PVTZ
  Basis Set: (AUG-CC-PVTZ AUX)
    Blend: AUG-CC-PVTZ-JKFIT
	 Reference Energy          =    -266.8919200565827623 [Eh]
	 Singles Energy            =      -0.0000000000000000 [Eh]
	 Same-Spin Energy          =      -0.2554348654764794 [Eh]
	 Opposite-Spin Energy      =      -0.8260370132196123 [Eh]
	 Correlation Energy        =      -1.0814718786960917 [Eh]
	 Total Energy              =    -267.9733919352788689 [Eh]

	 ================> DF-SCS-MP2 Energies <==================
	-----------------------------------------------------------
	 SCS Same-Spin Scale       =       0.3333333333333333 [-]
	 SCS Opposite-Spin Scale   =       1.2000000000000000 [-]
	 SCS Same-Spin Energy      =      -0.0851449551588265 [Eh]
	 SCS Opposite-Spin Energy  =      -0.9912444158635347 [Eh]
	 SCS Correlation Energy    =      -1.0763893710223611 [Eh]
	 SCS Total Energy          =    -267.9683094276051065 [Eh]
	-----------------------------------------------------------

  Dipole Moment: [D]
     X:     1.1199      Y:    -0.1567      Z:    -0.0251     Total:     1.1311

*** Psi4 exiting successfully. Buy a developer a beer!
