                               Psi4 1.3.2 release

  ==> Input File <==

--------------------------------------------------------------------------
#psi4
#
memory 32 gb

molecule  {
0 1
  O       -0.2925728     1.0771773    -0.1698547
  O       -0.3703240    -1.1378310     0.1786440
  C        0.9437350     0.7292120     0.2081230
  C        0.9442940    -0.7286720    -0.2079020
  C       -1.2056960    -0.0002420     0.0002480
  H        1.0881780     0.8312400     1.2920210
  H        1.6593840     1.3596400    -0.3231520
  H        1.0894950    -0.8305950    -1.2917000
  H        1.6600270    -1.3586360     0.3238180
  H       -1.8301230     0.0948300     0.8968380
  H       -1.8312890    -0.0954850    -0.8954820
units angstrom
no_reorient  #important for SAPT in psi4, default
symmetry c1  #important for SAPT in psi4, default
}

set PROPERTIES_ORIGIN ["COM"]
properties('MP2/aug-cc-pvtz', properties = ['dipole'])
--------------------------------------------------------------------------

    Molecular point group: c1
  Charge       = 0
  Multiplicity = 1
  Basis Set: AUG-CC-PVTZ
    Blend: AUG-CC-PVTZ
  Basis Set: (AUG-CC-PVTZ AUX)
    Blend: AUG-CC-PVTZ-JKFIT

    Orbital Energies [Eh]
    ---------------------

    Doubly Occupied:

       1A    -20.565718     2A    -20.564538     3A    -11.335141
       4A    -11.279628     5A    -11.276385     6A     -1.455400
       7A     -1.339953     8A     -1.034670     9A     -0.870129
      10A     -0.852150    11A     -0.723815    12A     -0.714260
      13A     -0.646906    14A     -0.604306    15A     -0.590117
      16A     -0.573261    17A     -0.515235    18A     -0.492834
      19A     -0.438694    20A     -0.423623

  @DF-RHF Final Energy:  -266.89111476862354

   => Energetics <=

    Nuclear Repulsion Energy =            196.4039255157194646
    One-Electron Energy =                -753.9965527192298396
    Two-Electron Energy =                 290.7015124348868085
    Total Energy =                       -266.8911147686235381
  Basis Set: (AUG-CC-PVTZ AUX)
    Blend: AUG-CC-PVTZ-RI
    Molecular point group: c1

    Geometry (in Angstrom), charge = 0, multiplicity = 1:

       Center              X                  Y                   Z               Mass
    ------------   -----------------  -----------------  -----------------  -----------------
         O           -0.284942193572     1.090219101415    -0.171861451756    15.994914619570
         O           -0.362693393572    -1.124789198585     0.176637248244    15.994914619570
         C            0.951365606428     0.742253801415     0.206116248244    12.000000000000
         C            0.951924606428    -0.715630198585    -0.209908751756    12.000000000000
         C           -1.198065393572     0.012799801415    -0.001758751756    12.000000000000
         H            1.095808606428     0.844281801415     1.290014248244     1.007825032230
         H            1.667014606428     1.372681801415    -0.325158751756     1.007825032230
         H            1.097125606428    -0.817553198585    -1.293706751756     1.007825032230
         H            1.667657606428    -1.345594198585     0.321811248244     1.007825032230
         H           -1.822492393572     0.107871801415     0.894831248244     1.007825032230
         H           -1.823658393572    -0.082443198585    -0.897488751756     1.007825032230

  Basis Set: AUG-CC-PVTZ
    Blend: AUG-CC-PVTZ
  Basis Set: (AUG-CC-PVTZ AUX)
    Blend: AUG-CC-PVTZ-JKFIT
	 Reference Energy          =    -266.8911147686235381 [Eh]
	 Singles Energy            =      -0.0000000000000000 [Eh]
	 Same-Spin Energy          =      -0.2549340221066253 [Eh]
	 Opposite-Spin Energy      =      -0.8225869450085789 [Eh]
	 Correlation Energy        =      -1.0775209671152042 [Eh]
	 Total Energy              =    -267.9686357357387578 [Eh]

	 ================> DF-SCS-MP2 Energies <==================
	-----------------------------------------------------------
	 SCS Same-Spin Scale       =       0.3333333333333333 [-]
	 SCS Opposite-Spin Scale   =       1.2000000000000000 [-]
	 SCS Same-Spin Energy      =      -0.0849780073688751 [Eh]
	 SCS Opposite-Spin Energy  =      -0.9871043340102946 [Eh]
	 SCS Correlation Energy    =      -1.0720823413791698 [Eh]
	 SCS Total Energy          =    -267.9631971100026817 [Eh]
	-----------------------------------------------------------

  Dipole Moment: [D]
     X:     0.8221      Y:     0.1678      Z:    -0.0731     Total:     0.8423

*** Psi4 exiting successfully. Buy a developer a beer!
