                               Psi4 1.3.2 release

  ==> Input File <==

--------------------------------------------------------------------------
#psi4
#
memory 32 gb

molecule  {
0 1
  O       -0.3708850     1.1374830    -0.1792890
  O       -0.3703240    -1.1378310     0.1786440
  C        0.9437350     0.7292120     0.2081230
  C        0.9442940    -0.7286720    -0.2079020
  C       -1.0883252     0.1597172    -0.0249941
  H        1.0881780     0.8312400     1.2920210
  H        1.6593840     1.3596400    -0.3231520
  H        1.0894950    -0.8305950    -1.2917000
  H        1.6600270    -1.3586360     0.3238180
  H       -1.8301230     0.0948300     0.8968380
  H       -1.8312890    -0.0954850    -0.8954820
units angstrom
no_reorient  #important for SAPT in psi4, default
symmetry c1  #important for SAPT in psi4, default
}

set PROPERTIES_ORIGIN ["COM"]
properties('MP2/aug-cc-pvtz', properties = ['dipole'])
--------------------------------------------------------------------------

    Molecular point group: c1
  Charge       = 0
  Multiplicity = 1
  Basis Set: AUG-CC-PVTZ
    Blend: AUG-CC-PVTZ
  Basis Set: (AUG-CC-PVTZ AUX)
    Blend: AUG-CC-PVTZ-JKFIT

    Orbital Energies [Eh]
    ---------------------

    Doubly Occupied:

       1A    -20.593245     2A    -20.559802     3A    -11.335847
       4A    -11.303387     5A    -11.285304     6A     -1.506631
       7A     -1.342496     8A     -1.045504     9A     -0.878378
      10A     -0.844895    11A     -0.737441    12A     -0.730094
      13A     -0.663590    14A     -0.606633    15A     -0.588020
      16A     -0.560546    17A     -0.529593    18A     -0.497198
      19A     -0.455614    20A     -0.389549

  @DF-RHF Final Energy:  -266.84904549073678

   => Energetics <=

    Nuclear Repulsion Energy =            196.7360193227713410
    One-Electron Energy =                -754.2625962594729572
    Two-Electron Energy =                 290.6775314459648598
    Total Energy =                       -266.8490454907367848
  Basis Set: (AUG-CC-PVTZ AUX)
    Blend: AUG-CC-PVTZ-RI
    Molecular point group: c1

    Geometry (in Angstrom), charge = 0, multiplicity = 1:

       Center              X                  Y                   Z               Mass
    ------------   -----------------  -----------------  -----------------  -----------------
         O           -0.365359464167     1.111569907041    -0.175166284395    15.994914619570
         O           -0.364798464167    -1.163744092959     0.182766715605    15.994914619570
         C            0.949260535833     0.703298907041     0.212245715605    12.000000000000
         C            0.949819535833    -0.754585092959    -0.203779284395    12.000000000000
         C           -1.082799664167     0.133804107041    -0.020871384395    12.000000000000
         H            1.093703535833     0.805326907041     1.296143715605     1.007825032230
         H            1.664909535833     1.333726907041    -0.319029284395     1.007825032230
         H            1.095020535833    -0.856508092959    -1.287577284395     1.007825032230
         H            1.665552535833    -1.384549092959     0.327940715605     1.007825032230
         H           -1.824597464167     0.068916907041     0.900960715605     1.007825032230
         H           -1.825763464167    -0.121398092959    -0.891359284395     1.007825032230

  Basis Set: AUG-CC-PVTZ
    Blend: AUG-CC-PVTZ
  Basis Set: (AUG-CC-PVTZ AUX)
    Blend: AUG-CC-PVTZ-JKFIT
	 Reference Energy          =    -266.8490454907367848 [Eh]
	 Singles Energy            =      -0.0000000000000000 [Eh]
	 Same-Spin Energy          =      -0.2570134464099934 [Eh]
	 Opposite-Spin Energy      =      -0.8262528159556481 [Eh]
	 Correlation Energy        =      -1.0832662623656415 [Eh]
	 Total Energy              =    -267.9323117531024536 [Eh]

	 ================> DF-SCS-MP2 Energies <==================
	-----------------------------------------------------------
	 SCS Same-Spin Scale       =       0.3333333333333333 [-]
	 SCS Opposite-Spin Scale   =       1.2000000000000000 [-]
	 SCS Same-Spin Energy      =      -0.0856711488033311 [Eh]
	 SCS Opposite-Spin Energy  =      -0.9915033791467778 [Eh]
	 SCS Correlation Energy    =      -1.0771745279501088 [Eh]
	 SCS Total Energy          =    -267.9262200186868768 [Eh]
	-----------------------------------------------------------

  Dipole Moment: [D]
     X:     1.9288      Y:     0.7474      Z:    -0.0895     Total:     2.0705

*** Psi4 exiting successfully. Buy a developer a beer!
