                               Psi4 1.3.2 release

  ==> Input File <==

--------------------------------------------------------------------------
#psi4
#
memory 32 gb

molecule  {
0 1
  O       -0.3708850     1.1374830    -0.1792890
  O       -0.3703240    -1.1378310     0.1786440
  C        1.0356642     0.7006623     0.2352141
  C        0.9442940    -0.7286720    -0.2079020
  C       -1.2056960    -0.0002420     0.0002480
  H        1.0881780     0.8312400     1.2920210
  H        1.6593840     1.3596400    -0.3231520
  H        1.0894950    -0.8305950    -1.2917000
  H        1.6600270    -1.3586360     0.3238180
  H       -1.8301230     0.0948300     0.8968380
  H       -1.8312890    -0.0954850    -0.8954820
units angstrom
no_reorient  #important for SAPT in psi4, default
symmetry c1  #important for SAPT in psi4, default
}

set PROPERTIES_ORIGIN ["COM"]
properties('MP2/aug-cc-pvtz', properties = ['dipole'])
--------------------------------------------------------------------------

    Molecular point group: c1
  Charge       = 0
  Multiplicity = 1
  Basis Set: AUG-CC-PVTZ
    Blend: AUG-CC-PVTZ
  Basis Set: (AUG-CC-PVTZ AUX)
    Blend: AUG-CC-PVTZ-JKFIT

    Orbital Energies [Eh]
    ---------------------

    Doubly Occupied:

       1A    -20.568318     2A    -20.559601     3A    -11.324660
       4A    -11.288855     5A    -11.288135     6A     -1.421296
       7A     -1.311898     8A     -1.038882     9A     -0.866156
      10A     -0.851650    11A     -0.713435    12A     -0.697099
      13A     -0.640464    14A     -0.594423    15A     -0.581024
      16A     -0.560899    17A     -0.512420    18A     -0.499240
      19A     -0.456710    20A     -0.418862

  @DF-RHF Final Energy:  -266.88562193064291

   => Energetics <=

    Nuclear Repulsion Energy =            192.8276748385231087
    One-Electron Energy =                -747.0385390323411912
    Two-Electron Energy =                 287.3252422631751983
    Total Energy =                       -266.8856219306429125
  Basis Set: (AUG-CC-PVTZ AUX)
    Blend: AUG-CC-PVTZ-RI
    Molecular point group: c1

    Geometry (in Angstrom), charge = 0, multiplicity = 1:

       Center              X                  Y                   Z               Mass
    ------------   -----------------  -----------------  -----------------  -----------------
         O           -0.361235848819     1.142123732010    -0.183648533418    15.994914619570
         O           -0.360674848819    -1.133190267990     0.174284466582    15.994914619570
         C            1.045313351181     0.705303032010     0.230854566582    12.000000000000
         C            0.953943151181    -0.724031267990    -0.212261533418    12.000000000000
         C           -1.196046848819     0.004398732010    -0.004111533418    12.000000000000
         H            1.097827151181     0.835880732010     1.287661466582     1.007825032230
         H            1.669033151181     1.364280732010    -0.327511533418     1.007825032230
         H            1.099144151181    -0.825954267990    -1.296059533418     1.007825032230
         H            1.669676151181    -1.353995267990     0.319458466582     1.007825032230
         H           -1.820473848819     0.099470732010     0.892478466582     1.007825032230
         H           -1.821639848819    -0.090844267990    -0.899841533418     1.007825032230

  Basis Set: AUG-CC-PVTZ
    Blend: AUG-CC-PVTZ
  Basis Set: (AUG-CC-PVTZ AUX)
    Blend: AUG-CC-PVTZ-JKFIT
	 Reference Energy          =    -266.8856219306429125 [Eh]
	 Singles Energy            =      -0.0000000000000000 [Eh]
	 Same-Spin Energy          =      -0.2557277979712702 [Eh]
	 Opposite-Spin Energy      =      -0.8268576513615749 [Eh]
	 Correlation Energy        =      -1.0825854493328451 [Eh]
	 Total Energy              =    -267.9682073799757518 [Eh]

	 ================> DF-SCS-MP2 Energies <==================
	-----------------------------------------------------------
	 SCS Same-Spin Scale       =       0.3333333333333333 [-]
	 SCS Opposite-Spin Scale   =       1.2000000000000000 [-]
	 SCS Same-Spin Energy      =      -0.0852425993237567 [Eh]
	 SCS Opposite-Spin Energy  =      -0.9922291816338897 [Eh]
	 SCS Correlation Energy    =      -1.0774717809576464 [Eh]
	 SCS Total Energy          =    -267.9630937116005498 [Eh]
	-----------------------------------------------------------

  Dipole Moment: [D]
     X:     1.4689      Y:    -0.0255      Z:     0.0907     Total:     1.4719

*** Psi4 exiting successfully. Buy a developer a beer!
