                               Psi4 1.3.2 release

  ==> Input File <==

--------------------------------------------------------------------------
#psi4
#
memory 32 gb

molecule  {
0 1
  O       -0.3708850     1.1374830    -0.1792890
  O       -0.3703240    -1.1378310     0.1786440
  C        0.9437350     0.7292120     0.2081230
  C        0.9442940    -0.7286720    -0.2079020
  C       -1.2056960    -0.0002420     0.0002480
  H        1.0881780     0.8312400     1.2920210
  H        1.6593840     1.3596400    -0.3231520
  H        1.0894950    -0.8305950    -1.2917000
  H        1.6600270    -1.3586360     0.3238180
  H       -1.8612086     0.0924645     0.8746221
  H       -1.8312890    -0.0954850    -0.8954820
units angstrom
no_reorient  #important for SAPT in psi4, default
symmetry c1  #important for SAPT in psi4, default
}

set PROPERTIES_ORIGIN ["COM"]
properties('MP2/aug-cc-pvtz', properties = ['dipole'])
--------------------------------------------------------------------------

    Molecular point group: c1
  Charge       = 0
  Multiplicity = 1
  Basis Set: AUG-CC-PVTZ
    Blend: AUG-CC-PVTZ
  Basis Set: (AUG-CC-PVTZ AUX)
    Blend: AUG-CC-PVTZ-JKFIT

    Orbital Energies [Eh]
    ---------------------

    Doubly Occupied:

       1A    -20.568918     2A    -20.568859     3A    -11.329781
       4A    -11.286136     5A    -11.285474     6A     -1.435550
       7A     -1.331296     8A     -1.032955     9A     -0.865419
      10A     -0.854889    11A     -0.715304    12A     -0.706130
      13A     -0.640645    14A     -0.595820    15A     -0.576461
      16A     -0.574751    17A     -0.517173    18A     -0.505141
      19A     -0.448176    20A     -0.421832

  @DF-RHF Final Energy:  -266.89489005340766

   => Energetics <=

    Nuclear Repulsion Energy =            194.1000394278659087
    One-Electron Energy =                -749.4684403785410041
    Two-Electron Energy =                 288.4735108972674311
    Total Energy =                       -266.8948900534076643
  Basis Set: (AUG-CC-PVTZ AUX)
    Blend: AUG-CC-PVTZ-RI
    Molecular point group: c1

    Geometry (in Angstrom), charge = 0, multiplicity = 1:

       Center              X                  Y                   Z               Mass
    ------------   -----------------  -----------------  -----------------  -----------------
         O           -0.345912664119     1.137528551175    -0.178955150713    15.994914619570
         O           -0.345351664119    -1.137785448825     0.178977849287    15.994914619570
         C            0.968707335881     0.729257551175     0.208456849287    12.000000000000
         C            0.969266335881    -0.728626448825    -0.207568150713    12.000000000000
         C           -1.180723664119    -0.000196448825     0.000581849287    12.000000000000
         H            1.113150335881     0.831285551175     1.292354849287     1.007825032230
         H            1.684356335881     1.359685551175    -0.322818150713     1.007825032230
         H            1.114467335881    -0.830549448825    -1.291366150713     1.007825032230
         H            1.684999335881    -1.358590448825     0.324151849287     1.007825032230
         H           -1.836236264119     0.092510051175     0.874955949287     1.007825032230
         H           -1.806316664119    -0.095439448825    -0.895148150713     1.007825032230

  Basis Set: AUG-CC-PVTZ
    Blend: AUG-CC-PVTZ
  Basis Set: (AUG-CC-PVTZ AUX)
    Blend: AUG-CC-PVTZ-JKFIT
	 Reference Energy          =    -266.8948900534076643 [Eh]
	 Singles Energy            =      -0.0000000000000000 [Eh]
	 Same-Spin Energy          =      -0.2551411050149114 [Eh]
	 Opposite-Spin Energy      =      -0.8247158091716880 [Eh]
	 Correlation Energy        =      -1.0798569141865995 [Eh]
	 Total Energy              =    -267.9747469675942853 [Eh]

	 ================> DF-SCS-MP2 Energies <==================
	-----------------------------------------------------------
	 SCS Same-Spin Scale       =       0.3333333333333333 [-]
	 SCS Opposite-Spin Scale   =       1.2000000000000000 [-]
	 SCS Same-Spin Energy      =      -0.0850470350049705 [Eh]
	 SCS Opposite-Spin Energy  =      -0.9896589710060255 [Eh]
	 SCS Correlation Energy    =      -1.0747060060109961 [Eh]
	 SCS Total Energy          =    -267.9695960594186772 [Eh]
	-----------------------------------------------------------

  Dipole Moment: [D]
     X:     1.1892      Y:     0.0010      Z:     0.0037     Total:     1.1892

*** Psi4 exiting successfully. Buy a developer a beer!
