                               Psi4 1.3.2 release

  ==> Input File <==

--------------------------------------------------------------------------
#psi4
#
memory 32 gb

molecule  {
0 1
  O       -0.3708850     1.1374830    -0.1792890
  O       -0.3703240    -1.1378310     0.1786440
  C        0.9437350     0.7292120     0.2081230
  C        0.9442940    -0.7286720    -0.2079020
  C       -1.2056960    -0.0002420     0.0002480
  H        1.0881780     0.8312400     1.2920210
  H        1.6593840     1.3596400    -0.3231520
  H        1.0894950    -0.8305950    -1.2917000
  H        1.6600270    -1.3586360     0.3238180
  H       -1.8142925     0.0959695     0.9075379
  H       -1.8312890    -0.0954850    -0.8954820
units angstrom
no_reorient  #important for SAPT in psi4, default
symmetry c1  #important for SAPT in psi4, default
}

set PROPERTIES_ORIGIN ["COM"]
properties('MP2/aug-cc-pvtz', properties = ['dipole'])
--------------------------------------------------------------------------

    Molecular point group: c1
  Charge       = 0
  Multiplicity = 1
  Basis Set: AUG-CC-PVTZ
    Blend: AUG-CC-PVTZ
  Basis Set: (AUG-CC-PVTZ AUX)
    Blend: AUG-CC-PVTZ-JKFIT

    Orbital Energies [Eh]
    ---------------------

    Doubly Occupied:

       1A    -20.568180     2A    -20.568103     3A    -11.329753
       4A    -11.285881     5A    -11.285219     6A     -1.435448
       7A     -1.330995     8A     -1.032831     9A     -0.864420
      10A     -0.854774    11A     -0.716422    12A     -0.704743
      13A     -0.642514    14A     -0.595516    15A     -0.575690
      16A     -0.573398    17A     -0.516777    18A     -0.504754
      19A     -0.448023    20A     -0.422769

  @DF-RHF Final Energy:  -266.89504462888749

   => Energetics <=

    Nuclear Repulsion Energy =            194.1616898628152796
    One-Electron Energy =                -749.6010495227342290
    Two-Electron Energy =                 288.5443150310314877
    Total Energy =                       -266.8950446288874900
  Basis Set: (AUG-CC-PVTZ AUX)
    Blend: AUG-CC-PVTZ-RI
    Molecular point group: c1

    Geometry (in Angstrom), charge = 0, multiplicity = 1:

       Center              X                  Y                   Z               Mass
    ------------   -----------------  -----------------  -----------------  -----------------
         O           -0.346551309133     1.137480839393    -0.179403216762    15.994914619570
         O           -0.345990309133    -1.137833160607     0.178529783238    15.994914619570
         C            0.968068690867     0.729209839393     0.208008783238    12.000000000000
         C            0.968627690867    -0.728674160607    -0.208016216762    12.000000000000
         C           -1.181362309133    -0.000244160607     0.000133783238    12.000000000000
         H            1.112511690867     0.831237839393     1.291906783238     1.007825032230
         H            1.683717690867     1.359637839393    -0.323266216762     1.007825032230
         H            1.113828690867    -0.830597160607    -1.291814216762     1.007825032230
         H            1.684360690867    -1.358638160607     0.323703783238     1.007825032230
         H           -1.789958809133     0.095967339393     0.907423683238     1.007825032230
         H           -1.806955309133    -0.095487160607    -0.895596216762     1.007825032230

  Basis Set: AUG-CC-PVTZ
    Blend: AUG-CC-PVTZ
  Basis Set: (AUG-CC-PVTZ AUX)
    Blend: AUG-CC-PVTZ-JKFIT
	 Reference Energy          =    -266.8950446288874900 [Eh]
	 Singles Energy            =      -0.0000000000000000 [Eh]
	 Same-Spin Energy          =      -0.2551796812641831 [Eh]
	 Opposite-Spin Energy      =      -0.8247760755132219 [Eh]
	 Correlation Energy        =      -1.0799557567774050 [Eh]
	 Total Energy              =    -267.9750003856648846 [Eh]

	 ================> DF-SCS-MP2 Energies <==================
	-----------------------------------------------------------
	 SCS Same-Spin Scale       =       0.3333333333333333 [-]
	 SCS Opposite-Spin Scale   =       1.2000000000000000 [-]
	 SCS Same-Spin Energy      =      -0.0850598937547277 [Eh]
	 SCS Opposite-Spin Energy  =      -0.9897312906158662 [Eh]
	 SCS Correlation Energy    =      -1.0747911843705940 [Eh]
	 SCS Total Energy          =    -267.9698358132581006 [Eh]
	-----------------------------------------------------------

  Dipole Moment: [D]
     X:     1.1911      Y:     0.0014      Z:     0.0001     Total:     1.1911

*** Psi4 exiting successfully. Buy a developer a beer!
