                               Psi4 1.3.2 release

  ==> Input File <==

--------------------------------------------------------------------------
#psi4
#
memory 32 gb

molecule  {
0 1
  O       -0.3794567     1.0911641    -0.1957996
  O       -0.3703240    -1.1378310     0.1786440
  C        0.9437350     0.7292120     0.2081230
  C        0.9442940    -0.7286720    -0.2079020
  C       -1.2056960    -0.0002420     0.0002480
  H        1.0881780     0.8312400     1.2920210
  H        1.6593840     1.3596400    -0.3231520
  H        1.0894950    -0.8305950    -1.2917000
  H        1.6600270    -1.3586360     0.3238180
  H       -1.8301230     0.0948300     0.8968380
  H       -1.8312890    -0.0954850    -0.8954820
units angstrom
no_reorient  #important for SAPT in psi4, default
symmetry c1  #important for SAPT in psi4, default
}

set PROPERTIES_ORIGIN ["COM"]
properties('MP2/aug-cc-pvtz', properties = ['dipole'])
--------------------------------------------------------------------------

    Molecular point group: c1
  Charge       = 0
  Multiplicity = 1
  Basis Set: AUG-CC-PVTZ
    Blend: AUG-CC-PVTZ
  Basis Set: (AUG-CC-PVTZ AUX)
    Blend: AUG-CC-PVTZ-JKFIT

    Orbital Energies [Eh]
    ---------------------

    Doubly Occupied:

       1A    -20.567417     2A    -20.564868     3A    -11.326123
       4A    -11.287813     5A    -11.284362     6A     -1.444510
       7A     -1.332071     8A     -1.036710     9A     -0.862051
      10A     -0.856929    11A     -0.718898    12A     -0.708768
      13A     -0.647031    14A     -0.594621    15A     -0.580364
      16A     -0.573850    17A     -0.514109    18A     -0.504872
      19A     -0.448431    20A     -0.419384

  @DF-RHF Final Energy:  -266.89548920663299

   => Energetics <=

    Nuclear Repulsion Energy =            195.1642020354813667
    One-Electron Energy =                -751.5730163410806881
    Two-Electron Energy =                 289.5133250989663338
    Total Energy =                       -266.8954892066329876
  Basis Set: (AUG-CC-PVTZ AUX)
    Blend: AUG-CC-PVTZ-RI
    Molecular point group: c1

    Geometry (in Angstrom), charge = 0, multiplicity = 1:

       Center              X                  Y                   Z               Mass
    ------------   -----------------  -----------------  -----------------  -----------------
         O           -0.353055685500     1.101184191482    -0.192201212479    15.994914619570
         O           -0.343922985500    -1.127810908518     0.182242387521    15.994914619570
         C            0.970136014500     0.739232091482     0.211721387521    12.000000000000
         C            0.970695014500    -0.718651908518    -0.204303612479    12.000000000000
         C           -1.179294985500     0.009778091482     0.003846387521    12.000000000000
         H            1.114579014500     0.841260091482     1.295619387521     1.007825032230
         H            1.685785014500     1.369660091482    -0.319553612479     1.007825032230
         H            1.115896014500    -0.820574908518    -1.288101612479     1.007825032230
         H            1.686428014500    -1.348615908518     0.327416387521     1.007825032230
         H           -1.803721985500     0.104850091482     0.900436387521     1.007825032230
         H           -1.804887985500    -0.085464908518    -0.891883612479     1.007825032230

  Basis Set: AUG-CC-PVTZ
    Blend: AUG-CC-PVTZ
  Basis Set: (AUG-CC-PVTZ AUX)
    Blend: AUG-CC-PVTZ-JKFIT
	 Reference Energy          =    -266.8954892066329876 [Eh]
	 Singles Energy            =      -0.0000000000000000 [Eh]
	 Same-Spin Energy          =      -0.2550035171365906 [Eh]
	 Opposite-Spin Energy      =      -0.8236747511536588 [Eh]
	 Correlation Energy        =      -1.0786782682902496 [Eh]
	 Total Energy              =    -267.9741674749232629 [Eh]

	 ================> DF-SCS-MP2 Energies <==================
	-----------------------------------------------------------
	 SCS Same-Spin Scale       =       0.3333333333333333 [-]
	 SCS Opposite-Spin Scale   =       1.2000000000000000 [-]
	 SCS Same-Spin Energy      =      -0.0850011723788635 [Eh]
	 SCS Opposite-Spin Energy  =      -0.9884097013843905 [Eh]
	 SCS Correlation Energy    =      -1.0734108737632542 [Eh]
	 SCS Total Energy          =    -267.9689000803962244 [Eh]
	-----------------------------------------------------------

  Dipole Moment: [D]
     X:     1.2621      Y:     0.1653      Z:     0.0250     Total:     1.2731

*** Psi4 exiting successfully. Buy a developer a beer!
