                               Psi4 1.4a3.dev225

  ==> Input File <==

--------------------------------------------------------------------------
#psi4
#
memory 32 gb

molecule  {
0 1
  O       -0.3708180     1.1374600    -0.1796520
  O       -0.3702750    -1.1377920     0.1790210
  C        0.9619460     0.7233778     0.2140318
  C        0.9441010    -0.7285680    -0.2083840
  C       -1.2052300    -0.0002370     0.0002430
  H        1.0871020     0.8300640     1.2927200
  H        1.6596950     1.3594640    -0.3218900
  H        1.0883850    -0.8294390    -1.2924060
  H        1.6603130    -1.3585000     0.3225370
  H       -1.8301100     0.0954290     0.8966270
  H       -1.8312480    -0.0960600    -0.8953020
units angstrom
no_reorient  #important for SAPT in psi4, default
symmetry c1  #important for SAPT in psi4, default
}

set PROPERTIES_ORIGIN ["COM"]
properties('MP2/aug-cc-pvtz', properties = ['dipole'])
--------------------------------------------------------------------------

    Molecular point group: c1
  Charge       = 0
  Multiplicity = 1
  Basis Set: AUG-CC-PVTZ
    Blend: AUG-CC-PVTZ
  Basis Set: (AUG-CC-PVTZ AUX)
    Blend: AUG-CC-PVTZ-JKFIT

    Orbital Energies [Eh]
    ---------------------

    Doubly Occupied:

       1A    -20.568359     2A    -20.566708     3A    -11.328664
       4A    -11.286388     5A    -11.285668     6A     -1.432122
       7A     -1.327264     8A     -1.034020     9A     -0.864079
      10A     -0.854927    11A     -0.715319    12A     -0.703517
      13A     -0.641175    14A     -0.595114    15A     -0.576155
      16A     -0.571531    17A     -0.514486    18A     -0.506539
      19A     -0.450261    20A     -0.421829

  @DF-RHF Final Energy:  -266.89434740617764

   => Energetics <=

    Nuclear Repulsion Energy =            193.8864388217978103
    One-Electron Energy =                -749.0733192601409201
    Two-Electron Energy =                 288.2925330321654656
    Total Energy =                       -266.8943474061776442
  Basis Set: (AUG-CC-PVTZ AUX)
    Blend: AUG-CC-PVTZ-RI
    Molecular point group: c1

    Geometry (in Angstrom), charge = 0, multiplicity = 1:

       Center              X                  Y                   Z               Mass
    ------------   -----------------  -----------------  -----------------  -----------------
         O           -0.349268898442     1.138398333836    -0.180501587156    15.994914619570
         O           -0.348725898442    -1.136853666164     0.178171412844    15.994914619570
         C            0.983495101558     0.724316133836     0.213182212844    12.000000000000
         C            0.965650101558    -0.727629666164    -0.209233587156    12.000000000000
         C           -1.183680898442     0.000701333836    -0.000606587156    12.000000000000
         H            1.108651101558     0.831002333836     1.291870412844     1.007825032230
         H            1.681244101558     1.360402333836    -0.322739587156     1.007825032230
         H            1.109934101558    -0.828500666164    -1.293255587156     1.007825032230
         H            1.681862101558    -1.357561666164     0.321687412844     1.007825032230
         H           -1.808560898442     0.096367333836     0.895777412844     1.007825032230
         H           -1.809698898442    -0.095121666164    -0.896151587156     1.007825032230

  Basis Set: AUG-CC-PVTZ
    Blend: AUG-CC-PVTZ
  Basis Set: (AUG-CC-PVTZ AUX)
    Blend: AUG-CC-PVTZ-JKFIT
	 Reference Energy          =    -266.8943474061776442 [Eh]
	 Singles Energy            =      -0.0000000000000000 [Eh]
	 Same-Spin Energy          =      -0.2552336356109002 [Eh]
	 Opposite-Spin Energy      =      -0.8250929936384515 [Eh]
	 Correlation Energy        =      -1.0803266292493516 [Eh]
	 Total Energy              =    -267.9746740354269718 [Eh]

	 ================> DF-SCS-MP2 Energies <==================
	-----------------------------------------------------------
	 SCS Same-Spin Scale       =       0.3333333333333333 [-]
	 SCS Opposite-Spin Scale   =       1.2000000000000000 [-]
	 SCS Same-Spin Energy      =      -0.0850778785369667 [Eh]
	 SCS Opposite-Spin Energy  =      -0.9901115923661417 [Eh]
	 SCS Correlation Energy    =      -1.0751894709031085 [Eh]
	 SCS Total Energy          =    -267.9695368770807704 [Eh]
	-----------------------------------------------------------

  Dipole Moment: [D]
     X:     1.2530      Y:    -0.0036      Z:     0.0218     Total:     1.2532

*** Psi4 exiting successfully. Buy a developer a beer!
