                               Psi4 1.3.2 release

  ==> Input File <==

--------------------------------------------------------------------------
#psi4
#
memory 32 gb

molecule  {
0 1
  O       -0.3659978     1.1604594    -0.1708554
  O       -0.3703240    -1.1378310     0.1786440
  C        0.9437350     0.7292120     0.2081230
  C        0.9442940    -0.7286720    -0.2079020
  C       -1.2056960    -0.0002420     0.0002480
  H        1.0881780     0.8312400     1.2920210
  H        1.6593840     1.3596400    -0.3231520
  H        1.0894950    -0.8305950    -1.2917000
  H        1.6600270    -1.3586360     0.3238180
  H       -1.8301230     0.0948300     0.8968380
  H       -1.8312890    -0.0954850    -0.8954820
units angstrom
no_reorient  #important for SAPT in psi4, default
symmetry c1  #important for SAPT in psi4, default
}

set PROPERTIES_ORIGIN ["COM"]
properties('MP2/aug-cc-pvtz', properties = ['dipole'])
--------------------------------------------------------------------------

    Molecular point group: c1
  Charge       = 0
  Multiplicity = 1
  Basis Set: AUG-CC-PVTZ
    Blend: AUG-CC-PVTZ
  Basis Set: (AUG-CC-PVTZ AUX)
    Blend: AUG-CC-PVTZ-JKFIT

    Orbital Energies [Eh]
    ---------------------

    Doubly Occupied:

       1A    -20.570070     2A    -20.568862     3A    -11.331619
       4A    -11.286320     5A    -11.284550     6A     -1.431636
       7A     -1.330310     8A     -1.031142     9A     -0.866409
      10A     -0.853416    11A     -0.714782    12A     -0.703593
      13A     -0.639820    14A     -0.595968    15A     -0.575710
      16A     -0.571979    17A     -0.517868    18A     -0.504656
      19A     -0.447816    20A     -0.423987

  @DF-RHF Final Energy:  -266.89381919166908

   => Energetics <=

    Nuclear Repulsion Energy =            193.6422965459188674
    One-Electron Energy =                -748.5712052039336868
    Two-Electron Energy =                 288.0350894663457666
    Total Energy =                       -266.8938191916690812
  Basis Set: (AUG-CC-PVTZ AUX)
    Blend: AUG-CC-PVTZ-RI
    Molecular point group: c1

    Geometry (in Angstrom), charge = 0, multiplicity = 1:

       Center              X                  Y                   Z               Mass
    ------------   -----------------  -----------------  -----------------  -----------------
         O           -0.342504447854     1.155508926642    -0.172645960409    15.994914619570
         O           -0.346830647854    -1.142781473358     0.176853439591    15.994914619570
         C            0.967228352146     0.724261526642     0.206332439591    12.000000000000
         C            0.967787352146    -0.733622473358    -0.209692560409    12.000000000000
         C           -1.182202647854    -0.005192473358    -0.001542560409    12.000000000000
         H            1.111671352146     0.826289526642     1.290230439591     1.007825032230
         H            1.682877352146     1.354689526642    -0.324942560409     1.007825032230
         H            1.112988352146    -0.835545473358    -1.293490560409     1.007825032230
         H            1.683520352146    -1.363586473358     0.322027439591     1.007825032230
         H           -1.806629647854     0.089879526642     0.895047439591     1.007825032230
         H           -1.807795647854    -0.100435473358    -0.897272560409     1.007825032230

  Basis Set: AUG-CC-PVTZ
    Blend: AUG-CC-PVTZ
  Basis Set: (AUG-CC-PVTZ AUX)
    Blend: AUG-CC-PVTZ-JKFIT
	 Reference Energy          =    -266.8938191916690812 [Eh]
	 Singles Energy            =      -0.0000000000000000 [Eh]
	 Same-Spin Energy          =      -0.2552858700791092 [Eh]
	 Opposite-Spin Energy      =      -0.8253687372607231 [Eh]
	 Correlation Energy        =      -1.0806546073398322 [Eh]
	 Total Energy              =    -267.9744737990089334 [Eh]

	 ================> DF-SCS-MP2 Energies <==================
	-----------------------------------------------------------
	 SCS Same-Spin Scale       =       0.3333333333333333 [-]
	 SCS Opposite-Spin Scale   =       1.2000000000000000 [-]
	 SCS Same-Spin Energy      =      -0.0850952900263697 [Eh]
	 SCS Opposite-Spin Energy  =      -0.9904424847128677 [Eh]
	 SCS Correlation Energy    =      -1.0755377747392374 [Eh]
	 SCS Total Energy          =    -267.9693569664083270 [Eh]
	-----------------------------------------------------------

  Dipole Moment: [D]
     X:     1.1550      Y:    -0.0785      Z:    -0.0114     Total:     1.1577

*** Psi4 exiting successfully. Buy a developer a beer!
