                               Psi4 1.4a3.dev225

  ==> Input File <==

--------------------------------------------------------------------------
#psi4
#
memory 32 gb

molecule  {
0 1
  O       -0.3708180     1.1374600    -0.1796520
  O       -0.3702750    -1.1377920     0.1790210
  C        0.9435640     0.7290890     0.2086020
  C        0.9440939    -0.7093393    -0.2028833
  C       -1.2052300    -0.0002370     0.0002430
  H        1.0871020     0.8300640     1.2927200
  H        1.6596950     1.3594640    -0.3218900
  H        1.0883850    -0.8294390    -1.2924060
  H        1.6603130    -1.3585000     0.3225370
  H       -1.8301100     0.0954290     0.8966270
  H       -1.8312480    -0.0960600    -0.8953020
units angstrom
no_reorient  #important for SAPT in psi4, default
symmetry c1  #important for SAPT in psi4, default
}

set PROPERTIES_ORIGIN ["COM"]
properties('MP2/aug-cc-pvtz', properties = ['dipole'])
--------------------------------------------------------------------------

    Molecular point group: c1
  Charge       = 0
  Multiplicity = 1
  Basis Set: AUG-CC-PVTZ
    Blend: AUG-CC-PVTZ
  Basis Set: (AUG-CC-PVTZ AUX)
    Blend: AUG-CC-PVTZ-JKFIT

    Orbital Energies [Eh]
    ---------------------

    Doubly Occupied:

       1A    -20.568653     2A    -20.568450     3A    -11.329490
       4A    -11.286236     5A    -11.285162     6A     -1.436065
       7A     -1.330692     8A     -1.035937     9A     -0.865843
      10A     -0.853322    11A     -0.716306    12A     -0.706425
      13A     -0.640976    14A     -0.595309    15A     -0.574334
      16A     -0.572947    17A     -0.517199    18A     -0.507496
      19A     -0.449177    20A     -0.422159

  @DF-RHF Final Energy:  -266.89437620413503

   => Energetics <=

    Nuclear Repulsion Energy =            194.3582318501367467
    One-Electron Energy =                -749.9808601615139878
    Two-Electron Energy =                 288.7282521072421559
    Total Energy =                       -266.8943762041350283
  Basis Set: (AUG-CC-PVTZ AUX)
    Blend: AUG-CC-PVTZ-RI
    Molecular point group: c1

    Geometry (in Angstrom), charge = 0, multiplicity = 1:

       Center              X                  Y                   Z               Mass
    ------------   -----------------  -----------------  -----------------  -----------------
         O           -0.346288363609     1.134356034829    -0.180513078742    15.994914619570
         O           -0.345745363609    -1.140895965171     0.178159921258    15.994914619570
         C            0.968093636391     0.725985034829     0.207740921258    12.000000000000
         C            0.968623536391    -0.712443265171    -0.203744378742    12.000000000000
         C           -1.180700363609    -0.003340965171    -0.000618078742    12.000000000000
         H            1.111631636391     0.826960034829     1.291858921258     1.007825032230
         H            1.684224636391     1.356360034829    -0.322751078742     1.007825032230
         H            1.112914636391    -0.832542965171    -1.293267078742     1.007825032230
         H            1.684842636391    -1.361603965171     0.321675921258     1.007825032230
         H           -1.805580363609     0.092325034829     0.895765921258     1.007825032230
         H           -1.806718363609    -0.099163965171    -0.896163078742     1.007825032230

  Basis Set: AUG-CC-PVTZ
    Blend: AUG-CC-PVTZ
  Basis Set: (AUG-CC-PVTZ AUX)
    Blend: AUG-CC-PVTZ-JKFIT
	 Reference Energy          =    -266.8943762041350283 [Eh]
	 Singles Energy            =      -0.0000000000000000 [Eh]
	 Same-Spin Energy          =      -0.2553195236679650 [Eh]
	 Opposite-Spin Energy      =      -0.8249471863458830 [Eh]
	 Correlation Energy        =      -1.0802667100138481 [Eh]
	 Total Energy              =    -267.9746429141488875 [Eh]

	 ================> DF-SCS-MP2 Energies <==================
	-----------------------------------------------------------
	 SCS Same-Spin Scale       =       0.3333333333333333 [-]
	 SCS Opposite-Spin Scale   =       1.2000000000000000 [-]
	 SCS Same-Spin Energy      =      -0.0851065078893216 [Eh]
	 SCS Opposite-Spin Energy  =      -0.9899366236150596 [Eh]
	 SCS Correlation Energy    =      -1.0750431315043814 [Eh]
	 SCS Total Energy          =    -267.9694193356394294 [Eh]
	-----------------------------------------------------------

  Dipole Moment: [D]
     X:     1.2011      Y:     0.0209      Z:     0.0080     Total:     1.2013

*** Psi4 exiting successfully. Buy a developer a beer!
