                               Psi4 1.3.2 release

  ==> Input File <==

--------------------------------------------------------------------------
#psi4
#
memory 32 gb

molecule  {
0 1
  O       -0.3708850     1.1374830    -0.1792890
  O       -0.3703240    -1.1378310     0.1786440
  C        0.8518058     0.7577617     0.1810319
  C        0.9442940    -0.7286720    -0.2079020
  C       -1.2056960    -0.0002420     0.0002480
  H        1.0881780     0.8312400     1.2920210
  H        1.6593840     1.3596400    -0.3231520
  H        1.0894950    -0.8305950    -1.2917000
  H        1.6600270    -1.3586360     0.3238180
  H       -1.8301230     0.0948300     0.8968380
  H       -1.8312890    -0.0954850    -0.8954820
units angstrom
no_reorient  #important for SAPT in psi4, default
symmetry c1  #important for SAPT in psi4, default
}

set PROPERTIES_ORIGIN ["COM"]
properties('MP2/aug-cc-pvtz', properties = ['dipole'])
--------------------------------------------------------------------------

    Molecular point group: c1
  Charge       = 0
  Multiplicity = 1
  Basis Set: AUG-CC-PVTZ
    Blend: AUG-CC-PVTZ
  Basis Set: (AUG-CC-PVTZ AUX)
    Blend: AUG-CC-PVTZ-JKFIT

    Orbital Energies [Eh]
    ---------------------

    Doubly Occupied:

       1A    -20.577261     2A    -20.569049     3A    -11.335738
       4A    -11.286720     5A    -11.283332     6A     -1.459979
       7A     -1.350225     8A     -1.028034     9A     -0.874065
      10A     -0.850102    11A     -0.722406    12A     -0.715527
      13A     -0.649779    14A     -0.601344    15A     -0.588883
      16A     -0.572813    17A     -0.528531    18A     -0.490590
      19A     -0.435505    20A     -0.423131

  @DF-RHF Final Energy:  -266.88710335776381

   => Energetics <=

    Nuclear Repulsion Energy =            195.5462726597460801
    One-Electron Energy =                -752.1807231258371758
    Two-Electron Energy =                 289.7473471083272329
    Total Energy =                       -266.8871033577638059
  Basis Set: (AUG-CC-PVTZ AUX)
    Blend: AUG-CC-PVTZ-RI
    Molecular point group: c1

    Geometry (in Angstrom), charge = 0, multiplicity = 1:

       Center              X                  Y                   Z               Mass
    ------------   -----------------  -----------------  -----------------  -----------------
         O           -0.331435784352     1.132868969644    -0.174866595509    15.994914619570
         O           -0.330874784352    -1.142445030356     0.183066404491    15.994914619570
         C            0.891255015648     0.753147669644     0.185454304491    12.000000000000
         C            0.983743215648    -0.733286030356    -0.203479595509    12.000000000000
         C           -1.166246784352    -0.004856030356     0.004670404491    12.000000000000
         H            1.127627215648     0.826625969644     1.296443404491     1.007825032230
         H            1.698833215648     1.355025969644    -0.318729595509     1.007825032230
         H            1.128944215648    -0.835209030356    -1.287277595509     1.007825032230
         H            1.699476215648    -1.363250030356     0.328240404491     1.007825032230
         H           -1.790673784352     0.090215969644     0.901260404491     1.007825032230
         H           -1.791839784352    -0.100099030356    -0.891059595509     1.007825032230

  Basis Set: AUG-CC-PVTZ
    Blend: AUG-CC-PVTZ
  Basis Set: (AUG-CC-PVTZ AUX)
    Blend: AUG-CC-PVTZ-JKFIT
	 Reference Energy          =    -266.8871033577638059 [Eh]
	 Singles Energy            =      -0.0000000000000000 [Eh]
	 Same-Spin Energy          =      -0.2552503173335406 [Eh]
	 Opposite-Spin Energy      =      -0.8237448773047467 [Eh]
	 Correlation Energy        =      -1.0789951946382872 [Eh]
	 Total Energy              =    -267.9660985524021157 [Eh]

	 ================> DF-SCS-MP2 Energies <==================
	-----------------------------------------------------------
	 SCS Same-Spin Scale       =       0.3333333333333333 [-]
	 SCS Opposite-Spin Scale   =       1.2000000000000000 [-]
	 SCS Same-Spin Energy      =      -0.0850834391111802 [Eh]
	 SCS Opposite-Spin Energy  =      -0.9884938527656959 [Eh]
	 SCS Correlation Energy    =      -1.0735772918768762 [Eh]
	 SCS Total Energy          =    -267.9606806496406648 [Eh]
	-----------------------------------------------------------

  Dipole Moment: [D]
     X:     0.8388      Y:     0.0207      Z:    -0.1221     Total:     0.8479

*** Psi4 exiting successfully. Buy a developer a beer!
