                               Psi4 1.4a3.dev225

  ==> Input File <==

--------------------------------------------------------------------------
#psi4
#
memory 32 gb

molecule  {
0 1
  O       -0.3708180     1.1374600    -0.1796520
  O       -0.3702750    -1.1377920     0.1790210
  C        0.9435640     0.7290890     0.2086020
  C        0.9441010    -0.7285680    -0.2083840
  C       -1.1758970     0.0397577    -0.0060811
  H        1.0871020     0.8300640     1.2927200
  H        1.6596950     1.3594640    -0.3218900
  H        1.0883850    -0.8294390    -1.2924060
  H        1.6603130    -1.3585000     0.3225370
  H       -1.8301100     0.0954290     0.8966270
  H       -1.8312480    -0.0960600    -0.8953020
units angstrom
no_reorient  #important for SAPT in psi4, default
symmetry c1  #important for SAPT in psi4, default
}

set PROPERTIES_ORIGIN ["COM"]
properties('MP2/aug-cc-pvtz', properties = ['dipole'])
--------------------------------------------------------------------------

    Molecular point group: c1
  Charge       = 0
  Multiplicity = 1
  Basis Set: AUG-CC-PVTZ
    Blend: AUG-CC-PVTZ
  Basis Set: (AUG-CC-PVTZ AUX)
    Blend: AUG-CC-PVTZ-JKFIT

    Orbital Energies [Eh]
    ---------------------

    Doubly Occupied:

       1A    -20.574305     2A    -20.566564     3A    -11.329918
       4A    -11.289419     5A    -11.285217     6A     -1.445741
       7A     -1.337106     8A     -1.034583     9A     -0.862452
      10A     -0.857167    11A     -0.719114    12A     -0.709957
      13A     -0.642790    14A     -0.597517    15A     -0.580369
      16A     -0.566973    17A     -0.523835    18A     -0.506554
      19A     -0.450836    20A     -0.416304

  @DF-RHF Final Energy:  -266.89289324536236

   => Energetics <=

    Nuclear Repulsion Energy =            194.7507480340073300
    One-Electron Energy =                -750.6938408042327637
    Two-Electron Energy =                 289.0501995248631033
    Total Energy =                       -266.8928932453623588
  Basis Set: (AUG-CC-PVTZ AUX)
    Blend: AUG-CC-PVTZ-RI
    Molecular point group: c1

    Geometry (in Angstrom), charge = 0, multiplicity = 1:

       Center              X                  Y                   Z               Mass
    ------------   -----------------  -----------------  -----------------  -----------------
         O           -0.351043854092     1.130990248231    -0.178596496186    15.994914619570
         O           -0.350500854092    -1.144261751769     0.180076503814    15.994914619570
         C            0.963338145908     0.722619248231     0.209657503814    12.000000000000
         C            0.963875145908    -0.735037751769    -0.207328496186    12.000000000000
         C           -1.156122854092     0.033287948231    -0.005025596186    12.000000000000
         H            1.106876145908     0.823594248231     1.293775503814     1.007825032230
         H            1.679469145908     1.352994248231    -0.320834496186     1.007825032230
         H            1.108159145908    -0.835908751769    -1.291350496186     1.007825032230
         H            1.680087145908    -1.364969751769     0.323592503814     1.007825032230
         H           -1.810335854092     0.088959248231     0.897682503814     1.007825032230
         H           -1.811473854092    -0.102529751769    -0.894246496186     1.007825032230

  Basis Set: AUG-CC-PVTZ
    Blend: AUG-CC-PVTZ
  Basis Set: (AUG-CC-PVTZ AUX)
    Blend: AUG-CC-PVTZ-JKFIT
	 Reference Energy          =    -266.8928932453623588 [Eh]
	 Singles Energy            =      -0.0000000000000000 [Eh]
	 Same-Spin Energy          =      -0.2553232617779465 [Eh]
	 Opposite-Spin Energy      =      -0.8246068826871915 [Eh]
	 Correlation Energy        =      -1.0799301444651381 [Eh]
	 Total Energy              =    -267.9728233898275107 [Eh]

	 ================> DF-SCS-MP2 Energies <==================
	-----------------------------------------------------------
	 SCS Same-Spin Scale       =       0.3333333333333333 [-]
	 SCS Opposite-Spin Scale   =       1.2000000000000000 [-]
	 SCS Same-Spin Energy      =      -0.0851077539259822 [Eh]
	 SCS Opposite-Spin Energy  =      -0.9895282592246297 [Eh]
	 SCS Correlation Energy    =      -1.0746360131506119 [Eh]
	 SCS Total Energy          =    -267.9675292585129682 [Eh]
	-----------------------------------------------------------

  Dipole Moment: [D]
     X:     1.3403      Y:     0.1713      Z:    -0.0166     Total:     1.3513

*** Psi4 exiting successfully. Buy a developer a beer!
