                               Psi4 1.3.2 release

  ==> Input File <==

--------------------------------------------------------------------------
#psi4
#
memory 32 gb

molecule  {
0 1
  O       -0.3708850     1.1374830    -0.1792890
  O       -0.3703240    -1.1378310     0.1786440
  C        0.7598765     0.7863115     0.1539408
  C        0.9442940    -0.7286720    -0.2079020
  C       -1.2056960    -0.0002420     0.0002480
  H        1.0881780     0.8312400     1.2920210
  H        1.6593840     1.3596400    -0.3231520
  H        1.0894950    -0.8305950    -1.2917000
  H        1.6600270    -1.3586360     0.3238180
  H       -1.8301230     0.0948300     0.8968380
  H       -1.8312890    -0.0954850    -0.8954820
units angstrom
no_reorient  #important for SAPT in psi4, default
symmetry c1  #important for SAPT in psi4, default
}

set PROPERTIES_ORIGIN ["COM"]
properties('MP2/aug-cc-pvtz', properties = ['dipole'])
--------------------------------------------------------------------------

    Molecular point group: c1
  Charge       = 0
  Multiplicity = 1
  Basis Set: AUG-CC-PVTZ
    Blend: AUG-CC-PVTZ
  Basis Set: (AUG-CC-PVTZ AUX)
    Blend: AUG-CC-PVTZ-JKFIT

    Orbital Energies [Eh]
    ---------------------

    Doubly Occupied:

       1A    -20.587655     2A    -20.570675     3A    -11.343335
       4A    -11.291638     5A    -11.281329     6A     -1.500952
       7A     -1.366733     8A     -1.025928     9A     -0.888485
      10A     -0.843966    11A     -0.734104    12A     -0.729958
      13A     -0.664786    14A     -0.610359    15A     -0.601110
      16A     -0.573806    17A     -0.538881    18A     -0.470781
      19A     -0.429960    20A     -0.408193

  @DF-RHF Final Energy:  -266.85305407741026

   => Energetics <=

    Nuclear Repulsion Energy =            197.1029233093312314
    One-Electron Energy =                -754.9866870147387772
    Two-Electron Energy =                 291.0307096279972825
    Total Energy =                       -266.8530540774102633
  Basis Set: (AUG-CC-PVTZ AUX)
    Blend: AUG-CC-PVTZ-RI
    Molecular point group: c1

    Geometry (in Angstrom), charge = 0, multiplicity = 1:

       Center              X                  Y                   Z               Mass
    ------------   -----------------  -----------------  -----------------  -----------------
         O           -0.316535735911     1.128241572252    -0.170475626554    15.994914619570
         O           -0.315974735911    -1.147072427748     0.187457373446    15.994914619570
         C            0.814225764089     0.777070072252     0.162754173446    12.000000000000
         C            0.998643264089    -0.737913427748    -0.199088626554    12.000000000000
         C           -1.151346735911    -0.009483427748     0.009061373446    12.000000000000
         H            1.142527264089     0.821998572252     1.300834373446     1.007825032230
         H            1.713733264089     1.350398572252    -0.314338626554     1.007825032230
         H            1.143844264089    -0.839836427748    -1.282886626554     1.007825032230
         H            1.714376264089    -1.367877427748     0.332631373446     1.007825032230
         H           -1.775773735911     0.085588572252     0.905651373446     1.007825032230
         H           -1.776939735911    -0.104726427748    -0.886668626554     1.007825032230

  Basis Set: AUG-CC-PVTZ
    Blend: AUG-CC-PVTZ
  Basis Set: (AUG-CC-PVTZ AUX)
    Blend: AUG-CC-PVTZ-JKFIT
	 Reference Energy          =    -266.8530540774102633 [Eh]
	 Singles Energy            =      -0.0000000000000000 [Eh]
	 Same-Spin Energy          =      -0.2560638468614467 [Eh]
	 Opposite-Spin Energy      =      -0.8239827528143113 [Eh]
	 Correlation Energy        =      -1.0800465996757580 [Eh]
	 Total Energy              =    -267.9331006770860313 [Eh]

	 ================> DF-SCS-MP2 Energies <==================
	-----------------------------------------------------------
	 SCS Same-Spin Scale       =       0.3333333333333333 [-]
	 SCS Opposite-Spin Scale   =       1.2000000000000000 [-]
	 SCS Same-Spin Energy      =      -0.0853546156204822 [Eh]
	 SCS Opposite-Spin Energy  =      -0.9887793033771736 [Eh]
	 SCS Correlation Energy    =      -1.0741339189976558 [Eh]
	 SCS Total Energy          =    -267.9271879964078948 [Eh]
	-----------------------------------------------------------

  Dipole Moment: [D]
     X:     0.3870      Y:     0.0336      Z:    -0.2923     Total:     0.4862

*** Psi4 exiting successfully. Buy a developer a beer!
