                               Psi4 1.3.2 release

  ==> Input File <==

--------------------------------------------------------------------------
#psi4
#
memory 32 gb

molecule  {
0 1
  O       -0.3708850     1.1374830    -0.1792890
  O       -0.3703240    -1.1378310     0.1786440
  C        0.9437350     0.7292120     0.2081230
  C        0.9442940    -0.7286720    -0.2079020
  C       -1.2056960    -0.0002420     0.0002480
  H        1.0881780     0.8312400     1.2920210
  H        1.6593840     1.3596400    -0.3231520
  H        1.0894950    -0.8305950    -1.2917000
  H        1.6600270    -1.3586360     0.3238180
  H       -1.9209469     0.0873977     0.8270229
  H       -1.8312890    -0.0954850    -0.8954820
units angstrom
no_reorient  #important for SAPT in psi4, default
symmetry c1  #important for SAPT in psi4, default
}

set PROPERTIES_ORIGIN ["COM"]
properties('MP2/aug-cc-pvtz', properties = ['dipole'])
--------------------------------------------------------------------------

    Molecular point group: c1
  Charge       = 0
  Multiplicity = 1
  Basis Set: AUG-CC-PVTZ
    Blend: AUG-CC-PVTZ
  Basis Set: (AUG-CC-PVTZ AUX)
    Blend: AUG-CC-PVTZ-JKFIT

    Orbital Energies [Eh]
    ---------------------

    Doubly Occupied:

       1A    -20.569968     2A    -20.569741     3A    -11.329804
       4A    -11.286490     5A    -11.285821     6A     -1.435708
       7A     -1.331698     8A     -1.033153     9A     -0.866882
      10A     -0.855047    11A     -0.713985    12A     -0.708024
      13A     -0.638092    14A     -0.596324    15A     -0.580341
      16A     -0.573389    17A     -0.517686    18A     -0.505646
      19A     -0.448402    20A     -0.420041

  @DF-RHF Final Energy:  -266.89348218280759

   => Energetics <=

    Nuclear Repulsion Energy =            194.0253184720653508
    One-Electron Energy =                -749.3051155340883724
    Two-Electron Energy =                 288.3863148792154334
    Total Energy =                       -266.8934821828075883
  Basis Set: (AUG-CC-PVTZ AUX)
    Blend: AUG-CC-PVTZ-RI
    Molecular point group: c1

    Geometry (in Angstrom), charge = 0, multiplicity = 1:

       Center              X                  Y                   Z               Mass
    ------------   -----------------  -----------------  -----------------  -----------------
         O           -0.345099477017     1.137597522947    -0.178307207007    15.994914619570
         O           -0.344538477017    -1.137716477053     0.179625792993    15.994914619570
         C            0.969520522983     0.729326522947     0.209104792993    12.000000000000
         C            0.970079522983    -0.728557477053    -0.206920207007    12.000000000000
         C           -1.179910477017    -0.000127477053     0.001229792993    12.000000000000
         H            1.113963522983     0.831354522947     1.293002792993     1.007825032230
         H            1.685169522983     1.359754522947    -0.322170207007     1.007825032230
         H            1.115280522983    -0.830480477053    -1.290718207007     1.007825032230
         H            1.685812522983    -1.358521477053     0.324799792993     1.007825032230
         H           -1.895161377017     0.087512222947     0.828004692993     1.007825032230
         H           -1.805503477017    -0.095370477053    -0.894500207007     1.007825032230

  Basis Set: AUG-CC-PVTZ
    Blend: AUG-CC-PVTZ
  Basis Set: (AUG-CC-PVTZ AUX)
    Blend: AUG-CC-PVTZ-JKFIT
	 Reference Energy          =    -266.8934821828075883 [Eh]
	 Singles Energy            =      -0.0000000000000000 [Eh]
	 Same-Spin Energy          =      -0.2551340909735981 [Eh]
	 Opposite-Spin Energy      =      -0.8247026054752350 [Eh]
	 Correlation Energy        =      -1.0798366964488331 [Eh]
	 Total Energy              =    -267.9733188792563965 [Eh]

	 ================> DF-SCS-MP2 Energies <==================
	-----------------------------------------------------------
	 SCS Same-Spin Scale       =       0.3333333333333333 [-]
	 SCS Opposite-Spin Scale   =       1.2000000000000000 [-]
	 SCS Same-Spin Energy      =      -0.0850446969911993 [Eh]
	 SCS Opposite-Spin Energy  =      -0.9896431265702820 [Eh]
	 SCS Correlation Energy    =      -1.0746878235614814 [Eh]
	 SCS Total Energy          =    -267.9681700063690641 [Eh]
	-----------------------------------------------------------

  Dipole Moment: [D]
     X:     1.1869      Y:     0.0001      Z:     0.0052     Total:     1.1869

*** Psi4 exiting successfully. Buy a developer a beer!
