                               Psi4 1.4a3.dev225

  ==> Input File <==

--------------------------------------------------------------------------
#psi4
#
memory 32 gb

molecule  {
0 1
  O       -0.3708180     1.1374600    -0.1796520
  O       -0.3702750    -1.1377920     0.1790210
  C        0.9435640     0.7290890     0.2086020
  C        0.9440833    -0.6804963    -0.1946323
  C       -1.2052300    -0.0002370     0.0002430
  H        1.0871020     0.8300640     1.2927200
  H        1.6596950     1.3594640    -0.3218900
  H        1.0883850    -0.8294390    -1.2924060
  H        1.6603130    -1.3585000     0.3225370
  H       -1.8301100     0.0954290     0.8966270
  H       -1.8312480    -0.0960600    -0.8953020
units angstrom
no_reorient  #important for SAPT in psi4, default
symmetry c1  #important for SAPT in psi4, default
}

set PROPERTIES_ORIGIN ["COM"]
properties('MP2/aug-cc-pvtz', properties = ['dipole'])
--------------------------------------------------------------------------

    Molecular point group: c1
  Charge       = 0
  Multiplicity = 1
  Basis Set: AUG-CC-PVTZ
    Blend: AUG-CC-PVTZ
  Basis Set: (AUG-CC-PVTZ AUX)
    Blend: AUG-CC-PVTZ-JKFIT

    Orbital Energies [Eh]
    ---------------------

    Doubly Occupied:

       1A    -20.569020     2A    -20.568533     3A    -11.329145
       4A    -11.287041     5A    -11.284601     6A     -1.436813
       7A     -1.329911     8A     -1.041036     9A     -0.867647
      10A     -0.850877    11A     -0.716792    12A     -0.708139
      13A     -0.639755    14A     -0.595376    15A     -0.573680
      16A     -0.569604    17A     -0.517780    18A     -0.510930
      19A     -0.449942    20A     -0.421675

  @DF-RHF Final Energy:  -266.89166120692903

   => Energetics <=

    Nuclear Repulsion Energy =            194.6656467539814344
    One-Electron Energy =                -750.5780196034000937
    Two-Electron Energy =                 289.0207116424896867
    Total Energy =                       -266.8916612069290295
  Basis Set: (AUG-CC-PVTZ AUX)
    Blend: AUG-CC-PVTZ-RI
    Molecular point group: c1

    Geometry (in Angstrom), charge = 0, multiplicity = 1:

       Center              X                  Y                   Z               Mass
    ------------   -----------------  -----------------  -----------------  -----------------
         O           -0.346286645544     1.129681115111    -0.181850414061    15.994914619570
         O           -0.345743645544    -1.145570884889     0.176822585939    15.994914619570
         C            0.968095354456     0.721310115111     0.206403585939    12.000000000000
         C            0.968614654456    -0.688275184889    -0.196830714061    12.000000000000
         C           -1.180698645544    -0.008015884889    -0.001955414061    12.000000000000
         H            1.111633354456     0.822285115111     1.290521585939     1.007825032230
         H            1.684226354456     1.351685115111    -0.324088414061     1.007825032230
         H            1.112916354456    -0.837217884889    -1.294604414061     1.007825032230
         H            1.684844354456    -1.366278884889     0.320338585939     1.007825032230
         H           -1.805578645544     0.087650115111     0.894428585939     1.007825032230
         H           -1.806716645544    -0.103838884889    -0.897500414061     1.007825032230

  Basis Set: AUG-CC-PVTZ
    Blend: AUG-CC-PVTZ
  Basis Set: (AUG-CC-PVTZ AUX)
    Blend: AUG-CC-PVTZ-JKFIT
	 Reference Energy          =    -266.8916612069290295 [Eh]
	 Singles Energy            =      -0.0000000000000000 [Eh]
	 Same-Spin Energy          =      -0.2556184716074144 [Eh]
	 Opposite-Spin Energy      =      -0.8253646430801117 [Eh]
	 Correlation Energy        =      -1.0809831146875259 [Eh]
	 Total Energy              =    -267.9726443216165421 [Eh]

	 ================> DF-SCS-MP2 Energies <==================
	-----------------------------------------------------------
	 SCS Same-Spin Scale       =       0.3333333333333333 [-]
	 SCS Opposite-Spin Scale   =       1.2000000000000000 [-]
	 SCS Same-Spin Energy      =      -0.0852061572024714 [Eh]
	 SCS Opposite-Spin Energy  =      -0.9904375716961340 [Eh]
	 SCS Correlation Energy    =      -1.0756437288986054 [Eh]
	 SCS Total Energy          =    -267.9673049358276558 [Eh]
	-----------------------------------------------------------

  Dipole Moment: [D]
     X:     1.2134      Y:     0.0513      Z:     0.0179     Total:     1.2146

*** Psi4 exiting successfully. Buy a developer a beer!
