                               Psi4 1.4a3.dev225

  ==> Input File <==

--------------------------------------------------------------------------
#psi4
#
memory 32 gb

molecule  {
0 1
  O       -0.3708180     1.1374600    -0.1796520
  O       -0.3702750    -1.1377920     0.1790210
  C        0.9435640     0.7290890     0.2086020
  C        0.9441010    -0.7285680    -0.2083840
  C       -1.2169632    -0.0162349     0.0027726
  H        1.0871020     0.8300640     1.2927200
  H        1.6596950     1.3594640    -0.3218900
  H        1.0883850    -0.8294390    -1.2924060
  H        1.6603130    -1.3585000     0.3225370
  H       -1.8301100     0.0954290     0.8966270
  H       -1.8312480    -0.0960600    -0.8953020
units angstrom
no_reorient  #important for SAPT in psi4, default
symmetry c1  #important for SAPT in psi4, default
}

set PROPERTIES_ORIGIN ["COM"]
properties('MP2/aug-cc-pvtz', properties = ['dipole'])
--------------------------------------------------------------------------

    Molecular point group: c1
  Charge       = 0
  Multiplicity = 1
  Basis Set: AUG-CC-PVTZ
    Blend: AUG-CC-PVTZ
  Basis Set: (AUG-CC-PVTZ AUX)
    Blend: AUG-CC-PVTZ-JKFIT

    Orbital Energies [Eh]
    ---------------------

    Doubly Occupied:

       1A    -20.569133     2A    -20.566065     3A    -11.329933
       4A    -11.285903     5A    -11.284162     6A     -1.432700
       7A     -1.328310     8A     -1.032394     9A     -0.866279
      10A     -0.853364    11A     -0.715329    12A     -0.703540
      13A     -0.642408    14A     -0.594679    15A     -0.578103
      16A     -0.572631    17A     -0.514385    18A     -0.503341
      19A     -0.447052    20A     -0.424470

  @DF-RHF Final Energy:  -266.89462873058864

   => Energetics <=

    Nuclear Repulsion Energy =            193.9228872242066473
    One-Electron Energy =                -749.1466669576051345
    Two-Electron Energy =                 288.3291510028098514
    Total Energy =                       -266.8946287305886358
  Basis Set: (AUG-CC-PVTZ AUX)
    Blend: AUG-CC-PVTZ-RI
    Molecular point group: c1

    Geometry (in Angstrom), charge = 0, multiplicity = 1:

       Center              X                  Y                   Z               Mass
    ------------   -----------------  -----------------  -----------------  -----------------
         O           -0.344387778507     1.140065618677    -0.180031518087    15.994914619570
         O           -0.343844778507    -1.135186381323     0.178641481913    15.994914619570
         C            0.969994221493     0.731694618677     0.208222481913    12.000000000000
         C            0.970531221493    -0.725962381323    -0.208763518087    12.000000000000
         C           -1.190532978507    -0.013629281323     0.002393081913    12.000000000000
         H            1.113532221493     0.832669618677     1.292340481913     1.007825032230
         H            1.686125221493     1.362069618677    -0.322269518087     1.007825032230
         H            1.114815221493    -0.826833381323    -1.292785518087     1.007825032230
         H            1.686743221493    -1.355894381323     0.322157481913     1.007825032230
         H           -1.803679778507     0.098034618677     0.896247481913     1.007825032230
         H           -1.804817778507    -0.093454381323    -0.895681518087     1.007825032230

  Basis Set: AUG-CC-PVTZ
    Blend: AUG-CC-PVTZ
  Basis Set: (AUG-CC-PVTZ AUX)
    Blend: AUG-CC-PVTZ-JKFIT
	 Reference Energy          =    -266.8946287305886358 [Eh]
	 Singles Energy            =      -0.0000000000000000 [Eh]
	 Same-Spin Energy          =      -0.2551641218854632 [Eh]
	 Opposite-Spin Energy      =      -0.8249052769295055 [Eh]
	 Correlation Energy        =      -1.0800693988149688 [Eh]
	 Total Energy              =    -267.9746981294035777 [Eh]

	 ================> DF-SCS-MP2 Energies <==================
	-----------------------------------------------------------
	 SCS Same-Spin Scale       =       0.3333333333333333 [-]
	 SCS Opposite-Spin Scale   =       1.2000000000000000 [-]
	 SCS Same-Spin Energy      =      -0.0850547072951544 [Eh]
	 SCS Opposite-Spin Energy  =      -0.9898863323154066 [Eh]
	 SCS Correlation Energy    =      -1.0749410396105610 [Eh]
	 SCS Total Energy          =    -267.9695697701992003 [Eh]
	-----------------------------------------------------------

  Dipole Moment: [D]
     X:     1.1381      Y:    -0.0649      Z:     0.0081     Total:     1.1400

*** Psi4 exiting successfully. Buy a developer a beer!
