                               Psi4 1.4a3.dev225

  ==> Input File <==

--------------------------------------------------------------------------
#psi4
#
memory 32 gb

molecule  {
0 1
  O       -0.3708180     1.1374600    -0.1796520
  O       -0.3702750    -1.1377920     0.1790210
  C        0.9895191     0.7148110     0.2221766
  C        0.9441010    -0.7285680    -0.2083840
  C       -1.2052300    -0.0002370     0.0002430
  H        1.0871020     0.8300640     1.2927200
  H        1.6596950     1.3594640    -0.3218900
  H        1.0883850    -0.8294390    -1.2924060
  H        1.6603130    -1.3585000     0.3225370
  H       -1.8301100     0.0954290     0.8966270
  H       -1.8312480    -0.0960600    -0.8953020
units angstrom
no_reorient  #important for SAPT in psi4, default
symmetry c1  #important for SAPT in psi4, default
}

set PROPERTIES_ORIGIN ["COM"]
properties('MP2/aug-cc-pvtz', properties = ['dipole'])
--------------------------------------------------------------------------

    Molecular point group: c1
  Charge       = 0
  Multiplicity = 1
  Basis Set: AUG-CC-PVTZ
    Blend: AUG-CC-PVTZ
  Basis Set: (AUG-CC-PVTZ AUX)
    Blend: AUG-CC-PVTZ-JKFIT

    Orbital Energies [Eh]
    ---------------------

    Doubly Occupied:

       1A    -20.568322     2A    -20.564090     3A    -11.327111
       4A    -11.287190     5A    -11.286378     6A     -1.427572
       7A     -1.321440     8A     -1.035801     9A     -0.864217
      10A     -0.854163    11A     -0.714402    12A     -0.701030
      13A     -0.640532    14A     -0.594620    15A     -0.577782
      16A     -0.567244    17A     -0.511820    18A     -0.506785
      19A     -0.453072    20A     -0.420786

  @DF-RHF Final Energy:  -266.89208691993002

   => Energetics <=

    Nuclear Repulsion Energy =            193.4898240113132601
    One-Electron Energy =                -748.3151100566882405
    Two-Electron Energy =                 287.9331991254449008
    Total Energy =                       -266.8920869199300228
  Basis Set: (AUG-CC-PVTZ AUX)
    Blend: AUG-CC-PVTZ-RI
    Molecular point group: c1

    Geometry (in Angstrom), charge = 0, multiplicity = 1:

       Center              X                  Y                   Z               Mass
    ------------   -----------------  -----------------  -----------------  -----------------
         O           -0.353737990730     1.139786854525    -0.181821709408    15.994914619570
         O           -0.353194990730    -1.135465145475     0.176851290592    15.994914619570
         C            1.006599109270     0.717137854525     0.220006890592    12.000000000000
         C            0.961181009270    -0.726241145475    -0.210553709408    12.000000000000
         C           -1.188149990730     0.002089854525    -0.001926709408    12.000000000000
         H            1.104182009270     0.832390854525     1.290550290592     1.007825032230
         H            1.676775009270     1.361790854525    -0.324059709408     1.007825032230
         H            1.105465009270    -0.827112145475    -1.294575709408     1.007825032230
         H            1.677393009270    -1.356173145475     0.320367290592     1.007825032230
         H           -1.813029990730     0.097755854525     0.894457290592     1.007825032230
         H           -1.814167990730    -0.093733145475    -0.897471709408     1.007825032230

  Basis Set: AUG-CC-PVTZ
    Blend: AUG-CC-PVTZ
  Basis Set: (AUG-CC-PVTZ AUX)
    Blend: AUG-CC-PVTZ-JKFIT
	 Reference Energy          =    -266.8920869199300228 [Eh]
	 Singles Energy            =      -0.0000000000000000 [Eh]
	 Same-Spin Energy          =      -0.2553773114828620 [Eh]
	 Opposite-Spin Energy      =      -0.8256816605961972 [Eh]
	 Correlation Energy        =      -1.0810589720790591 [Eh]
	 Total Energy              =    -267.9731458920090859 [Eh]

	 ================> DF-SCS-MP2 Energies <==================
	-----------------------------------------------------------
	 SCS Same-Spin Scale       =       0.3333333333333333 [-]
	 SCS Opposite-Spin Scale   =       1.2000000000000000 [-]
	 SCS Same-Spin Energy      =      -0.0851257704942873 [Eh]
	 SCS Opposite-Spin Energy  =      -0.9908179927154366 [Eh]
	 SCS Correlation Energy    =      -1.0759437632097240 [Eh]
	 SCS Total Energy          =    -267.9680306831397729 [Eh]
	-----------------------------------------------------------

  Dipole Moment: [D]
     X:     1.3393      Y:    -0.0114      Z:     0.0499     Total:     1.3402

*** Psi4 exiting successfully. Buy a developer a beer!
