                               Psi4 1.3.2 release

  ==> Input File <==

--------------------------------------------------------------------------
#psi4
#
memory 32 gb

molecule  {
0 1
  O       -0.4115909     1.1655746    -0.1836809
  O       -0.3703240    -1.1378310     0.1786440
  C        0.9437350     0.7292120     0.2081230
  C        0.9442940    -0.7286720    -0.2079020
  C       -1.2056960    -0.0002420     0.0002480
  H        1.0881780     0.8312400     1.2920210
  H        1.6593840     1.3596400    -0.3231520
  H        1.0894950    -0.8305950    -1.2917000
  H        1.6600270    -1.3586360     0.3238180
  H       -1.8301230     0.0948300     0.8968380
  H       -1.8312890    -0.0954850    -0.8954820
units angstrom
no_reorient  #important for SAPT in psi4, default
symmetry c1  #important for SAPT in psi4, default
}

set PROPERTIES_ORIGIN ["COM"]
properties('MP2/aug-cc-pvtz', properties = ['dipole'])
--------------------------------------------------------------------------

    Molecular point group: c1
  Charge       = 0
  Multiplicity = 1
  Basis Set: AUG-CC-PVTZ
    Blend: AUG-CC-PVTZ
  Basis Set: (AUG-CC-PVTZ AUX)
    Blend: AUG-CC-PVTZ-JKFIT

    Orbital Energies [Eh]
    ---------------------

    Doubly Occupied:

       1A    -20.569885     2A    -20.569655     3A    -11.327476
       4A    -11.290504     5A    -11.288442     6A     -1.428336
       7A     -1.326414     8A     -1.032575     9A     -0.865257
      10A     -0.853199    11A     -0.713294    12A     -0.701426
      13A     -0.640781    14A     -0.593313    15A     -0.576371
      16A     -0.564740    17A     -0.518184    18A     -0.508350
      19A     -0.452296    20A     -0.421247

  @DF-RHF Final Energy:  -266.89139236628984

   => Energetics <=

    Nuclear Repulsion Energy =            193.0867404712753341
    One-Electron Energy =                -747.4727761243810846
    Two-Electron Energy =                 287.4946432868159150
    Total Energy =                       -266.8913923662898355
  Basis Set: (AUG-CC-PVTZ AUX)
    Blend: AUG-CC-PVTZ-RI
    Molecular point group: c1

    Geometry (in Angstrom), charge = 0, multiplicity = 1:

       Center              X                  Y                   Z               Mass
    ------------   -----------------  -----------------  -----------------  -----------------
         O           -0.378247609116     1.159519038227    -0.182700637866    15.994914619570
         O           -0.336980709116    -1.143886561773     0.179624262134    15.994914619570
         C            0.977078290884     0.723156438227     0.209103262134    12.000000000000
         C            0.977637290884    -0.734727561773    -0.206921737866    12.000000000000
         C           -1.172352709116    -0.006297561773     0.001228262134    12.000000000000
         H            1.121521290884     0.825184438227     1.293001262134     1.007825032230
         H            1.692727290884     1.353584438227    -0.322171737866     1.007825032230
         H            1.122838290884    -0.836650561773    -1.290719737866     1.007825032230
         H            1.693370290884    -1.364691561773     0.324798262134     1.007825032230
         H           -1.796779709116     0.088774438227     0.897818262134     1.007825032230
         H           -1.797945709116    -0.101540561773    -0.894501737866     1.007825032230

  Basis Set: AUG-CC-PVTZ
    Blend: AUG-CC-PVTZ
  Basis Set: (AUG-CC-PVTZ AUX)
    Blend: AUG-CC-PVTZ-JKFIT
	 Reference Energy          =    -266.8913923662898355 [Eh]
	 Singles Energy            =      -0.0000000000000000 [Eh]
	 Same-Spin Energy          =      -0.2554547420099759 [Eh]
	 Opposite-Spin Energy      =      -0.8261621118782507 [Eh]
	 Correlation Energy        =      -1.0816168538882267 [Eh]
	 Total Energy              =    -267.9730092201780849 [Eh]

	 ================> DF-SCS-MP2 Energies <==================
	-----------------------------------------------------------
	 SCS Same-Spin Scale       =       0.3333333333333333 [-]
	 SCS Opposite-Spin Scale   =       1.2000000000000000 [-]
	 SCS Same-Spin Energy      =      -0.0851515806699920 [Eh]
	 SCS Opposite-Spin Energy  =      -0.9913945342539008 [Eh]
	 SCS Correlation Energy    =      -1.0765461149238926 [Eh]
	 SCS Total Energy          =    -267.9679384812137073 [Eh]
	-----------------------------------------------------------

  Dipole Moment: [D]
     X:     1.3611      Y:    -0.0734      Z:     0.0318     Total:     1.3634

*** Psi4 exiting successfully. Buy a developer a beer!
