                               Psi4 1.3.2 release

  ==> Input File <==

--------------------------------------------------------------------------
#psi4
#
memory 32 gb

molecule  {
0 1
  O       -0.3708850     1.1374830    -0.1792890
  O       -0.3703240    -1.1378310     0.1786440
  C        0.9437350     0.7292120     0.2081230
  C        0.9442940    -0.7286720    -0.2079020
  C       -1.2056960    -0.0002420     0.0002480
  H        1.0881780     0.8312400     1.2920210
  H        1.6593840     1.3596400    -0.3231520
  H        1.0894950    -0.8305950    -1.2917000
  H        1.6600270    -1.3586360     0.3238180
  H       -1.8301230     0.0948300     0.8968380
  H       -1.8312890    -0.0954850    -0.8954820
units angstrom
no_reorient  #important for SAPT in psi4, default
symmetry c1  #important for SAPT in psi4, default
}

set PROPERTIES_ORIGIN ["COM"]
properties('MP2/aug-cc-pvtz', properties = ['dipole'])
--------------------------------------------------------------------------

    Molecular point group: c1
  Charge       = 0
  Multiplicity = 1
  Basis Set: AUG-CC-PVTZ
    Blend: AUG-CC-PVTZ
  Basis Set: (AUG-CC-PVTZ AUX)
    Blend: AUG-CC-PVTZ-JKFIT

    Orbital Energies [Eh]
    ---------------------

    Doubly Occupied:

       1A    -20.568412     2A    -20.568373     3A    -11.329763
       4A    -11.285965     5A    -11.285303     6A     -1.435480
       7A     -1.331095     8A     -1.032870     9A     -0.864744
      10A     -0.854812    11A     -0.716036    12A     -0.705201
      13A     -0.641898    14A     -0.595611    15A     -0.575415
      16A     -0.574400    17A     -0.516910    18A     -0.504883
      19A     -0.448072    20A     -0.422495

  @DF-RHF Final Energy:  -266.89507915995938

   => Energetics <=

    Nuclear Repulsion Energy =            194.1405978194933653
    One-Electron Energy =                -749.5558769593677653
    Two-Electron Energy =                 288.5201999799150485
    Total Energy =                       -266.8950791599593799
  Basis Set: (AUG-CC-PVTZ AUX)
    Blend: AUG-CC-PVTZ-RI
    Molecular point group: c1

    Geometry (in Angstrom), charge = 0, multiplicity = 1:

       Center              X                  Y                   Z               Mass
    ------------   -----------------  -----------------  -----------------  -----------------
         O           -0.346335816586     1.137496350827    -0.179257564464    15.994914619570
         O           -0.345774816586    -1.137817649173     0.178675435536    15.994914619570
         C            0.968284183414     0.729225350827     0.208154435536    12.000000000000
         C            0.968843183414    -0.728658649173    -0.207870564464    12.000000000000
         C           -1.181146816586    -0.000228649173     0.000279435536    12.000000000000
         H            1.112727183414     0.831253350827     1.292052435536     1.007825032230
         H            1.683933183414     1.359653350827    -0.323120564464     1.007825032230
         H            1.114044183414    -0.830581649173    -1.291668564464     1.007825032230
         H            1.684576183414    -1.358622649173     0.323849435536     1.007825032230
         H           -1.805573816586     0.094843350827     0.896869435536     1.007825032230
         H           -1.806739816586    -0.095471649173    -0.895450564464     1.007825032230

  Basis Set: AUG-CC-PVTZ
    Blend: AUG-CC-PVTZ
  Basis Set: (AUG-CC-PVTZ AUX)
    Blend: AUG-CC-PVTZ-JKFIT
	 Reference Energy          =    -266.8950791599593799 [Eh]
	 Singles Energy            =      -0.0000000000000000 [Eh]
	 Same-Spin Energy          =      -0.2551636251241421 [Eh]
	 Opposite-Spin Energy      =      -0.8247512412586823 [Eh]
	 Correlation Energy        =      -1.0799148663828244 [Eh]
	 Total Energy              =    -267.9749940263421877 [Eh]

	 ================> DF-SCS-MP2 Energies <==================
	-----------------------------------------------------------
	 SCS Same-Spin Scale       =       0.3333333333333333 [-]
	 SCS Opposite-Spin Scale   =       1.2000000000000000 [-]
	 SCS Same-Spin Energy      =      -0.0850545417080474 [Eh]
	 SCS Opposite-Spin Energy  =      -0.9897014895104187 [Eh]
	 SCS Correlation Energy    =      -1.0747560312184661 [Eh]
	 SCS Total Energy          =    -267.9698351911778218 [Eh]
	-----------------------------------------------------------

  Dipole Moment: [D]
     X:     1.1905      Y:     0.0013      Z:     0.0015     Total:     1.1905

*** Psi4 exiting successfully. Buy a developer a beer!
