                               Psi4 1.3.2 release

  ==> Input File <==

--------------------------------------------------------------------------
#psi4
#
memory 32 gb

molecule  {
0 1
  O       -0.4958544     1.2174643    -0.1917872
  O       -0.3703240    -1.1378310     0.1786440
  C        0.9437350     0.7292120     0.2081230
  C        0.9442940    -0.7286720    -0.2079020
  C       -1.2056960    -0.0002420     0.0002480
  H        1.0881780     0.8312400     1.2920210
  H        1.6593840     1.3596400    -0.3231520
  H        1.0894950    -0.8305950    -1.2917000
  H        1.6600270    -1.3586360     0.3238180
  H       -1.8301230     0.0948300     0.8968380
  H       -1.8312890    -0.0954850    -0.8954820
units angstrom
no_reorient  #important for SAPT in psi4, default
symmetry c1  #important for SAPT in psi4, default
}

set PROPERTIES_ORIGIN ["COM"]
properties('MP2/aug-cc-pvtz', properties = ['dipole'])
--------------------------------------------------------------------------

    Molecular point group: c1
  Charge       = 0
  Multiplicity = 1
  Basis Set: AUG-CC-PVTZ
    Blend: AUG-CC-PVTZ
  Basis Set: (AUG-CC-PVTZ AUX)
    Blend: AUG-CC-PVTZ-JKFIT

    Orbital Energies [Eh]
    ---------------------

    Doubly Occupied:

       1A    -20.572080     2A    -20.571820     3A    -11.323553
       4A    -11.300249     5A    -11.293941     6A     -1.418346
       7A     -1.317146     8A     -1.033028     9A     -0.869797
      10A     -0.847007    11A     -0.709479    12A     -0.695459
      13A     -0.640101    14A     -0.591316    15A     -0.578574
      16A     -0.547188    17A     -0.518783    18A     -0.510386
      19A     -0.459425    20A     -0.418032

  @DF-RHF Final Energy:  -266.87597759746080

   => Energetics <=

    Nuclear Repulsion Energy =            191.1281418889981296
    One-Electron Energy =                -743.5768190560678477
    Two-Electron Energy =                 285.5726995696089148
    Total Energy =                       -266.8759775974608033
  Basis Set: (AUG-CC-PVTZ AUX)
    Blend: AUG-CC-PVTZ-RI
    Molecular point group: c1

    Geometry (in Angstrom), charge = 0, multiplicity = 1:

       Center              X                  Y                   Z               Mass
    ------------   -----------------  -----------------  -----------------  -----------------
         O           -0.444306812571     1.200198481278    -0.189055651852    15.994914619570
         O           -0.318776412571    -1.155096818722     0.181375548148    15.994914619570
         C            0.995282587429     0.711946181278     0.210854548148    12.000000000000
         C            0.995841587429    -0.745937818722    -0.205170451852    12.000000000000
         C           -1.154148412571    -0.017507818722     0.002979548148    12.000000000000
         H            1.139725587429     0.813974181278     1.294752548148     1.007825032230
         H            1.710931587429     1.342374181278    -0.320420451852     1.007825032230
         H            1.141042587429    -0.847860818722    -1.288968451852     1.007825032230
         H            1.711574587429    -1.375901818722     0.326549548148     1.007825032230
         H           -1.778575412571     0.077564181278     0.899569548148     1.007825032230
         H           -1.779741412571    -0.112750818722    -0.892750451852     1.007825032230

  Basis Set: AUG-CC-PVTZ
    Blend: AUG-CC-PVTZ
  Basis Set: (AUG-CC-PVTZ AUX)
    Blend: AUG-CC-PVTZ-JKFIT
	 Reference Energy          =    -266.8759775974608033 [Eh]
	 Singles Energy            =      -0.0000000000000000 [Eh]
	 Same-Spin Energy          =      -0.2563170212586893 [Eh]
	 Opposite-Spin Energy      =      -0.8295135354468137 [Eh]
	 Correlation Energy        =      -1.0858305567055031 [Eh]
	 Total Energy              =    -267.9618081541663059 [Eh]

	 ================> DF-SCS-MP2 Energies <==================
	-----------------------------------------------------------
	 SCS Same-Spin Scale       =       0.3333333333333333 [-]
	 SCS Opposite-Spin Scale   =       1.2000000000000000 [-]
	 SCS Same-Spin Energy      =      -0.0854390070862298 [Eh]
	 SCS Opposite-Spin Energy  =      -0.9954162425361764 [Eh]
	 SCS Correlation Energy    =      -1.0808552496224062 [Eh]
	 SCS Total Energy          =    -267.9568328470832057 [Eh]
	-----------------------------------------------------------

  Dipole Moment: [D]
     X:     1.6784      Y:    -0.2073      Z:     0.0806     Total:     1.6931

*** Psi4 exiting successfully. Buy a developer a beer!
