                               Psi4 1.3.2 release

  ==> Input File <==

--------------------------------------------------------------------------
#psi4
#
memory 32 gb

molecule  {
0 1
  O       -0.3509104     1.1229152    -0.1770107
  O       -0.3703240    -1.1378310     0.1786440
  C        0.9437350     0.7292120     0.2081230
  C        0.9442940    -0.7286720    -0.2079020
  C       -1.2056960    -0.0002420     0.0002480
  H        1.0881780     0.8312400     1.2920210
  H        1.6593840     1.3596400    -0.3231520
  H        1.0894950    -0.8305950    -1.2917000
  H        1.6600270    -1.3586360     0.3238180
  H       -1.8301230     0.0948300     0.8968380
  H       -1.8312890    -0.0954850    -0.8954820
units angstrom
no_reorient  #important for SAPT in psi4, default
symmetry c1  #important for SAPT in psi4, default
}

set PROPERTIES_ORIGIN ["COM"]
properties('MP2/aug-cc-pvtz', properties = ['dipole'])
--------------------------------------------------------------------------

    Molecular point group: c1
  Charge       = 0
  Multiplicity = 1
  Basis Set: AUG-CC-PVTZ
    Blend: AUG-CC-PVTZ
  Basis Set: (AUG-CC-PVTZ AUX)
    Blend: AUG-CC-PVTZ-JKFIT

    Orbital Energies [Eh]
    ---------------------

    Doubly Occupied:

       1A    -20.567724     2A    -20.567548     3A    -11.331001
       4A    -11.284268     5A    -11.283164     6A     -1.439710
       7A     -1.333393     8A     -1.033163     9A     -0.865437
      10A     -0.854735    11A     -0.717667    12A     -0.707283
      13A     -0.642744    14A     -0.597196    15A     -0.579158
      16A     -0.574737    17A     -0.516359    18A     -0.502481
      19A     -0.445808    20A     -0.422993

  @DF-RHF Final Energy:  -266.89564454267889

   => Energetics <=

    Nuclear Repulsion Energy =            194.6867871563169672
    One-Electron Energy =                -750.6317245899078898
    Two-Electron Energy =                 289.0492928909119996
    Total Energy =                       -266.8956445426788946
  Basis Set: (AUG-CC-PVTZ AUX)
    Blend: AUG-CC-PVTZ-RI
    Molecular point group: c1

    Geometry (in Angstrom), charge = 0, multiplicity = 1:

       Center              X                  Y                   Z               Mass
    ------------   -----------------  -----------------  -----------------  -----------------
         O           -0.330676531541     1.126075780068    -0.177471468666    15.994914619570
         O           -0.350090131541    -1.134670419932     0.178183231334    15.994914619570
         C            0.963968868459     0.732372580068     0.207662231334    12.000000000000
         C            0.964527868459    -0.725511419932    -0.208362768666    12.000000000000
         C           -1.185462131541     0.002918580068    -0.000212768666    12.000000000000
         H            1.108411868459     0.834400580068     1.291560231334     1.007825032230
         H            1.679617868459     1.362800580068    -0.323612768666     1.007825032230
         H            1.109728868459    -0.827434419932    -1.292160768666     1.007825032230
         H            1.680260868459    -1.355475419932     0.323357231334     1.007825032230
         H           -1.809889131541     0.097990580068     0.896377231334     1.007825032230
         H           -1.811055131541    -0.092324419932    -0.895942768666     1.007825032230

  Basis Set: AUG-CC-PVTZ
    Blend: AUG-CC-PVTZ
  Basis Set: (AUG-CC-PVTZ AUX)
    Blend: AUG-CC-PVTZ-JKFIT
	 Reference Energy          =    -266.8956445426788946 [Eh]
	 Singles Energy            =      -0.0000000000000000 [Eh]
	 Same-Spin Energy          =      -0.2550595397613722 [Eh]
	 Opposite-Spin Energy      =      -0.8241233469807066 [Eh]
	 Correlation Energy        =      -1.0791828867420787 [Eh]
	 Total Energy              =    -267.9748274294209978 [Eh]

	 ================> DF-SCS-MP2 Energies <==================
	-----------------------------------------------------------
	 SCS Same-Spin Scale       =       0.3333333333333333 [-]
	 SCS Opposite-Spin Scale   =       1.2000000000000000 [-]
	 SCS Same-Spin Energy      =      -0.0850198465871241 [Eh]
	 SCS Opposite-Spin Energy  =      -0.9889480163768478 [Eh]
	 SCS Correlation Energy    =      -1.0739678629639720 [Eh]
	 SCS Total Energy          =    -267.9696124056428630 [Eh]
	-----------------------------------------------------------

  Dipole Moment: [D]
     X:     1.1019      Y:     0.0407      Z:    -0.0153     Total:     1.1028

*** Psi4 exiting successfully. Buy a developer a beer!
