                               Psi4 1.4a3.dev225

  ==> Input File <==

--------------------------------------------------------------------------
#psi4
#
memory 32 gb

molecule  {
0 1
  O       -0.3708180     1.1374600    -0.1796520
  O       -0.3702750    -1.1377920     0.1790210
  C        0.9435640     0.7290890     0.2086020
  C        0.9441010    -0.7285680    -0.2083840
  C       -1.1934968     0.0157609    -0.0022866
  H        1.0871020     0.8300640     1.2927200
  H        1.6596950     1.3594640    -0.3218900
  H        1.0883850    -0.8294390    -1.2924060
  H        1.6603130    -1.3585000     0.3225370
  H       -1.8301100     0.0954290     0.8966270
  H       -1.8312480    -0.0960600    -0.8953020
units angstrom
no_reorient  #important for SAPT in psi4, default
symmetry c1  #important for SAPT in psi4, default
}

set PROPERTIES_ORIGIN ["COM"]
properties('MP2/aug-cc-pvtz', properties = ['dipole'])
--------------------------------------------------------------------------

    Molecular point group: c1
  Charge       = 0
  Multiplicity = 1
  Basis Set: AUG-CC-PVTZ
    Blend: AUG-CC-PVTZ
  Basis Set: (AUG-CC-PVTZ AUX)
    Blend: AUG-CC-PVTZ-JKFIT

    Orbital Energies [Eh]
    ---------------------

    Doubly Occupied:

       1A    -20.570793     2A    -20.567682     3A    -11.329693
       4A    -11.287169     5A    -11.285392     6A     -1.439122
       7A     -1.333780     8A     -1.033468     9A     -0.863302
      10A     -0.856226    11A     -0.717123    12A     -0.707072
      13A     -0.641859    14A     -0.596510    15A     -0.577195
      16A     -0.571539    17A     -0.519820    18A     -0.505883
      19A     -0.449234    20A     -0.420164

  @DF-RHF Final Energy:  -266.89479308338713

   => Energetics <=

    Nuclear Repulsion Energy =            194.3902162088655814
    One-Electron Energy =                -750.0239661957107273
    Two-Electron Energy =                 288.7389569034580177
    Total Energy =                       -266.8947930833871283
  Basis Set: (AUG-CC-PVTZ AUX)
    Blend: AUG-CC-PVTZ-RI
    Molecular point group: c1

    Geometry (in Angstrom), charge = 0, multiplicity = 1:

       Center              X                  Y                   Z               Mass
    ------------   -----------------  -----------------  -----------------  -----------------
         O           -0.348191250270     1.134879688077    -0.179211514834    15.994914619570
         O           -0.347648250270    -1.140372311923     0.179461485166    15.994914619570
         C            0.966190749730     0.726508688077     0.209042485166    12.000000000000
         C            0.966727749730    -0.731148311923    -0.207943514834    12.000000000000
         C           -1.170870050270     0.013180588077    -0.001846114834    12.000000000000
         H            1.109728749730     0.827483688077     1.293160485166     1.007825032230
         H            1.682321749730     1.356883688077    -0.321449514834     1.007825032230
         H            1.111011749730    -0.832019311923    -1.291965514834     1.007825032230
         H            1.682939749730    -1.361080311923     0.322977485166     1.007825032230
         H           -1.807483250270     0.092848688077     0.897067485166     1.007825032230
         H           -1.808621250270    -0.098640311923    -0.894861514834     1.007825032230

  Basis Set: AUG-CC-PVTZ
    Blend: AUG-CC-PVTZ
  Basis Set: (AUG-CC-PVTZ AUX)
    Blend: AUG-CC-PVTZ-JKFIT
	 Reference Energy          =    -266.8947930833871283 [Eh]
	 Singles Energy            =      -0.0000000000000000 [Eh]
	 Same-Spin Energy          =      -0.2552062008223874 [Eh]
	 Opposite-Spin Energy      =      -0.8246541167796757 [Eh]
	 Correlation Energy        =      -1.0798603176020631 [Eh]
	 Total Energy              =    -267.9746534009892116 [Eh]

	 ================> DF-SCS-MP2 Energies <==================
	-----------------------------------------------------------
	 SCS Same-Spin Scale       =       0.3333333333333333 [-]
	 SCS Opposite-Spin Scale   =       1.2000000000000000 [-]
	 SCS Same-Spin Energy      =      -0.0850687336074625 [Eh]
	 SCS Opposite-Spin Energy  =      -0.9895849401356108 [Eh]
	 SCS Correlation Energy    =      -1.0746536737430732 [Eh]
	 SCS Total Energy          =    -267.9694467571301857 [Eh]
	-----------------------------------------------------------

  Dipole Moment: [D]
     X:     1.2489      Y:     0.0683      Z:    -0.0054     Total:     1.2508

*** Psi4 exiting successfully. Buy a developer a beer!
