                               Psi4 1.3.2 release

  ==> Input File <==

--------------------------------------------------------------------------
#psi4
#
memory 32 gb

molecule  {
0 1
  O       -0.3708850     1.1374830    -0.1792890
  O       -0.3703240    -1.1378310     0.1786440
  C        0.9437350     0.7292120     0.2081230
  C        0.9443309    -0.8248333    -0.2353428
  C       -1.2056960    -0.0002420     0.0002480
  H        1.0881780     0.8312400     1.2920210
  H        1.6593840     1.3596400    -0.3231520
  H        1.0894950    -0.8305950    -1.2917000
  H        1.6600270    -1.3586360     0.3238180
  H       -1.8301230     0.0948300     0.8968380
  H       -1.8312890    -0.0954850    -0.8954820
units angstrom
no_reorient  #important for SAPT in psi4, default
symmetry c1  #important for SAPT in psi4, default
}

set PROPERTIES_ORIGIN ["COM"]
properties('MP2/aug-cc-pvtz', properties = ['dipole'])
--------------------------------------------------------------------------

    Molecular point group: c1
  Charge       = 0
  Multiplicity = 1
  Basis Set: AUG-CC-PVTZ
    Blend: AUG-CC-PVTZ
  Basis Set: (AUG-CC-PVTZ AUX)
    Blend: AUG-CC-PVTZ-JKFIT

    Orbital Energies [Eh]
    ---------------------

    Doubly Occupied:

       1A    -20.568420     2A    -20.567723     3A    -11.331166
       4A    -11.286595     5A    -11.284857     6A     -1.433352
       7A     -1.333146     8A     -1.021079     9A     -0.863562
      10A     -0.857688    11A     -0.716264    12A     -0.699391
      13A     -0.647434    14A     -0.602801    15A     -0.581422
      16A     -0.575631    17A     -0.516156    18A     -0.494270
      19A     -0.435350    20A     -0.423626

  @DF-RHF Final Energy:  -266.88721297529372

   => Energetics <=

    Nuclear Repulsion Energy =            193.1305019137057286
    One-Electron Energy =                -747.5555625198784355
    Two-Electron Energy =                 287.5378476308789573
    Total Energy =                       -266.8872129752937212
  Basis Set: (AUG-CC-PVTZ AUX)
    Blend: AUG-CC-PVTZ-RI
    Molecular point group: c1

    Geometry (in Angstrom), charge = 0, multiplicity = 1:

       Center              X                  Y                   Z               Mass
    ------------   -----------------  -----------------  -----------------  -----------------
         O           -0.346341797397     1.153082328618    -0.174809915572    15.994914619570
         O           -0.345780797397    -1.122231671382     0.183123084428    15.994914619570
         C            0.968278202603     0.744811328618     0.212602084428    12.000000000000
         C            0.968874102603    -0.809233971382    -0.230863715572    12.000000000000
         C           -1.181152797397     0.015357328618     0.004727084428    12.000000000000
         H            1.112721202603     0.846839328618     1.296500084428     1.007825032230
         H            1.683927202603     1.375239328618    -0.318672915572     1.007825032230
         H            1.114038202603    -0.814995671382    -1.287220915572     1.007825032230
         H            1.684570202603    -1.343036671382     0.328297084428     1.007825032230
         H           -1.805579797397     0.110429328618     0.901317084428     1.007825032230
         H           -1.806745797397    -0.079885671382    -0.891002915572     1.007825032230

  Basis Set: AUG-CC-PVTZ
    Blend: AUG-CC-PVTZ
  Basis Set: (AUG-CC-PVTZ AUX)
    Blend: AUG-CC-PVTZ-JKFIT
	 Reference Energy          =    -266.8872129752937212 [Eh]
	 Singles Energy            =      -0.0000000000000000 [Eh]
	 Same-Spin Energy          =      -0.2549550945033881 [Eh]
	 Opposite-Spin Energy      =      -0.8247482192988718 [Eh]
	 Correlation Energy        =      -1.0797033138022598 [Eh]
	 Total Energy              =    -267.9669162890959910 [Eh]

	 ================> DF-SCS-MP2 Energies <==================
	-----------------------------------------------------------
	 SCS Same-Spin Scale       =       0.3333333333333333 [-]
	 SCS Opposite-Spin Scale   =       1.2000000000000000 [-]
	 SCS Same-Spin Energy      =      -0.0849850315011294 [Eh]
	 SCS Opposite-Spin Energy  =      -0.9896978631586461 [Eh]
	 SCS Correlation Energy    =      -1.0746828946597755 [Eh]
	 SCS Total Energy          =    -267.9618958699534801 [Eh]
	-----------------------------------------------------------

  Dipole Moment: [D]
     X:     1.1339      Y:    -0.0886      Z:    -0.0297     Total:     1.1377

*** Psi4 exiting successfully. Buy a developer a beer!
