                               Psi4 1.3.2 release

  ==> Input File <==

--------------------------------------------------------------------------
#psi4
#
memory 32 gb

molecule  {
0 1
  O       -0.3708850     1.1374830    -0.1792890
  O       -0.3703240    -1.1378310     0.1786440
  C        0.9437350     0.7292120     0.2081230
  C        0.9442203    -0.5363493    -0.1530204
  C       -1.2056960    -0.0002420     0.0002480
  H        1.0881780     0.8312400     1.2920210
  H        1.6593840     1.3596400    -0.3231520
  H        1.0894950    -0.8305950    -1.2917000
  H        1.6600270    -1.3586360     0.3238180
  H       -1.8301230     0.0948300     0.8968380
  H       -1.8312890    -0.0954850    -0.8954820
units angstrom
no_reorient  #important for SAPT in psi4, default
symmetry c1  #important for SAPT in psi4, default
}

set PROPERTIES_ORIGIN ["COM"]
properties('MP2/aug-cc-pvtz', properties = ['dipole'])
--------------------------------------------------------------------------

    Molecular point group: c1
  Charge       = 0
  Multiplicity = 1
  Basis Set: AUG-CC-PVTZ
    Blend: AUG-CC-PVTZ
  Basis Set: (AUG-CC-PVTZ AUX)
    Blend: AUG-CC-PVTZ-JKFIT

    Orbital Energies [Eh]
    ---------------------

    Doubly Occupied:

       1A    -20.571865     2A    -20.569003     3A    -11.327864
       4A    -11.293738     5A    -11.279517     6A     -1.441619
       7A     -1.324977     8A     -1.076703     9A     -0.876975
      10A     -0.836573    11A     -0.723063    12A     -0.716009
      13A     -0.637080    14A     -0.602995    15A     -0.575894
      16A     -0.552004    17A     -0.526484    18A     -0.508468
      19A     -0.444434    20A     -0.417135

  @DF-RHF Final Energy:  -266.84097058991301

   => Energetics <=

    Nuclear Repulsion Energy =            196.2719524703051093
    One-Electron Energy =                -753.6210449315707365
    Two-Electron Energy =                 290.5081218713526141
    Total Energy =                       -266.8409705899130131
  Basis Set: (AUG-CC-PVTZ AUX)
    Blend: AUG-CC-PVTZ-RI
    Molecular point group: c1

    Geometry (in Angstrom), charge = 0, multiplicity = 1:

       Center              X                  Y                   Z               Mass
    ------------   -----------------  -----------------  -----------------  -----------------
         O           -0.346323871171     1.106324379035    -0.188152862247    15.994914619570
         O           -0.345762871171    -1.168989620965     0.169780137753    15.994914619570
         C            0.968296128829     0.698053379035     0.199259137753    12.000000000000
         C            0.968781428829    -0.567507920965    -0.161884262247    12.000000000000
         C           -1.181134871171    -0.031400620965    -0.008615862247    12.000000000000
         H            1.112739128829     0.800081379035     1.283157137753     1.007825032230
         H            1.683945128829     1.328481379035    -0.332015862247     1.007825032230
         H            1.114056128829    -0.861753620965    -1.300563862247     1.007825032230
         H            1.684588128829    -1.389794620965     0.314954137753     1.007825032230
         H           -1.805561871171     0.063671379035     0.887974137753     1.007825032230
         H           -1.806727871171    -0.126643620965    -0.904345862247     1.007825032230

  Basis Set: AUG-CC-PVTZ
    Blend: AUG-CC-PVTZ
  Basis Set: (AUG-CC-PVTZ AUX)
    Blend: AUG-CC-PVTZ-JKFIT
	 Reference Energy          =    -266.8409705899130131 [Eh]
	 Singles Energy            =      -0.0000000000000000 [Eh]
	 Same-Spin Energy          =      -0.2585825126070834 [Eh]
	 Opposite-Spin Energy      =      -0.8299200712231006 [Eh]
	 Correlation Energy        =      -1.0885025838301841 [Eh]
	 Total Energy              =    -267.9294731737431903 [Eh]

	 ================> DF-SCS-MP2 Energies <==================
	-----------------------------------------------------------
	 SCS Same-Spin Scale       =       0.3333333333333333 [-]
	 SCS Opposite-Spin Scale   =       1.2000000000000000 [-]
	 SCS Same-Spin Energy      =      -0.0861941708690278 [Eh]
	 SCS Opposite-Spin Energy  =      -0.9959040854677207 [Eh]
	 SCS Correlation Energy    =      -1.0820982563367485 [Eh]
	 SCS Total Energy          =    -267.9230688462497483 [Eh]
	-----------------------------------------------------------

  Dipole Moment: [D]
     X:     1.2515      Y:     0.2241      Z:     0.0696     Total:     1.2733

*** Psi4 exiting successfully. Buy a developer a beer!
