                               Psi4 1.3.2 release

  ==> Input File <==

--------------------------------------------------------------------------
#psi4
#
memory 32 gb

molecule  {
0 1
  O       -0.2550620     1.0450366    -0.1648237
  O       -0.3703240    -1.1378310     0.1786440
  C        0.9437350     0.7292120     0.2081230
  C        0.9442940    -0.7286720    -0.2079020
  C       -1.2056960    -0.0002420     0.0002480
  H        1.0881780     0.8312400     1.2920210
  H        1.6593840     1.3596400    -0.3231520
  H        1.0894950    -0.8305950    -1.2917000
  H        1.6600270    -1.3586360     0.3238180
  H       -1.8301230     0.0948300     0.8968380
  H       -1.8312890    -0.0954850    -0.8954820
units angstrom
no_reorient  #important for SAPT in psi4, default
symmetry c1  #important for SAPT in psi4, default
}

set PROPERTIES_ORIGIN ["COM"]
properties('MP2/aug-cc-pvtz', properties = ['dipole'])
--------------------------------------------------------------------------

    Molecular point group: c1
  Charge       = 0
  Multiplicity = 1
  Basis Set: AUG-CC-PVTZ
    Blend: AUG-CC-PVTZ
  Basis Set: (AUG-CC-PVTZ AUX)
    Blend: AUG-CC-PVTZ-JKFIT

    Orbital Energies [Eh]
    ---------------------

    Doubly Occupied:

       1A    -20.564357     2A    -20.562240     3A    -11.338297
       4A    -11.276448     5A    -11.272117     6A     -1.468577
       7A     -1.343955     8A     -1.036230     9A     -0.874112
      10A     -0.849799    11A     -0.729124    12A     -0.719496
      13A     -0.651441    14A     -0.610542    15A     -0.594806
      16A     -0.572310    17A     -0.514831    18A     -0.484716
      19A     -0.434454    20A     -0.422481

  @DF-RHF Final Energy:  -266.88186564331511

   => Energetics <=

    Nuclear Repulsion Energy =            197.6148264280907938
    One-Electron Energy =                -756.3527198960957776
    Two-Electron Energy =                 291.8560278246899315
    Total Energy =                       -266.8818656433151091
  Basis Set: (AUG-CC-PVTZ AUX)
    Blend: AUG-CC-PVTZ-RI
    Molecular point group: c1

    Geometry (in Angstrom), charge = 0, multiplicity = 1:

       Center              X                  Y                   Z               Mass
    ------------   -----------------  -----------------  -----------------  -----------------
         O           -0.255535231258     1.065022082060    -0.167917349593    15.994914619570
         O           -0.370797231258    -1.117845517940     0.175550350407    15.994914619570
         C            0.943261768742     0.749197482060     0.205029350407    12.000000000000
         C            0.943820768742    -0.708686517940    -0.210995649593    12.000000000000
         C           -1.206169231258     0.019743482060    -0.002845649593    12.000000000000
         H            1.087704768742     0.851225482060     1.288927350407     1.007825032230
         H            1.658910768742     1.379625482060    -0.326245649593     1.007825032230
         H            1.089021768742    -0.810609517940    -1.294793649593     1.007825032230
         H            1.659553768742    -1.338650517940     0.320724350407     1.007825032230
         H           -1.830596231258     0.114815482060     0.893744350407     1.007825032230
         H           -1.831762231258    -0.075499517940    -0.898575649593     1.007825032230

  Basis Set: AUG-CC-PVTZ
    Blend: AUG-CC-PVTZ
  Basis Set: (AUG-CC-PVTZ AUX)
    Blend: AUG-CC-PVTZ-JKFIT
	 Reference Energy          =    -266.8818656433151091 [Eh]
	 Singles Energy            =      -0.0000000000000000 [Eh]
	 Same-Spin Energy          =      -0.2550213864653637 [Eh]
	 Opposite-Spin Energy      =      -0.8218806807914957 [Eh]
	 Correlation Energy        =      -1.0769020672568592 [Eh]
	 Total Energy              =    -267.9587677105719763 [Eh]

	 ================> DF-SCS-MP2 Energies <==================
	-----------------------------------------------------------
	 SCS Same-Spin Scale       =       0.3333333333333333 [-]
	 SCS Opposite-Spin Scale   =       1.2000000000000000 [-]
	 SCS Same-Spin Energy      =      -0.0850071288217879 [Eh]
	 SCS Opposite-Spin Energy  =      -0.9862568169497947 [Eh]
	 SCS Correlation Energy    =      -1.0712639457715827 [Eh]
	 SCS Total Energy          =    -267.9531295890867000 [Eh]
	-----------------------------------------------------------

  Dipole Moment: [D]
     X:     0.6225      Y:     0.2602      Z:    -0.1182     Total:     0.6850

*** Psi4 exiting successfully. Buy a developer a beer!
