                               Psi4 1.3.2 release

  ==> Input File <==

--------------------------------------------------------------------------
#psi4
#
memory 32 gb

molecule  {
0 1
  O       -0.3708850     1.1374830    -0.1792890
  O       -0.3703240    -1.1378310     0.1786440
  C        0.9437350     0.7292120     0.2081230
  C        0.9443677    -0.9209947    -0.2627836
  C       -1.2056960    -0.0002420     0.0002480
  H        1.0881780     0.8312400     1.2920210
  H        1.6593840     1.3596400    -0.3231520
  H        1.0894950    -0.8305950    -1.2917000
  H        1.6600270    -1.3586360     0.3238180
  H       -1.8301230     0.0948300     0.8968380
  H       -1.8312890    -0.0954850    -0.8954820
units angstrom
no_reorient  #important for SAPT in psi4, default
symmetry c1  #important for SAPT in psi4, default
}

set PROPERTIES_ORIGIN ["COM"]
properties('MP2/aug-cc-pvtz', properties = ['dipole'])
--------------------------------------------------------------------------

    Molecular point group: c1
  Charge       = 0
  Multiplicity = 1
  Basis Set: AUG-CC-PVTZ
    Blend: AUG-CC-PVTZ
  Basis Set: (AUG-CC-PVTZ AUX)
    Blend: AUG-CC-PVTZ-JKFIT

    Orbital Energies [Eh]
    ---------------------

    Doubly Occupied:

       1A    -20.568920     2A    -20.567705     3A    -11.332833
       4A    -11.287038     5A    -11.286532     6A     -1.431376
       7A     -1.334601     8A     -1.013780     9A     -0.869241
      10A     -0.853640    11A     -0.717884    12A     -0.693962
      13A     -0.653370    14A     -0.614504    15A     -0.582408
      16A     -0.575422    17A     -0.515103    18A     -0.490184
      19A     -0.424822    20A     -0.411831

  @DF-RHF Final Energy:  -266.86493306024050

   => Energetics <=

    Nuclear Repulsion Energy =            192.1033593972116478
    One-Electron Energy =                -745.4862717424900893
    Two-Electron Energy =                 286.5179792850379386
    Total Energy =                       -266.8649330602405030
  Basis Set: (AUG-CC-PVTZ AUX)
    Blend: AUG-CC-PVTZ-RI
    Molecular point group: c1

    Geometry (in Angstrom), charge = 0, multiplicity = 1:

       Center              X                  Y                   Z               Mass
    ------------   -----------------  -----------------  -----------------  -----------------
         O           -0.346347762000     1.168668322618    -0.170362266680    15.994914619570
         O           -0.345786762000    -1.106645677382     0.187570733320    15.994914619570
         C            0.968272238000     0.760397322618     0.217049733320    12.000000000000
         C            0.968904938000    -0.889809377382    -0.253856866680    12.000000000000
         C           -1.181158762000     0.030943322618     0.009174733320    12.000000000000
         H            1.112715238000     0.862425322618     1.300947733320     1.007825032230
         H            1.683921238000     1.390825322618    -0.314225266680     1.007825032230
         H            1.114032238000    -0.799409677382    -1.282773266680     1.007825032230
         H            1.684564238000    -1.327450677382     0.332744733320     1.007825032230
         H           -1.805585762000     0.126015322618     0.905764733320     1.007825032230
         H           -1.806751762000    -0.064299677382    -0.886555266680     1.007825032230

  Basis Set: AUG-CC-PVTZ
    Blend: AUG-CC-PVTZ
  Basis Set: (AUG-CC-PVTZ AUX)
    Blend: AUG-CC-PVTZ-JKFIT
	 Reference Energy          =    -266.8649330602405030 [Eh]
	 Singles Energy            =      -0.0000000000000000 [Eh]
	 Same-Spin Energy          =      -0.2555595716398801 [Eh]
	 Opposite-Spin Energy      =      -0.8262760167629408 [Eh]
	 Correlation Energy        =      -1.0818355884028210 [Eh]
	 Total Energy              =    -267.9467686486433422 [Eh]

	 ================> DF-SCS-MP2 Energies <==================
	-----------------------------------------------------------
	 SCS Same-Spin Scale       =       0.3333333333333333 [-]
	 SCS Opposite-Spin Scale   =       1.2000000000000000 [-]
	 SCS Same-Spin Energy      =      -0.0851865238799600 [Eh]
	 SCS Opposite-Spin Energy  =      -0.9915312201155290 [Eh]
	 SCS Correlation Energy    =      -1.0767177439954889 [Eh]
	 SCS Total Energy          =    -267.9416508042360192 [Eh]
	-----------------------------------------------------------

  Dipole Moment: [D]
     X:     1.0585      Y:    -0.1519      Z:    -0.0547     Total:     1.0708

*** Psi4 exiting successfully. Buy a developer a beer!
