                               Psi4 1.3.2 release

  ==> Input File <==

--------------------------------------------------------------------------
#psi4
#
memory 32 gb

molecule  {
0 1
  O       -0.3489490     1.2285728    -0.1448726
  O       -0.3703240    -1.1378310     0.1786440
  C        0.9437350     0.7292120     0.2081230
  C        0.9442940    -0.7286720    -0.2079020
  C       -1.2056960    -0.0002420     0.0002480
  H        1.0881780     0.8312400     1.2920210
  H        1.6593840     1.3596400    -0.3231520
  H        1.0894950    -0.8305950    -1.2917000
  H        1.6600270    -1.3586360     0.3238180
  H       -1.8301230     0.0948300     0.8968380
  H       -1.8312890    -0.0954850    -0.8954820
units angstrom
no_reorient  #important for SAPT in psi4, default
symmetry c1  #important for SAPT in psi4, default
}

set PROPERTIES_ORIGIN ["COM"]
properties('MP2/aug-cc-pvtz', properties = ['dipole'])
--------------------------------------------------------------------------

    Molecular point group: c1
  Charge       = 0
  Multiplicity = 1
  Basis Set: AUG-CC-PVTZ
    Blend: AUG-CC-PVTZ
  Basis Set: (AUG-CC-PVTZ AUX)
    Blend: AUG-CC-PVTZ-JKFIT

    Orbital Energies [Eh]
    ---------------------

    Doubly Occupied:

       1A    -20.574951     2A    -20.569999     3A    -11.337289
       4A    -11.288191     5A    -11.281717     6A     -1.422689
       7A     -1.326871     8A     -1.026699     9A     -0.871713
      10A     -0.848884    11A     -0.711683    12A     -0.699443
      13A     -0.635618    14A     -0.596431    15A     -0.577718
      16A     -0.564444    17A     -0.519172    18A     -0.502489
      19A     -0.446903    20A     -0.428043

  @DF-RHF Final Energy:  -266.88638964803016

   => Energetics <=

    Nuclear Repulsion Energy =            192.2026648931673094
    One-Electron Energy =                -745.7162132172308020
    Two-Electron Energy =                 286.6271586760333889
    Total Energy =                       -266.8863896480301605
  Basis Set: (AUG-CC-PVTZ AUX)
    Blend: AUG-CC-PVTZ-RI
    Molecular point group: c1

    Geometry (in Angstrom), charge = 0, multiplicity = 1:

       Center              X                  Y                   Z               Mass
    ------------   -----------------  -----------------  -----------------  -----------------
         O           -0.329138872630     1.208907099619    -0.152276487606    15.994914619570
         O           -0.350513872630    -1.157496700381     0.171240112394    15.994914619570
         C            0.963545127370     0.709546299619     0.200719112394    12.000000000000
         C            0.964104127370    -0.748337700381    -0.215305887606    12.000000000000
         C           -1.185885872630    -0.019907700381    -0.007155887606    12.000000000000
         H            1.107988127370     0.811574299619     1.284617112394     1.007825032230
         H            1.679194127370     1.339974299619    -0.330555887606     1.007825032230
         H            1.109305127370    -0.850260700381    -1.299103887606     1.007825032230
         H            1.679837127370    -1.378301700381     0.316414112394     1.007825032230
         H           -1.810312872630     0.075164299619     0.889434112394     1.007825032230
         H           -1.811478872630    -0.115150700381    -0.902885887606     1.007825032230

  Basis Set: AUG-CC-PVTZ
    Blend: AUG-CC-PVTZ
  Basis Set: (AUG-CC-PVTZ AUX)
    Blend: AUG-CC-PVTZ-JKFIT
	 Reference Energy          =    -266.8863896480301605 [Eh]
	 Singles Energy            =      -0.0000000000000000 [Eh]
	 Same-Spin Energy          =      -0.2558083568865525 [Eh]
	 Opposite-Spin Energy      =      -0.8275187375914079 [Eh]
	 Correlation Energy        =      -1.0833270944779605 [Eh]
	 Total Energy              =    -267.9697167425081261 [Eh]

	 ================> DF-SCS-MP2 Energies <==================
	-----------------------------------------------------------
	 SCS Same-Spin Scale       =       0.3333333333333333 [-]
	 SCS Opposite-Spin Scale   =       1.2000000000000000 [-]
	 SCS Same-Spin Energy      =      -0.0852694522955175 [Eh]
	 SCS Opposite-Spin Energy  =      -0.9930224851096895 [Eh]
	 SCS Correlation Energy    =      -1.0782919374052069 [Eh]
	 SCS Total Energy          =    -267.9646815854353576 [Eh]
	-----------------------------------------------------------

  Dipole Moment: [D]
     X:     1.0511      Y:    -0.3087      Z:    -0.0543     Total:     1.0969

*** Psi4 exiting successfully. Buy a developer a beer!
