                               Psi4 1.3.2 release

  ==> Input File <==

--------------------------------------------------------------------------
#psi4
#
memory 32 gb

molecule  {
0 1
  O       -0.3311962     1.1080052    -0.1746784
  O       -0.3703240    -1.1378310     0.1786440
  C        0.9437350     0.7292120     0.2081230
  C        0.9442940    -0.7286720    -0.2079020
  C       -1.2056960    -0.0002420     0.0002480
  H        1.0881780     0.8312400     1.2920210
  H        1.6593840     1.3596400    -0.3231520
  H        1.0894950    -0.8305950    -1.2917000
  H        1.6600270    -1.3586360     0.3238180
  H       -1.8301230     0.0948300     0.8968380
  H       -1.8312890    -0.0954850    -0.8954820
units angstrom
no_reorient  #important for SAPT in psi4, default
symmetry c1  #important for SAPT in psi4, default
}

set PROPERTIES_ORIGIN ["COM"]
properties('MP2/aug-cc-pvtz', properties = ['dipole'])
--------------------------------------------------------------------------

    Molecular point group: c1
  Charge       = 0
  Multiplicity = 1
  Basis Set: AUG-CC-PVTZ
    Blend: AUG-CC-PVTZ
  Basis Set: (AUG-CC-PVTZ AUX)
    Blend: AUG-CC-PVTZ-JKFIT

    Orbital Energies [Eh]
    ---------------------

    Doubly Occupied:

       1A    -20.567062     2A    -20.566613     3A    -11.332308
       4A    -11.282723     5A    -11.280882     6A     -1.444422
       7A     -1.335644     8A     -1.033558     9A     -0.866686
      10A     -0.854145    11A     -0.719495    12A     -0.709489
      13A     -0.643833    14A     -0.599151    15A     -0.583351
      16A     -0.574242    17A     -0.515900    18A     -0.499649
      19A     -0.443464    20A     -0.423378

  @DF-RHF Final Energy:  -266.89523807525103

   => Energetics <=

    Nuclear Repulsion Energy =            195.2460060780238109
    One-Electron Energy =                -751.7304973387948621
    Two-Electron Energy =                 289.5892531855200218
    Total Energy =                       -266.8952380752510294
  Basis Set: (AUG-CC-PVTZ AUX)
    Blend: AUG-CC-PVTZ-RI
    Molecular point group: c1

    Geometry (in Angstrom), charge = 0, multiplicity = 1:

       Center              X                  Y                   Z               Mass
    ------------   -----------------  -----------------  -----------------  -----------------
         O           -0.315221389650     1.114386938239    -0.175643039035    15.994914619570
         O           -0.354349189650    -1.131449261761     0.177679360965    15.994914619570
         C            0.959709810350     0.735593738239     0.207158360965    12.000000000000
         C            0.960268810350    -0.722290261761    -0.208866639035    12.000000000000
         C           -1.189721189650     0.006139738239    -0.000716639035    12.000000000000
         H            1.104152810350     0.837621738239     1.291056360965     1.007825032230
         H            1.675358810350     1.366021738239    -0.324116639035     1.007825032230
         H            1.105469810350    -0.824213261761    -1.292664639035     1.007825032230
         H            1.676001810350    -1.352254261761     0.322853360965     1.007825032230
         H           -1.814148189650     0.101211738239     0.895873360965     1.007825032230
         H           -1.815314189650    -0.089103261761    -0.896446639035     1.007825032230

  Basis Set: AUG-CC-PVTZ
    Blend: AUG-CC-PVTZ
  Basis Set: (AUG-CC-PVTZ AUX)
    Blend: AUG-CC-PVTZ-JKFIT
	 Reference Energy          =    -266.8952380752510294 [Eh]
	 Singles Energy            =      -0.0000000000000000 [Eh]
	 Same-Spin Energy          =      -0.2549854711945868 [Eh]
	 Opposite-Spin Energy      =      -0.8235513284642489 [Eh]
	 Correlation Energy        =      -1.0785367996588358 [Eh]
	 Total Energy              =    -267.9737748749098500 [Eh]

	 ================> DF-SCS-MP2 Energies <==================
	-----------------------------------------------------------
	 SCS Same-Spin Scale       =       0.3333333333333333 [-]
	 SCS Opposite-Spin Scale   =       1.2000000000000000 [-]
	 SCS Same-Spin Energy      =      -0.0849951570648623 [Eh]
	 SCS Opposite-Spin Energy  =      -0.9882615941570987 [Eh]
	 SCS Correlation Energy    =      -1.0732567512219608 [Eh]
	 SCS Total Energy          =    -267.9684948264729769 [Eh]
	-----------------------------------------------------------

  Dipole Moment: [D]
     X:     1.0111      Y:     0.0816      Z:    -0.0333     Total:     1.0149

*** Psi4 exiting successfully. Buy a developer a beer!
