                               Psi4 1.4a3.dev225

  ==> Input File <==

--------------------------------------------------------------------------
#psi4
#
memory 32 gb

molecule  {
0 1
  O       -0.3708180     1.1374600    -0.1796520
  O       -0.3702750    -1.1377920     0.1790210
  C        0.8976089     0.7433670     0.1950274
  C        0.9441010    -0.7285680    -0.2083840
  C       -1.2052300    -0.0002370     0.0002430
  H        1.0871020     0.8300640     1.2927200
  H        1.6596950     1.3594640    -0.3218900
  H        1.0883850    -0.8294390    -1.2924060
  H        1.6603130    -1.3585000     0.3225370
  H       -1.8301100     0.0954290     0.8966270
  H       -1.8312480    -0.0960600    -0.8953020
units angstrom
no_reorient  #important for SAPT in psi4, default
symmetry c1  #important for SAPT in psi4, default
}

set PROPERTIES_ORIGIN ["COM"]
properties('MP2/aug-cc-pvtz', properties = ['dipole'])
--------------------------------------------------------------------------

    Molecular point group: c1
  Charge       = 0
  Multiplicity = 1
  Basis Set: AUG-CC-PVTZ
    Blend: AUG-CC-PVTZ
  Basis Set: (AUG-CC-PVTZ AUX)
    Blend: AUG-CC-PVTZ-JKFIT

    Orbital Energies [Eh]
    ---------------------

    Doubly Occupied:

       1A    -20.572789     2A    -20.568651     3A    -11.332572
       4A    -11.285762     5A    -11.284360     6A     -1.446164
       7A     -1.340921     8A     -1.030234     9A     -0.868454
      10A     -0.852995    11A     -0.718746    12A     -0.710048
      13A     -0.644899    14A     -0.597888    15A     -0.582016
      16A     -0.573482    17A     -0.523111    18A     -0.498820
      19A     -0.442021    20A     -0.423543

  @DF-RHF Final Energy:  -266.89373292703635

   => Energetics <=

    Nuclear Repulsion Energy =            194.8428706541494932
    One-Electron Energy =                -750.8782554790179802
    Two-Electron Energy =                 289.1416518978321619
    Total Energy =                       -266.8937329270363534
  Basis Set: (AUG-CC-PVTZ AUX)
    Blend: AUG-CC-PVTZ-RI
    Molecular point group: c1

    Geometry (in Angstrom), charge = 0, multiplicity = 1:

       Center              X                  Y                   Z               Mass
    ------------   -----------------  -----------------  -----------------  -----------------
         O           -0.338841038047     1.135158452228    -0.177421323512    15.994914619570
         O           -0.338298038047    -1.140093547772     0.181251676488    15.994914619570
         C            0.929585861953     0.741065452228     0.197258076488    12.000000000000
         C            0.976077961953    -0.730869547772    -0.206153323512    12.000000000000
         C           -1.173253038047    -0.002538547772     0.002473676488    12.000000000000
         H            1.119078961953     0.827762452228     1.294950676488     1.007825032230
         H            1.691671961953     1.357162452228    -0.319659323512     1.007825032230
         H            1.120361961953    -0.831740547772    -1.290175323512     1.007825032230
         H            1.692289961953    -1.360801547772     0.324767676488     1.007825032230
         H           -1.798133038047     0.093127452228     0.898857676488     1.007825032230
         H           -1.799271038047    -0.098361547772    -0.893071323512     1.007825032230

  Basis Set: AUG-CC-PVTZ
    Blend: AUG-CC-PVTZ
  Basis Set: (AUG-CC-PVTZ AUX)
    Blend: AUG-CC-PVTZ-JKFIT
	 Reference Energy          =    -266.8937329270363534 [Eh]
	 Singles Energy            =      -0.0000000000000000 [Eh]
	 Same-Spin Energy          =      -0.2551246425776922 [Eh]
	 Opposite-Spin Energy      =      -0.8241016172635343 [Eh]
	 Correlation Energy        =      -1.0792262598412266 [Eh]
	 Total Energy              =    -267.9729591868775742 [Eh]

	 ================> DF-SCS-MP2 Energies <==================
	-----------------------------------------------------------
	 SCS Same-Spin Scale       =       0.3333333333333333 [-]
	 SCS Opposite-Spin Scale   =       1.2000000000000000 [-]
	 SCS Same-Spin Energy      =      -0.0850415475258974 [Eh]
	 SCS Opposite-Spin Energy  =      -0.9889219407162411 [Eh]
	 SCS Correlation Energy    =      -1.0739634882421385 [Eh]
	 SCS Total Energy          =    -267.9676964152785104 [Eh]
	-----------------------------------------------------------

  Dipole Moment: [D]
     X:     1.0268      Y:     0.0119      Z:    -0.0554     Total:     1.0284

*** Psi4 exiting successfully. Buy a developer a beer!
