                               Psi4 1.3.2 release

  ==> Input File <==

--------------------------------------------------------------------------
#psi4
#
memory 32 gb

molecule  {
0 1
  O       -0.3708850     1.1374830    -0.1792890
  O       -0.3703240    -1.1378310     0.1786440
  C        0.9437350     0.7292120     0.2081230
  C        0.9442940    -0.7286720    -0.2079020
  C       -1.2056960    -0.0002420     0.0002480
  H        1.0881780     0.8312400     1.2920210
  H        1.6593840     1.3596400    -0.3231520
  H        1.0894950    -0.8305950    -1.2917000
  H        1.6600270    -1.3586360     0.3238180
  H       -1.8457633     0.0936616     0.8858650
  H       -1.8312890    -0.0954850    -0.8954820
units angstrom
no_reorient  #important for SAPT in psi4, default
symmetry c1  #important for SAPT in psi4, default
}

set PROPERTIES_ORIGIN ["COM"]
properties('MP2/aug-cc-pvtz', properties = ['dipole'])
--------------------------------------------------------------------------

    Molecular point group: c1
  Charge       = 0
  Multiplicity = 1
  Basis Set: AUG-CC-PVTZ
    Blend: AUG-CC-PVTZ
  Basis Set: (AUG-CC-PVTZ AUX)
    Blend: AUG-CC-PVTZ-JKFIT

    Orbital Energies [Eh]
    ---------------------

    Doubly Occupied:

       1A    -20.568654     2A    -20.568629     3A    -11.329773
       4A    -11.286050     5A    -11.285389     6A     -1.435514
       7A     -1.331196     8A     -1.032912     9A     -0.865077
      10A     -0.854850    11A     -0.715663    12A     -0.705664
      13A     -0.641274    14A     -0.595712    15A     -0.575510
      16A     -0.575013    17A     -0.517042    18A     -0.505013
      19A     -0.448123    20A     -0.422183

  @DF-RHF Final Energy:  -266.89502759262291

   => Energetics <=

    Nuclear Repulsion Energy =            194.1200487648401918
    One-Electron Energy =                -749.5116745284905164
    Two-Electron Energy =                 288.4965981710274718
    Total Energy =                       -266.8950275926229097
  Basis Set: (AUG-CC-PVTZ AUX)
    Blend: AUG-CC-PVTZ-RI
    Molecular point group: c1

    Geometry (in Angstrom), charge = 0, multiplicity = 1:

       Center              X                  Y                   Z               Mass
    ------------   -----------------  -----------------  -----------------  -----------------
         O           -0.346122913135     1.137512255662    -0.179108194594    15.994914619570
         O           -0.345561913135    -1.137801744338     0.178824805406    15.994914619570
         C            0.968497086865     0.729241255662     0.208303805406    12.000000000000
         C            0.969056086865    -0.728642744338    -0.207721194594    12.000000000000
         C           -1.180933913135    -0.000212744338     0.000428805406    12.000000000000
         H            1.112940086865     0.831269255662     1.292201805406     1.007825032230
         H            1.684146086865     1.359669255662    -0.322971194594     1.007825032230
         H            1.114257086865    -0.830565744338    -1.291519194594     1.007825032230
         H            1.684789086865    -1.358606744338     0.323998805406     1.007825032230
         H           -1.821001213135     0.093690855662     0.886045805406     1.007825032230
         H           -1.806526913135    -0.095455744338    -0.895301194594     1.007825032230

  Basis Set: AUG-CC-PVTZ
    Blend: AUG-CC-PVTZ
  Basis Set: (AUG-CC-PVTZ AUX)
    Blend: AUG-CC-PVTZ-JKFIT
	 Reference Energy          =    -266.8950275926229097 [Eh]
	 Singles Energy            =      -0.0000000000000000 [Eh]
	 Same-Spin Energy          =      -0.2551507719361974 [Eh]
	 Opposite-Spin Energy      =      -0.8247311484951194 [Eh]
	 Correlation Energy        =      -1.0798819204313168 [Eh]
	 Total Energy              =    -267.9749095130542287 [Eh]

	 ================> DF-SCS-MP2 Energies <==================
	-----------------------------------------------------------
	 SCS Same-Spin Scale       =       0.3333333333333333 [-]
	 SCS Opposite-Spin Scale   =       1.2000000000000000 [-]
	 SCS Same-Spin Energy      =      -0.0850502573120658 [Eh]
	 SCS Opposite-Spin Energy  =      -0.9896773781941433 [Eh]
	 SCS Correlation Energy    =      -1.0747276355062090 [Eh]
	 SCS Total Energy          =    -267.9697552281291451 [Eh]
	-----------------------------------------------------------

  Dipole Moment: [D]
     X:     1.1898      Y:     0.0011      Z:     0.0027     Total:     1.1898

*** Psi4 exiting successfully. Buy a developer a beer!
