                               Psi4 1.4a3.dev225

  ==> Input File <==

--------------------------------------------------------------------------
#psi4
#
memory 32 gb

molecule  {
0 1
  O       -0.3708180     1.1374600    -0.1796520
  O       -0.3702750    -1.1377920     0.1790210
  C        0.9435640     0.7290890     0.2086020
  C        0.9441187    -0.7766397    -0.2221357
  C       -1.2052300    -0.0002370     0.0002430
  H        1.0871020     0.8300640     1.2927200
  H        1.6596950     1.3594640    -0.3218900
  H        1.0883850    -0.8294390    -1.2924060
  H        1.6603130    -1.3585000     0.3225370
  H       -1.8301100     0.0954290     0.8966270
  H       -1.8312480    -0.0960600    -0.8953020
units angstrom
no_reorient  #important for SAPT in psi4, default
symmetry c1  #important for SAPT in psi4, default
}

set PROPERTIES_ORIGIN ["COM"]
properties('MP2/aug-cc-pvtz', properties = ['dipole'])
--------------------------------------------------------------------------

    Molecular point group: c1
  Charge       = 0
  Multiplicity = 1
  Basis Set: AUG-CC-PVTZ
    Blend: AUG-CC-PVTZ
  Basis Set: (AUG-CC-PVTZ AUX)
    Blend: AUG-CC-PVTZ-JKFIT

    Orbital Energies [Eh]
    ---------------------

    Doubly Occupied:

       1A    -20.568379     2A    -20.568020     3A    -11.330400
       4A    -11.286316     5A    -11.284867     6A     -1.434492
       7A     -1.332280     8A     -1.026302     9A     -0.862552
      10A     -0.857884    11A     -0.715987    12A     -0.702350
      13A     -0.644518    14A     -0.598165    15A     -0.579252
      16A     -0.575248    17A     -0.516664    18A     -0.498854
      19A     -0.443355    20A     -0.423068

  @DF-RHF Final Energy:  -266.89330893163230

   => Energetics <=

    Nuclear Repulsion Energy =            193.6493562330305167
    One-Electron Energy =                -748.5874221288272565
    Two-Electron Energy =                 288.0447569641644350
    Total Energy =                       -266.8933089316323048
  Basis Set: (AUG-CC-PVTZ AUX)
    Blend: AUG-CC-PVTZ-RI
    Molecular point group: c1

    Geometry (in Angstrom), charge = 0, multiplicity = 1:

       Center              X                  Y                   Z               Mass
    ------------   -----------------  -----------------  -----------------  -----------------
         O           -0.346292383233     1.145264191642    -0.177392618860    15.994914619570
         O           -0.345749383233    -1.129987808358     0.181280381140    15.994914619570
         C            0.968089616767     0.736893191642     0.210861381140    12.000000000000
         C            0.968644316767    -0.768835508358    -0.219876318860    12.000000000000
         C           -1.180704383233     0.007567191642     0.002502381140    12.000000000000
         H            1.111627616767     0.837868191642     1.294979381140     1.007825032230
         H            1.684220616767     1.367268191642    -0.319630618860     1.007825032230
         H            1.112910616767    -0.821634808358    -1.290146618860     1.007825032230
         H            1.684838616767    -1.350695808358     0.324796381140     1.007825032230
         H           -1.805584383233     0.103233191642     0.898886381140     1.007825032230
         H           -1.806722383233    -0.088255808358    -0.893042618860     1.007825032230

  Basis Set: AUG-CC-PVTZ
    Blend: AUG-CC-PVTZ
  Basis Set: (AUG-CC-PVTZ AUX)
    Blend: AUG-CC-PVTZ-JKFIT
	 Reference Energy          =    -266.8933089316323048 [Eh]
	 Singles Energy            =      -0.0000000000000000 [Eh]
	 Same-Spin Energy          =      -0.2549559754612084 [Eh]
	 Opposite-Spin Energy      =      -0.8245557352196682 [Eh]
	 Correlation Energy        =      -1.0795117106808765 [Eh]
	 Total Energy              =    -267.9728206423131951 [Eh]

	 ================> DF-SCS-MP2 Energies <==================
	-----------------------------------------------------------
	 SCS Same-Spin Scale       =       0.3333333333333333 [-]
	 SCS Opposite-Spin Scale   =       1.2000000000000000 [-]
	 SCS Same-Spin Energy      =      -0.0849853251537361 [Eh]
	 SCS Opposite-Spin Energy  =      -0.9894668822636018 [Eh]
	 SCS Correlation Energy    =      -1.0744522074173379 [Eh]
	 SCS Total Energy          =    -267.9677611390496281 [Eh]
	-----------------------------------------------------------

  Dipole Moment: [D]
     X:     1.1661      Y:    -0.0458      Z:    -0.0145     Total:     1.1671

*** Psi4 exiting successfully. Buy a developer a beer!
