                               Psi4 1.3.2 release

  ==> Input File <==

--------------------------------------------------------------------------
#psi4
#
memory 32 gb

molecule  {
0 1
  O       -0.3708850     1.1374830    -0.1792890
  O       -0.3703240    -1.1378310     0.1786440
  C        1.1275935     0.6721125     0.2623052
  C        0.9442940    -0.7286720    -0.2079020
  C       -1.2056960    -0.0002420     0.0002480
  H        1.0881780     0.8312400     1.2920210
  H        1.6593840     1.3596400    -0.3231520
  H        1.0894950    -0.8305950    -1.2917000
  H        1.6600270    -1.3586360     0.3238180
  H       -1.8301230     0.0948300     0.8968380
  H       -1.8312890    -0.0954850    -0.8954820
units angstrom
no_reorient  #important for SAPT in psi4, default
symmetry c1  #important for SAPT in psi4, default
}

set PROPERTIES_ORIGIN ["COM"]
properties('MP2/aug-cc-pvtz', properties = ['dipole'])
--------------------------------------------------------------------------

    Molecular point group: c1
  Charge       = 0
  Multiplicity = 1
  Basis Set: AUG-CC-PVTZ
    Blend: AUG-CC-PVTZ
  Basis Set: (AUG-CC-PVTZ AUX)
    Blend: AUG-CC-PVTZ-JKFIT

    Orbital Energies [Eh]
    ---------------------

    Doubly Occupied:

       1A    -20.568649     2A    -20.550175     3A    -11.319970
       4A    -11.294839     5A    -11.292291     6A     -1.412620
       7A     -1.294411     8A     -1.045167     9A     -0.871411
      10A     -0.846452    11A     -0.713518    12A     -0.689991
      13A     -0.642877    14A     -0.595499    15A     -0.588060
      16A     -0.551524    17A     -0.512281    18A     -0.477554
      19A     -0.461050    20A     -0.414185

  @DF-RHF Final Energy:  -266.86504936080922

   => Energetics <=

    Nuclear Repulsion Energy =            191.5611061205405576
    One-Electron Energy =                -744.5672644616546449
    Two-Electron Energy =                 286.1411089803048640
    Total Energy =                       -266.8650493608092233
  Basis Set: (AUG-CC-PVTZ AUX)
    Blend: AUG-CC-PVTZ-RI
    Molecular point group: c1

    Geometry (in Angstrom), charge = 0, multiplicity = 1:

       Center              X                  Y                   Z               Mass
    ------------   -----------------  -----------------  -----------------  -----------------
         O           -0.376135897261     1.146751129401    -0.188039502373    15.994914619570
         O           -0.375574897261    -1.128562870599     0.169893497627    15.994914619570
         C            1.122342602739     0.681380629401     0.253554697627    12.000000000000
         C            0.939043102739    -0.719403870599    -0.216652502373    12.000000000000
         C           -1.210946897261     0.009026129401    -0.008502502373    12.000000000000
         H            1.082927102739     0.840508129401     1.283270497627     1.007825032230
         H            1.654133102739     1.368908129401    -0.331902502373     1.007825032230
         H            1.084244102739    -0.821326870599    -1.300450502373     1.007825032230
         H            1.654776102739    -1.349367870599     0.315067497627     1.007825032230
         H           -1.835373897261     0.104098129401     0.888087497627     1.007825032230
         H           -1.836539897261    -0.086216870599    -0.904232502373     1.007825032230

  Basis Set: AUG-CC-PVTZ
    Blend: AUG-CC-PVTZ
  Basis Set: (AUG-CC-PVTZ AUX)
    Blend: AUG-CC-PVTZ-JKFIT
	 Reference Energy          =    -266.8650493608092233 [Eh]
	 Singles Energy            =      -0.0000000000000000 [Eh]
	 Same-Spin Energy          =      -0.2568043994682660 [Eh]
	 Opposite-Spin Energy      =      -0.8298393812210727 [Eh]
	 Correlation Energy        =      -1.0866437806893388 [Eh]
	 Total Energy              =    -267.9516931414985379 [Eh]

	 ================> DF-SCS-MP2 Energies <==================
	-----------------------------------------------------------
	 SCS Same-Spin Scale       =       0.3333333333333333 [-]
	 SCS Opposite-Spin Scale   =       1.2000000000000000 [-]
	 SCS Same-Spin Energy      =      -0.0856014664894220 [Eh]
	 SCS Opposite-Spin Energy  =      -0.9958072574652872 [Eh]
	 SCS Correlation Energy    =      -1.0814087239547092 [Eh]
	 SCS Total Energy          =    -267.9464580847639468 [Eh]
	-----------------------------------------------------------

  Dipole Moment: [D]
     X:     1.6827      Y:    -0.0580      Z:     0.1525     Total:     1.6906

*** Psi4 exiting successfully. Buy a developer a beer!
