                               Psi4 1.3.2 release

  ==> Input File <==

--------------------------------------------------------------------------
#psi4
#
memory 32 gb

molecule  {
0 1
  O       -0.3708850     1.1374830    -0.1792890
  O       -0.3703240    -1.1378310     0.1786440
  C        0.9437350     0.7292120     0.2081230
  C        0.9442940    -0.7286720    -0.2079020
  C       -1.2643814    -0.0802216     0.0128691
  H        1.0881780     0.8312400     1.2920210
  H        1.6593840     1.3596400    -0.3231520
  H        1.0894950    -0.8305950    -1.2917000
  H        1.6600270    -1.3586360     0.3238180
  H       -1.8301230     0.0948300     0.8968380
  H       -1.8312890    -0.0954850    -0.8954820
units angstrom
no_reorient  #important for SAPT in psi4, default
symmetry c1  #important for SAPT in psi4, default
}

set PROPERTIES_ORIGIN ["COM"]
properties('MP2/aug-cc-pvtz', properties = ['dipole'])
--------------------------------------------------------------------------

    Molecular point group: c1
  Charge       = 0
  Multiplicity = 1
  Basis Set: AUG-CC-PVTZ
    Blend: AUG-CC-PVTZ
  Basis Set: (AUG-CC-PVTZ AUX)
    Blend: AUG-CC-PVTZ-JKFIT

    Orbital Energies [Eh]
    ---------------------

    Doubly Occupied:

       1A    -20.572009     2A    -20.556123     3A    -11.332368
       4A    -11.286898     5A    -11.278877     6A     -1.425954
       7A     -1.314919     8A     -1.031380     9A     -0.872693
      10A     -0.847829    11A     -0.714377    12A     -0.697209
      13A     -0.647688    14A     -0.593007    15A     -0.587507
      16A     -0.563605    17A     -0.508210    18A     -0.489169
      19A     -0.444182    20A     -0.428973

  @DF-RHF Final Energy:  -266.88663068837536

   => Energetics <=

    Nuclear Repulsion Energy =            193.0052423061061688
    One-Electron Energy =                -747.3977931715735394
    Two-Electron Energy =                 287.5059201770919799
    Total Energy =                       -266.8866306883753623
  Basis Set: (AUG-CC-PVTZ AUX)
    Blend: AUG-CC-PVTZ-RI
    Molecular point group: c1

    Geometry (in Angstrom), charge = 0, multiplicity = 1:

       Center              X                  Y                   Z               Mass
    ------------   -----------------  -----------------  -----------------  -----------------
         O           -0.336823992795     1.150459572719    -0.181303212602    15.994914619570
         O           -0.336262992795    -1.124854427281     0.176629787398    15.994914619570
         C            0.977796007205     0.742188572719     0.206108787398    12.000000000000
         C            0.978355007205    -0.715695427281    -0.209916212602    12.000000000000
         C           -1.230320392795    -0.067245027281     0.010854887398    12.000000000000
         H            1.122239007205     0.844216572719     1.290006787398     1.007825032230
         H            1.693445007205     1.372616572719    -0.325166212602     1.007825032230
         H            1.123556007205    -0.817618427281    -1.293714212602     1.007825032230
         H            1.694088007205    -1.345659427281     0.321803787398     1.007825032230
         H           -1.796061992795     0.107806572719     0.894823787398     1.007825032230
         H           -1.797227992795    -0.082508427281    -0.897496212602     1.007825032230

  Basis Set: AUG-CC-PVTZ
    Blend: AUG-CC-PVTZ
  Basis Set: (AUG-CC-PVTZ AUX)
    Blend: AUG-CC-PVTZ-JKFIT
	 Reference Energy          =    -266.8866306883753623 [Eh]
	 Singles Energy            =      -0.0000000000000000 [Eh]
	 Same-Spin Energy          =      -0.2554408992272996 [Eh]
	 Opposite-Spin Energy      =      -0.8259954431967478 [Eh]
	 Correlation Energy        =      -1.0814363424240474 [Eh]
	 Total Energy              =    -267.9680670307994319 [Eh]

	 ================> DF-SCS-MP2 Energies <==================
	-----------------------------------------------------------
	 SCS Same-Spin Scale       =       0.3333333333333333 [-]
	 SCS Opposite-Spin Scale   =       1.2000000000000000 [-]
	 SCS Same-Spin Energy      =      -0.0851469664090999 [Eh]
	 SCS Opposite-Spin Energy  =      -0.9911945318360973 [Eh]
	 SCS Correlation Energy    =      -1.0763414982451971 [Eh]
	 SCS Total Energy          =    -267.9629721866205614 [Eh]
	-----------------------------------------------------------

  Dipole Moment: [D]
     X:     0.9482      Y:    -0.3199      Z:     0.0311     Total:     1.0012

*** Psi4 exiting successfully. Buy a developer a beer!
