                               Psi4 1.3.2 release

  ==> Input File <==

--------------------------------------------------------------------------
#psi4
#
memory 32 gb

molecule  {
0 1
  O       -0.3708850     1.1374830    -0.1792890
  O       -0.3703240    -1.1378310     0.1786440
  C        0.9437350     0.7292120     0.2081230
  C        0.9442940    -0.7286720    -0.2079020
  C       -1.3230668    -0.1602012     0.0254901
  H        1.0881780     0.8312400     1.2920210
  H        1.6593840     1.3596400    -0.3231520
  H        1.0894950    -0.8305950    -1.2917000
  H        1.6600270    -1.3586360     0.3238180
  H       -1.8301230     0.0948300     0.8968380
  H       -1.8312890    -0.0954850    -0.8954820
units angstrom
no_reorient  #important for SAPT in psi4, default
symmetry c1  #important for SAPT in psi4, default
}

set PROPERTIES_ORIGIN ["COM"]
properties('MP2/aug-cc-pvtz', properties = ['dipole'])
--------------------------------------------------------------------------

    Molecular point group: c1
  Charge       = 0
  Multiplicity = 1
  Basis Set: AUG-CC-PVTZ
    Blend: AUG-CC-PVTZ
  Basis Set: (AUG-CC-PVTZ AUX)
    Blend: AUG-CC-PVTZ-JKFIT

    Orbital Energies [Eh]
    ---------------------

    Doubly Occupied:

       1A    -20.575934     2A    -20.542501     3A    -11.338927
       4A    -11.288616     5A    -11.272699     6A     -1.424314
       7A     -1.296752     8A     -1.031644     9A     -0.879907
      10A     -0.842435    11A     -0.717156    12A     -0.690501
      13A     -0.657133    14A     -0.605120    15A     -0.582278
      16A     -0.552563    17A     -0.504258    18A     -0.463243
      19A     -0.447196    20A     -0.424096

  @DF-RHF Final Energy:  -266.86620574335808

   => Energetics <=

    Nuclear Repulsion Energy =            191.9003074118979839
    One-Electron Energy =                -745.2584788619271876
    Two-Electron Energy =                 286.4919657066711238
    Total Energy =                       -266.8662057433580799
  Basis Set: (AUG-CC-PVTZ AUX)
    Blend: AUG-CC-PVTZ-RI
    Molecular point group: c1

    Geometry (in Angstrom), charge = 0, multiplicity = 1:

       Center              X                  Y                   Z               Mass
    ------------   -----------------  -----------------  -----------------  -----------------
         O           -0.327312169004     1.163422794612    -0.183348844532    15.994914619570
         O           -0.326751169004    -1.111891205388     0.174584155468    15.994914619570
         C            0.987307830996     0.755151794612     0.204063155468    12.000000000000
         C            0.987866830996    -0.702732205388    -0.211961844532    12.000000000000
         C           -1.279493969004    -0.134261405388     0.021430255468    12.000000000000
         H            1.131750830996     0.857179794612     1.287961155468     1.007825032230
         H            1.702956830996     1.385579794612    -0.327211844532     1.007825032230
         H            1.133067830996    -0.804655205388    -1.295759844532     1.007825032230
         H            1.703599830996    -1.332696205388     0.319758155468     1.007825032230
         H           -1.786550169004     0.120769794612     0.892778155468     1.007825032230
         H           -1.787716169004    -0.069545205388    -0.899541844532     1.007825032230

  Basis Set: AUG-CC-PVTZ
    Blend: AUG-CC-PVTZ
  Basis Set: (AUG-CC-PVTZ AUX)
    Blend: AUG-CC-PVTZ-JKFIT
	 Reference Energy          =    -266.8662057433580799 [Eh]
	 Singles Energy            =      -0.0000000000000000 [Eh]
	 Same-Spin Energy          =      -0.2563759069863892 [Eh]
	 Opposite-Spin Energy      =      -0.8282468801401193 [Eh]
	 Correlation Energy        =      -1.0846227871265084 [Eh]
	 Total Energy              =    -267.9508285304846140 [Eh]

	 ================> DF-SCS-MP2 Energies <==================
	-----------------------------------------------------------
	 SCS Same-Spin Scale       =       0.3333333333333333 [-]
	 SCS Opposite-Spin Scale   =       1.2000000000000000 [-]
	 SCS Same-Spin Energy      =      -0.0854586356621297 [Eh]
	 SCS Opposite-Spin Energy  =      -0.9938962561681430 [Eh]
	 SCS Correlation Energy    =      -1.0793548918302727 [Eh]
	 SCS Total Energy          =    -267.9455606351883716 [Eh]
	-----------------------------------------------------------

  Dipole Moment: [D]
     X:     0.7700      Y:    -0.6185      Z:     0.0542     Total:     0.9891

*** Psi4 exiting successfully. Buy a developer a beer!
