                               Psi4 1.4a3.dev225

  ==> Input File <==

--------------------------------------------------------------------------
#psi4
#
memory 32 gb

molecule  {
0 1
  O       -0.3708180     1.1374600    -0.1796520
  O       -0.3702750    -1.1377920     0.1790210
  C        0.9251820     0.7348002     0.2031722
  C        0.9441010    -0.7285680    -0.2083840
  C       -1.2052300    -0.0002370     0.0002430
  H        1.0871020     0.8300640     1.2927200
  H        1.6596950     1.3594640    -0.3218900
  H        1.0883850    -0.8294390    -1.2924060
  H        1.6603130    -1.3585000     0.3225370
  H       -1.8301100     0.0954290     0.8966270
  H       -1.8312480    -0.0960600    -0.8953020
units angstrom
no_reorient  #important for SAPT in psi4, default
symmetry c1  #important for SAPT in psi4, default
}

set PROPERTIES_ORIGIN ["COM"]
properties('MP2/aug-cc-pvtz', properties = ['dipole'])
--------------------------------------------------------------------------

    Molecular point group: c1
  Charge       = 0
  Multiplicity = 1
  Basis Set: AUG-CC-PVTZ
    Blend: AUG-CC-PVTZ
  Basis Set: (AUG-CC-PVTZ AUX)
    Blend: AUG-CC-PVTZ-JKFIT

    Orbital Energies [Eh]
    ---------------------

    Doubly Occupied:

       1A    -20.570172     2A    -20.568487     3A    -11.330840
       4A    -11.285725     5A    -11.284957     6A     -1.439473
       7A     -1.335094     8A     -1.031778     9A     -0.865897
      10A     -0.854322    11A     -0.717042    12A     -0.707103
      13A     -0.642885    14A     -0.596394    15A     -0.577618
      16A     -0.574343    17A     -0.519527    18A     -0.502775
      19A     -0.445814    20A     -0.422977

  @DF-RHF Final Energy:  -266.89510664142466

   => Energetics <=

    Nuclear Repulsion Energy =            194.4269290399179511
    One-Electron Energy =                -750.0976292731198782
    Two-Electron Energy =                 288.7755935917772945
    Total Energy =                       -266.8951066414246611
  Basis Set: (AUG-CC-PVTZ AUX)
    Blend: AUG-CC-PVTZ-RI
    Molecular point group: c1

    Geometry (in Angstrom), charge = 0, multiplicity = 1:

       Center              X                  Y                   Z               Mass
    ------------   -----------------  -----------------  -----------------  -----------------
         O           -0.343310130335     1.136546972917    -0.178741445764    15.994914619570
         O           -0.342767130335    -1.138705027083     0.179931554236    15.994914619570
         C            0.952689869665     0.733887172917     0.204082754236    12.000000000000
         C            0.971608869665    -0.729481027083    -0.207473445764    12.000000000000
         C           -1.177722130335    -0.001150027083     0.001153554236    12.000000000000
         H            1.114609869665     0.829150972917     1.293630554236     1.007825032230
         H            1.687202869665     1.358550972917    -0.320979445764     1.007825032230
         H            1.115892869665    -0.830352027083    -1.291495445764     1.007825032230
         H            1.687820869665    -1.359413027083     0.323447554236     1.007825032230
         H           -1.802602130335     0.094515972917     0.897537554236     1.007825032230
         H           -1.803740130335    -0.096973027083    -0.894391445764     1.007825032230

  Basis Set: AUG-CC-PVTZ
    Blend: AUG-CC-PVTZ
  Basis Set: (AUG-CC-PVTZ AUX)
    Blend: AUG-CC-PVTZ-JKFIT
	 Reference Energy          =    -266.8951066414246611 [Eh]
	 Singles Energy            =      -0.0000000000000000 [Eh]
	 Same-Spin Energy          =      -0.2551309054971368 [Eh]
	 Opposite-Spin Energy      =      -0.8244582332675465 [Eh]
	 Correlation Energy        =      -1.0795891387646832 [Eh]
	 Total Energy              =    -267.9746957801893359 [Eh]

	 ================> DF-SCS-MP2 Energies <==================
	-----------------------------------------------------------
	 SCS Same-Spin Scale       =       0.3333333333333333 [-]
	 SCS Opposite-Spin Scale   =       1.2000000000000000 [-]
	 SCS Same-Spin Energy      =      -0.0850436351657123 [Eh]
	 SCS Opposite-Spin Energy  =      -0.9893498799210558 [Eh]
	 SCS Correlation Energy    =      -1.0743935150867681 [Eh]
	 SCS Total Energy          =    -267.9695001565114012 [Eh]
	-----------------------------------------------------------

  Dipole Moment: [D]
     X:     1.1283      Y:     0.0057      Z:    -0.0201     Total:     1.1285

*** Psi4 exiting successfully. Buy a developer a beer!
