                               Psi4 1.4a3.dev225

  ==> Input File <==

--------------------------------------------------------------------------
#psi4
#
memory 32 gb

molecule  {
0 1
  O       -0.3708180     1.1374600    -0.1796520
  O       -0.3702750    -1.1377920     0.1790210
  C        0.9435640     0.7290890     0.2086020
  C        0.9441081    -0.7477967    -0.2138847
  C       -1.2052300    -0.0002370     0.0002430
  H        1.0871020     0.8300640     1.2927200
  H        1.6596950     1.3594640    -0.3218900
  H        1.0883850    -0.8294390    -1.2924060
  H        1.6603130    -1.3585000     0.3225370
  H       -1.8301100     0.0954290     0.8966270
  H       -1.8312480    -0.0960600    -0.8953020
units angstrom
no_reorient  #important for SAPT in psi4, default
symmetry c1  #important for SAPT in psi4, default
}

set PROPERTIES_ORIGIN ["COM"]
properties('MP2/aug-cc-pvtz', properties = ['dipole'])
--------------------------------------------------------------------------

    Molecular point group: c1
  Charge       = 0
  Multiplicity = 1
  Basis Set: AUG-CC-PVTZ
    Blend: AUG-CC-PVTZ
  Basis Set: (AUG-CC-PVTZ AUX)
    Blend: AUG-CC-PVTZ-JKFIT

    Orbital Energies [Eh]
    ---------------------

    Doubly Occupied:

       1A    -20.568386     2A    -20.568253     3A    -11.329992
       4A    -11.286052     5A    -11.285149     6A     -1.435142
       7A     -1.331639     8A     -1.030069     9A     -0.863673
      10A     -0.856247    11A     -0.715996    12A     -0.704101
      13A     -0.642899    14A     -0.596370    15A     -0.577095
      16A     -0.574819    17A     -0.516872    18A     -0.502365
      19A     -0.446612    20A     -0.422708

  @DF-RHF Final Energy:  -266.89494111850286

   => Energetics <=

    Nuclear Repulsion Energy =            193.9523085635057953
    One-Electron Energy =                -749.1856205699709790
    Two-Electron Energy =                 288.3383708879623555
    Total Energy =                       -266.8949411185028566
  Basis Set: (AUG-CC-PVTZ AUX)
    Blend: AUG-CC-PVTZ-RI
    Molecular point group: c1

    Geometry (in Angstrom), charge = 0, multiplicity = 1:

       Center              X                  Y                   Z               Mass
    ------------   -----------------  -----------------  -----------------  -----------------
         O           -0.346290665168     1.140589271925    -0.178729954179    15.994914619570
         O           -0.345747665168    -1.134662728075     0.179943045821    15.994914619570
         C            0.968091334832     0.732218271925     0.209524045821    12.000000000000
         C            0.968635434832    -0.744667428075    -0.212962654179    12.000000000000
         C           -1.180702665168     0.002892271925     0.001165045821    12.000000000000
         H            1.111629334832     0.833193271925     1.293642045821     1.007825032230
         H            1.684222334832     1.362593271925    -0.320967954179     1.007825032230
         H            1.112912334832    -0.826309728075    -1.291483954179     1.007825032230
         H            1.684840334832    -1.355370728075     0.323459045821     1.007825032230
         H           -1.805582665168     0.098558271925     0.897549045821     1.007825032230
         H           -1.806720665168    -0.092930728075    -0.894379954179     1.007825032230

  Basis Set: AUG-CC-PVTZ
    Blend: AUG-CC-PVTZ
  Basis Set: (AUG-CC-PVTZ AUX)
    Blend: AUG-CC-PVTZ-JKFIT
	 Reference Energy          =    -266.8949411185028566 [Eh]
	 Singles Energy            =      -0.0000000000000000 [Eh]
	 Same-Spin Energy          =      -0.2550565533349768 [Eh]
	 Opposite-Spin Energy      =      -0.8246258684242800 [Eh]
	 Correlation Energy        =      -1.0796824217592569 [Eh]
	 Total Energy              =    -267.9746235402620869 [Eh]

	 ================> DF-SCS-MP2 Energies <==================
	-----------------------------------------------------------
	 SCS Same-Spin Scale       =       0.3333333333333333 [-]
	 SCS Opposite-Spin Scale   =       1.2000000000000000 [-]
	 SCS Same-Spin Energy      =      -0.0850188511116589 [Eh]
	 SCS Opposite-Spin Energy  =      -0.9895510421091359 [Eh]
	 SCS Correlation Energy    =      -1.0745698932207948 [Eh]
	 SCS Total Energy          =    -267.9695110117236254 [Eh]
	-----------------------------------------------------------

  Dipole Moment: [D]
     X:     1.1822      Y:    -0.0180      Z:    -0.0049     Total:     1.1824

*** Psi4 exiting successfully. Buy a developer a beer!
