                               Psi4 1.3.2 release

  ==> Input File <==

--------------------------------------------------------------------------
#psi4
#
memory 32 gb

molecule  {
0 1
  O       -0.4532643     1.1922459    -0.1878486
  O       -0.3703240    -1.1378310     0.1786440
  C        0.9437350     0.7292120     0.2081230
  C        0.9442940    -0.7286720    -0.2079020
  C       -1.2056960    -0.0002420     0.0002480
  H        1.0881780     0.8312400     1.2920210
  H        1.6593840     1.3596400    -0.3231520
  H        1.0894950    -0.8305950    -1.2917000
  H        1.6600270    -1.3586360     0.3238180
  H       -1.8301230     0.0948300     0.8968380
  H       -1.8312890    -0.0954850    -0.8954820
units angstrom
no_reorient  #important for SAPT in psi4, default
symmetry c1  #important for SAPT in psi4, default
}

set PROPERTIES_ORIGIN ["COM"]
properties('MP2/aug-cc-pvtz', properties = ['dipole'])
--------------------------------------------------------------------------

    Molecular point group: c1
  Charge       = 0
  Multiplicity = 1
  Basis Set: AUG-CC-PVTZ
    Blend: AUG-CC-PVTZ
  Basis Set: (AUG-CC-PVTZ AUX)
    Blend: AUG-CC-PVTZ-JKFIT

    Orbital Energies [Eh]
    ---------------------

    Doubly Occupied:

       1A    -20.571023     2A    -20.570890     3A    -11.325416
       4A    -11.295352     5A    -11.291245     6A     -1.422716
       7A     -1.321726     8A     -1.032640     9A     -0.867278
      10A     -0.850260    11A     -0.711142    12A     -0.698179
      13A     -0.640238    14A     -0.591926    15A     -0.577474
      16A     -0.555182    17A     -0.519117    18A     -0.510172
      19A     -0.456080    20A     -0.419742

  @DF-RHF Final Energy:  -266.88483677274343

   => Energetics <=

    Nuclear Repulsion Energy =            192.0831099068783487
    One-Electron Energy =                -745.4802958595178097
    Two-Electron Energy =                 286.5123491798960345
    Total Energy =                       -266.8848367727434265
  Basis Set: (AUG-CC-PVTZ AUX)
    Blend: AUG-CC-PVTZ-RI
    Molecular point group: c1

    Geometry (in Angstrom), charge = 0, multiplicity = 1:

       Center              X                  Y                   Z               Mass
    ------------   -----------------  -----------------  -----------------  -----------------
         O           -0.410917882832     1.180428267408    -0.185967947463    15.994914619570
         O           -0.327977582832    -1.149648632592     0.180524652537    15.994914619570
         C            0.986081417168     0.717394367408     0.210003652537    12.000000000000
         C            0.986640417168    -0.740489632592    -0.206021347463    12.000000000000
         C           -1.163349582832    -0.012059632592     0.002128652537    12.000000000000
         H            1.130524417168     0.819422367408     1.293901652537     1.007825032230
         H            1.701730417168     1.347822367408    -0.321271347463     1.007825032230
         H            1.131841417168    -0.842412632592    -1.289819347463     1.007825032230
         H            1.702373417168    -1.370453632592     0.325698652537     1.007825032230
         H           -1.787776582832     0.083012367408     0.898718652537     1.007825032230
         H           -1.788942582832    -0.107302632592    -0.893601347463     1.007825032230

  Basis Set: AUG-CC-PVTZ
    Blend: AUG-CC-PVTZ
  Basis Set: (AUG-CC-PVTZ AUX)
    Blend: AUG-CC-PVTZ-JKFIT
	 Reference Energy          =    -266.8848367727434265 [Eh]
	 Singles Energy            =      -0.0000000000000000 [Eh]
	 Same-Spin Energy          =      -0.2558441753864987 [Eh]
	 Opposite-Spin Energy      =      -0.8277582841408488 [Eh]
	 Correlation Energy        =      -1.0836024595273477 [Eh]
	 Total Energy              =    -267.9684392322707822 [Eh]

	 ================> DF-SCS-MP2 Energies <==================
	-----------------------------------------------------------
	 SCS Same-Spin Scale       =       0.3333333333333333 [-]
	 SCS Opposite-Spin Scale   =       1.2000000000000000 [-]
	 SCS Same-Spin Energy      =      -0.0852813917954996 [Eh]
	 SCS Opposite-Spin Energy  =      -0.9933099409690186 [Eh]
	 SCS Correlation Energy    =      -1.0785913327645182 [Eh]
	 SCS Total Energy          =    -267.9634281055079441 [Eh]
	-----------------------------------------------------------

  Dipole Moment: [D]
     X:     1.5236      Y:    -0.1429      Z:     0.0581     Total:     1.5314

*** Psi4 exiting successfully. Buy a developer a beer!
