                               Psi4 1.3.2 release

  ==> Input File <==

--------------------------------------------------------------------------
#psi4
#
memory 32 gb

molecule  {
0 1
  O       -0.3708850     1.1374830    -0.1792890
  O       -0.3703240    -1.1378310     0.1786440
  C        0.9437350     0.7292120     0.2081230
  C        0.9442571    -0.6325107    -0.1804612
  C       -1.2056960    -0.0002420     0.0002480
  H        1.0881780     0.8312400     1.2920210
  H        1.6593840     1.3596400    -0.3231520
  H        1.0894950    -0.8305950    -1.2917000
  H        1.6600270    -1.3586360     0.3238180
  H       -1.8301230     0.0948300     0.8968380
  H       -1.8312890    -0.0954850    -0.8954820
units angstrom
no_reorient  #important for SAPT in psi4, default
symmetry c1  #important for SAPT in psi4, default
}

set PROPERTIES_ORIGIN ["COM"]
properties('MP2/aug-cc-pvtz', properties = ['dipole'])
--------------------------------------------------------------------------

    Molecular point group: c1
  Charge       = 0
  Multiplicity = 1
  Basis Set: AUG-CC-PVTZ
    Blend: AUG-CC-PVTZ
  Basis Set: (AUG-CC-PVTZ AUX)
    Blend: AUG-CC-PVTZ-JKFIT

    Orbital Energies [Eh]
    ---------------------

    Doubly Occupied:

       1A    -20.569741     2A    -20.568681     3A    -11.328657
       4A    -11.288885     5A    -11.283272     6A     -1.438080
       7A     -1.328385     8A     -1.050977     9A     -0.870821
      10A     -0.846432    11A     -0.718084    12A     -0.710835
      13A     -0.638213    14A     -0.596690    15A     -0.573132
      16A     -0.563599    17A     -0.520827    18A     -0.513162
      19A     -0.449379    20A     -0.420714

  @DF-RHF Final Energy:  -266.88217437759704

   => Energetics <=

    Nuclear Repulsion Energy =            195.1724359938982616
    One-Electron Energy =                -751.5520893655927921
    Two-Electron Energy =                 289.4974789940974915
    Total Energy =                       -266.8821743775970390
  Basis Set: (AUG-CC-PVTZ AUX)
    Blend: AUG-CC-PVTZ-RI
    Molecular point group: c1

    Geometry (in Angstrom), charge = 0, multiplicity = 1:

       Center              X                  Y                   Z               Mass
    ------------   -----------------  -----------------  -----------------  -----------------
         O           -0.346329835774     1.121910373035    -0.183705213355    15.994914619570
         O           -0.345768835774    -1.153403626965     0.174227786645    15.994914619570
         C            0.968290164226     0.713639373035     0.203706786645    12.000000000000
         C            0.968812264226    -0.648083326965    -0.184877413355    12.000000000000
         C           -1.181140835774    -0.015814626965    -0.004168213355    12.000000000000
         H            1.112733164226     0.815667373035     1.287604786645     1.007825032230
         H            1.683939164226     1.344067373035    -0.327568213355     1.007825032230
         H            1.114050164226    -0.846167626965    -1.296116213355     1.007825032230
         H            1.684582164226    -1.374208626965     0.319401786645     1.007825032230
         H           -1.805567835774     0.079257373035     0.892421786645     1.007825032230
         H           -1.806733835774    -0.111057626965    -0.899898213355     1.007825032230

  Basis Set: AUG-CC-PVTZ
    Blend: AUG-CC-PVTZ
  Basis Set: (AUG-CC-PVTZ AUX)
    Blend: AUG-CC-PVTZ-JKFIT
	 Reference Energy          =    -266.8821743775970390 [Eh]
	 Singles Energy            =      -0.0000000000000000 [Eh]
	 Same-Spin Energy          =      -0.2563186866067124 [Eh]
	 Opposite-Spin Energy      =      -0.8264118934409539 [Eh]
	 Correlation Energy        =      -1.0827305800476663 [Eh]
	 Total Energy              =    -267.9649049576447055 [Eh]

	 ================> DF-SCS-MP2 Energies <==================
	-----------------------------------------------------------
	 SCS Same-Spin Scale       =       0.3333333333333333 [-]
	 SCS Opposite-Spin Scale   =       1.2000000000000000 [-]
	 SCS Same-Spin Energy      =      -0.0854395622022375 [Eh]
	 SCS Opposite-Spin Energy  =      -0.9916942721291446 [Eh]
	 SCS Correlation Energy    =      -1.0771338343313821 [Eh]
	 SCS Total Energy          =    -267.9593082119284304 [Eh]
	-----------------------------------------------------------

  Dipole Moment: [D]
     X:     1.2287      Y:     0.1046      Z:     0.0345     Total:     1.2336

*** Psi4 exiting successfully. Buy a developer a beer!
