                               Psi4 1.3.2 release

  ==> Input File <==

--------------------------------------------------------------------------
#psi4
#
memory 32 gb

molecule  {
0 1
  O       -1.4171200    -1.3484060     0.0002970
  O        1.4171200    -1.3484050    -0.0003020
  N       -0.0000010     0.4846070    -0.0000160
  C       -2.4067620     0.8604000    -0.0000780
  C        2.4067630     0.8604010     0.0000710
  C       -1.2583960    -0.1386330     0.0000840
  C        1.2583960    -0.1386320    -0.0001000
  C       -3.7624040     0.1688250    -0.0000540
  C        3.7624040     0.1688230     0.0000890
  H       -2.3018130     1.5105900    -0.8783980
  H       -2.3018940     1.5107780     0.8781160
  H        2.3017980     1.5106070     0.8783770
  H        2.3019150     1.5107630    -0.8781370
  H       -0.0000010     1.4988170    -0.0000010
  H       -3.8704140    -0.4663380    -0.8807980
  H       -4.5662770     0.9094320    -0.0000700
  H       -3.8703980    -0.4662950     0.8807210
  H        4.5662780     0.9094290     0.0001070
  H        3.8703950    -0.4663230     0.8808470
  H        3.8704150    -0.4663140    -0.8806720
units angstrom
no_reorient  #important for SAPT in psi4, default
symmetry c1  #important for SAPT in psi4, default
}

set PROPERTIES_ORIGIN ["COM"]
properties('MP2/aug-cc-pvtz', properties = ['dipole'])
--------------------------------------------------------------------------

    Molecular point group: c1
  Charge       = 0
  Multiplicity = 1
  Basis Set: AUG-CC-PVTZ
    Blend: AUG-CC-PVTZ
  Basis Set: (AUG-CC-PVTZ AUX)
    Blend: AUG-CC-PVTZ-JKFIT

    Orbital Energies [Eh]
    ---------------------

    Doubly Occupied:

       1A    -20.538495     2A    -20.538493     3A    -15.615865
       4A    -11.368586     5A    -11.368570     6A    -11.255774
       7A    -11.255774     8A    -11.224385     9A    -11.224385
      10A     -1.403610    11A     -1.375908    12A     -1.245149
      13A     -1.072822    14A     -1.056518    15A     -0.938570
      16A     -0.881330    17A     -0.804712    18A     -0.777095
      19A     -0.707642    20A     -0.678521    21A     -0.659336
      22A     -0.640368    23A     -0.629147    24A     -0.607802
      25A     -0.578159    26A     -0.547516    27A     -0.532402
      28A     -0.527848    29A     -0.525441    30A     -0.524450
      31A     -0.504330    32A     -0.491695    33A     -0.462966
      34A     -0.423613    35A     -0.411127

  @DF-RHF Final Energy:  -437.98012890887111

   => Energetics <=

    Nuclear Repulsion Energy =            448.2098542914552013
    One-Electron Energy =               -1485.5831558857737491
    Two-Electron Energy =                 599.3931726854473254
    Total Energy =                       -437.9801289088711655
  Basis Set: (AUG-CC-PVTZ AUX)
    Blend: AUG-CC-PVTZ-RI
    Molecular point group: c1

    Geometry (in Angstrom), charge = 0, multiplicity = 1:

       Center              X                  Y                   Z               Mass
    ------------   -----------------  -----------------  -----------------  -----------------
         O           -1.417120015713    -1.290911973260     0.000297521416    15.994914619570
         O            1.417119984287    -1.290910973260    -0.000301478584    15.994914619570
         N           -0.000001015713     0.542101026740    -0.000015478584    14.003074004430
         C           -2.406762015713     0.917894026740    -0.000077478584    12.000000000000
         C            2.406762984287     0.917895026740     0.000071521416    12.000000000000
         C           -1.258396015713    -0.081138973260     0.000084521416    12.000000000000
         C            1.258395984287    -0.081137973260    -0.000099478584    12.000000000000
         C           -3.762404015713     0.226319026740    -0.000053478584    12.000000000000
         C            3.762403984287     0.226317026740     0.000089521416    12.000000000000
         H           -2.301813015713     1.568084026740    -0.878397478584     1.007825032230
         H           -2.301894015713     1.568272026740     0.878116521416     1.007825032230
         H            2.301797984287     1.568101026740     0.878377521416     1.007825032230
         H            2.301914984287     1.568257026740    -0.878136478584     1.007825032230
         H           -0.000001015713     1.556311026740    -0.000000478584     1.007825032230
         H           -3.870414015713    -0.408843973260    -0.880797478584     1.007825032230
         H           -4.566277015713     0.966926026740    -0.000069478584     1.007825032230
         H           -3.870398015713    -0.408800973260     0.880721521416     1.007825032230
         H            4.566277984287     0.966923026740     0.000107521416     1.007825032230
         H            3.870394984287    -0.408828973260     0.880847521416     1.007825032230
         H            3.870414984287    -0.408819973260    -0.880671478584     1.007825032230

  Basis Set: AUG-CC-PVTZ
    Blend: AUG-CC-PVTZ
  Basis Set: (AUG-CC-PVTZ AUX)
    Blend: AUG-CC-PVTZ-JKFIT
	 Reference Energy          =    -437.9801289088711087 [Eh]
	 Singles Energy            =      -0.0000000000000000 [Eh]
	 Same-Spin Energy          =      -0.4400809116266001 [Eh]
	 Opposite-Spin Energy      =      -1.4271317817920763 [Eh]
	 Correlation Energy        =      -1.8672126934186766 [Eh]
	 Total Energy              =    -439.8473416022897595 [Eh]

	 ================> DF-SCS-MP2 Energies <==================
	-----------------------------------------------------------
	 SCS Same-Spin Scale       =       0.3333333333333333 [-]
	 SCS Opposite-Spin Scale   =       1.2000000000000000 [-]
	 SCS Same-Spin Energy      =      -0.1466936372088667 [Eh]
	 SCS Opposite-Spin Energy  =      -1.7125581381504915 [Eh]
	 SCS Correlation Energy    =      -1.8592517753593583 [Eh]
	 SCS Total Energy          =    -439.8393806842304912 [Eh]
	-----------------------------------------------------------

  Dipole Moment: [D]
     X:     0.0000      Y:     5.7712      Z:     0.0000     Total:     5.7712

*** Psi4 exiting successfully. Buy a developer a beer!
