                               Psi4 1.3.2 release

  ==> Input File <==

--------------------------------------------------------------------------
#psi4
#
memory 32 gb

molecule  {
0 1
  O       -1.4171200    -1.3484060     0.0002970
  O        1.4171200    -1.3484050    -0.0003020
  N       -0.0000010     0.4846070    -0.0000160
  C       -2.4067620     0.8604000    -0.0000780
  C        2.4067630     0.8604010     0.0000710
  C       -1.2583960    -0.1386330     0.0000840
  C        1.2583960    -0.1386320    -0.0001000
  C       -3.7624040     0.1688250    -0.0000540
  C        3.7624040     0.1688230     0.0000890
  H       -2.3018130     1.5105900    -0.8783980
  H       -2.3018940     1.5107780     0.8781160
  H        2.3017980     1.5106070     0.8783770
  H        2.3019150     1.5107630    -0.8781370
  H        0.0000173     1.4988159     0.2499990
  H       -3.8704140    -0.4663380    -0.8807980
  H       -4.5662770     0.9094320    -0.0000700
  H       -3.8703980    -0.4662950     0.8807210
  H        4.5662780     0.9094290     0.0001070
  H        3.8703950    -0.4663230     0.8808470
  H        3.8704150    -0.4663140    -0.8806720
units angstrom
no_reorient  #important for SAPT in psi4, default
symmetry c1  #important for SAPT in psi4, default
}

set PROPERTIES_ORIGIN ["COM"]
properties('MP2/aug-cc-pvtz', properties = ['dipole'])
--------------------------------------------------------------------------

    Molecular point group: c1
  Charge       = 0
  Multiplicity = 1
  Basis Set: AUG-CC-PVTZ
    Blend: AUG-CC-PVTZ
  Basis Set: (AUG-CC-PVTZ AUX)
    Blend: AUG-CC-PVTZ-JKFIT

    Orbital Energies [Eh]
    ---------------------

    Doubly Occupied:

       1A    -20.539039     2A    -20.539035     3A    -15.617689
       4A    -11.368347     5A    -11.368331     6A    -11.255541
       7A    -11.255541     8A    -11.224228     9A    -11.224227
      10A     -1.403630    11A     -1.376229    12A     -1.241526
      13A     -1.072572    14A     -1.056263    15A     -0.938291
      16A     -0.881109    17A     -0.804482    18A     -0.767579
      19A     -0.707081    20A     -0.678513    21A     -0.659272
      22A     -0.640216    23A     -0.629328    24A     -0.607125
      25A     -0.576767    26A     -0.546938    27A     -0.532335
      28A     -0.527640    29A     -0.525318    30A     -0.524385
      31A     -0.504176    32A     -0.491678    33A     -0.463064
      34A     -0.423871    35A     -0.411316

  @DF-RHF Final Energy:  -437.97695904843124

   => Energetics <=

    Nuclear Repulsion Energy =            448.0536090626385999
    One-Electron Energy =               -1485.2957743850004135
    Two-Electron Energy =                 599.2652062739306302
    Total Energy =                       -437.9769590484312403
  Basis Set: (AUG-CC-PVTZ AUX)
    Blend: AUG-CC-PVTZ-RI
    Molecular point group: c1

    Geometry (in Angstrom), charge = 0, multiplicity = 1:

       Center              X                  Y                   Z               Mass
    ------------   -----------------  -----------------  -----------------  -----------------
         O           -1.417120158596    -1.290911964672    -0.001654432812    15.994914619570
         O            1.417119841404    -1.290910964672    -0.002253432812    15.994914619570
         N           -0.000001158596     0.542101035328    -0.001967432812    14.003074004430
         C           -2.406762158596     0.917894035328    -0.002029432812    12.000000000000
         C            2.406762841404     0.917895035328    -0.001880432812    12.000000000000
         C           -1.258396158596    -0.081138964672    -0.001867432812    12.000000000000
         C            1.258395841404    -0.081137964672    -0.002051432812    12.000000000000
         C           -3.762404158596     0.226319035328    -0.002005432812    12.000000000000
         C            3.762403841404     0.226317035328    -0.001862432812    12.000000000000
         H           -2.301813158596     1.568084035328    -0.880349432812     1.007825032230
         H           -2.301894158596     1.568272035328     0.876164567188     1.007825032230
         H            2.301797841404     1.568101035328     0.876425567188     1.007825032230
         H            2.301914841404     1.568257035328    -0.880088432812     1.007825032230
         H            0.000017141404     1.556309935328     0.248047567188     1.007825032230
         H           -3.870414158596    -0.408843964672    -0.882749432812     1.007825032230
         H           -4.566277158596     0.966926035328    -0.002021432812     1.007825032230
         H           -3.870398158596    -0.408800964672     0.878769567188     1.007825032230
         H            4.566277841404     0.966923035328    -0.001844432812     1.007825032230
         H            3.870394841404    -0.408828964672     0.878895567188     1.007825032230
         H            3.870414841404    -0.408819964672    -0.882623432812     1.007825032230

  Basis Set: AUG-CC-PVTZ
    Blend: AUG-CC-PVTZ
  Basis Set: (AUG-CC-PVTZ AUX)
    Blend: AUG-CC-PVTZ-JKFIT
	 Reference Energy          =    -437.9769590484312403 [Eh]
	 Singles Energy            =      -0.0000000000000000 [Eh]
	 Same-Spin Energy          =      -0.4402806337298099 [Eh]
	 Opposite-Spin Energy      =      -1.4277625950631025 [Eh]
	 Correlation Energy        =      -1.8680432287929125 [Eh]
	 Total Energy              =    -439.8450022772241255 [Eh]

	 ================> DF-SCS-MP2 Energies <==================
	-----------------------------------------------------------
	 SCS Same-Spin Scale       =       0.3333333333333333 [-]
	 SCS Opposite-Spin Scale   =       1.2000000000000000 [-]
	 SCS Same-Spin Energy      =      -0.1467602112432700 [Eh]
	 SCS Opposite-Spin Energy  =      -1.7133151140757230 [Eh]
	 SCS Correlation Energy    =      -1.8600753253189930 [Eh]
	 SCS Total Energy          =    -439.8370343737502139 [Eh]
	-----------------------------------------------------------

  Dipole Moment: [D]
     X:    -0.0000      Y:     5.7320      Z:     0.2925     Total:     5.7395

*** Psi4 exiting successfully. Buy a developer a beer!
