                               Psi4 1.3.2 release

  ==> Input File <==

--------------------------------------------------------------------------
#psi4
#
memory 32 gb

molecule  {
0 1
  O       -1.4171200    -1.3484060     0.0002970
  O        1.4171200    -1.3484050    -0.0003020
  N       -0.0000010     0.4846070    -0.0000160
  C       -2.4067620     0.8604085     0.0499220
  C        2.4067630     0.8604010     0.0000710
  C       -1.2583960    -0.1386330     0.0000840
  C        1.2583960    -0.1386320    -0.0001000
  C       -3.7624040     0.1688250    -0.0000540
  C        3.7624040     0.1688230     0.0000890
  H       -2.3018130     1.5105900    -0.8783980
  H       -2.3018940     1.5107780     0.8781160
  H        2.3017980     1.5106070     0.8783770
  H        2.3019150     1.5107630    -0.8781370
  H       -0.0000010     1.4988170    -0.0000010
  H       -3.8704140    -0.4663380    -0.8807980
  H       -4.5662770     0.9094320    -0.0000700
  H       -3.8703980    -0.4662950     0.8807210
  H        4.5662780     0.9094290     0.0001070
  H        3.8703950    -0.4663230     0.8808470
  H        3.8704150    -0.4663140    -0.8806720
units angstrom
no_reorient  #important for SAPT in psi4, default
symmetry c1  #important for SAPT in psi4, default
}

set PROPERTIES_ORIGIN ["COM"]
properties('MP2/aug-cc-pvtz', properties = ['dipole'])
--------------------------------------------------------------------------

    Molecular point group: c1
  Charge       = 0
  Multiplicity = 1
  Basis Set: AUG-CC-PVTZ
    Blend: AUG-CC-PVTZ
  Basis Set: (AUG-CC-PVTZ AUX)
    Blend: AUG-CC-PVTZ-JKFIT

    Orbital Energies [Eh]
    ---------------------

    Doubly Occupied:

       1A    -20.538563     2A    -20.538491     3A    -15.615866
       4A    -11.368794     5A    -11.368577     6A    -11.256073
       7A    -11.255771     8A    -11.224604     9A    -11.224383
      10A     -1.403635    11A     -1.375938    12A     -1.245151
      13A     -1.072836    14A     -1.056542    15A     -0.938553
      16A     -0.881487    17A     -0.805174    18A     -0.777104
      19A     -0.708489    20A     -0.679112    21A     -0.658814
      22A     -0.640091    23A     -0.628934    24A     -0.607848
      25A     -0.578099    26A     -0.547913    27A     -0.533152
      28A     -0.530097    29A     -0.526696    30A     -0.522377
      31A     -0.502378    32A     -0.490731    33A     -0.462650
      34A     -0.423644    35A     -0.411090

  @DF-RHF Final Energy:  -437.97752307719333

   => Energetics <=

    Nuclear Repulsion Energy =            448.1954161434965158
    One-Electron Energy =               -1485.5465630374167176
    Two-Electron Energy =                 599.3736238167268766
    Total Energy =                       -437.9775230771933821
  Basis Set: (AUG-CC-PVTZ AUX)
    Blend: AUG-CC-PVTZ-RI
    Molecular point group: c1

    Geometry (in Angstrom), charge = 0, multiplicity = 1:

       Center              X                  Y                   Z               Mass
    ------------   -----------------  -----------------  -----------------  -----------------
         O           -1.417120015713    -1.290912763474    -0.004350795502    15.994914619570
         O            1.417119984287    -1.290911763474    -0.004949795502    15.994914619570
         N           -0.000001015713     0.542100236526    -0.004663795502    14.003074004430
         C           -2.406762015713     0.917901736526     0.045274204498    12.000000000000
         C            2.406762984287     0.917894236526    -0.004576795502    12.000000000000
         C           -1.258396015713    -0.081139763474    -0.004563795502    12.000000000000
         C            1.258395984287    -0.081138763474    -0.004747795502    12.000000000000
         C           -3.762404015713     0.226318236526    -0.004701795502    12.000000000000
         C            3.762403984287     0.226316236526    -0.004558795502    12.000000000000
         H           -2.301813015713     1.568083236526    -0.883045795502     1.007825032230
         H           -2.301894015713     1.568271236526     0.873468204498     1.007825032230
         H            2.301797984287     1.568100236526     0.873729204498     1.007825032230
         H            2.301914984287     1.568256236526    -0.882784795502     1.007825032230
         H           -0.000001015713     1.556310236526    -0.004648795502     1.007825032230
         H           -3.870414015713    -0.408844763474    -0.885445795502     1.007825032230
         H           -4.566277015713     0.966925236526    -0.004717795502     1.007825032230
         H           -3.870398015713    -0.408801763474     0.876073204498     1.007825032230
         H            4.566277984287     0.966922236526    -0.004540795502     1.007825032230
         H            3.870394984287    -0.408829763474     0.876199204498     1.007825032230
         H            3.870414984287    -0.408820763474    -0.885319795502     1.007825032230

  Basis Set: AUG-CC-PVTZ
    Blend: AUG-CC-PVTZ
  Basis Set: (AUG-CC-PVTZ AUX)
    Blend: AUG-CC-PVTZ-JKFIT
	 Reference Energy          =    -437.9775230771933252 [Eh]
	 Singles Energy            =      -0.0000000000000000 [Eh]
	 Same-Spin Energy          =      -0.4401137885048590 [Eh]
	 Opposite-Spin Energy      =      -1.4272525997070125 [Eh]
	 Correlation Energy        =      -1.8673663882118714 [Eh]
	 Total Energy              =    -439.8448894654051742 [Eh]

	 ================> DF-SCS-MP2 Energies <==================
	-----------------------------------------------------------
	 SCS Same-Spin Scale       =       0.3333333333333333 [-]
	 SCS Opposite-Spin Scale   =       1.2000000000000000 [-]
	 SCS Same-Spin Energy      =      -0.1467045961682863 [Eh]
	 SCS Opposite-Spin Energy  =      -1.7127031196484148 [Eh]
	 SCS Correlation Energy    =      -1.8594077158167011 [Eh]
	 SCS Total Energy          =    -439.8369307930100263 [Eh]
	-----------------------------------------------------------

  Dipole Moment: [D]
     X:    -0.0015      Y:     5.7671      Z:     0.0290     Total:     5.7672

*** Psi4 exiting successfully. Buy a developer a beer!
