                               Psi4 1.3.2 release

  ==> Input File <==

--------------------------------------------------------------------------
#psi4
#
memory 32 gb

molecule  {
0 1
  O       -1.4171200    -1.3484060     0.0002970
  O        1.4171200    -1.3484050    -0.0003020
  N       -0.0000010     0.4846070    -0.0000160
  C       -2.4067619     0.8604170     0.0999220
  C        2.4067630     0.8604010     0.0000710
  C       -1.2583960    -0.1386330     0.0000840
  C        1.2583960    -0.1386320    -0.0001000
  C       -3.7624040     0.1688250    -0.0000540
  C        3.7624040     0.1688230     0.0000890
  H       -2.3018130     1.5105900    -0.8783980
  H       -2.3018940     1.5107780     0.8781160
  H        2.3017980     1.5106070     0.8783770
  H        2.3019150     1.5107630    -0.8781370
  H       -0.0000010     1.4988170    -0.0000010
  H       -3.8704140    -0.4663380    -0.8807980
  H       -4.5662770     0.9094320    -0.0000700
  H       -3.8703980    -0.4662950     0.8807210
  H        4.5662780     0.9094290     0.0001070
  H        3.8703950    -0.4663230     0.8808470
  H        3.8704150    -0.4663140    -0.8806720
units angstrom
no_reorient  #important for SAPT in psi4, default
symmetry c1  #important for SAPT in psi4, default
}

set PROPERTIES_ORIGIN ["COM"]
properties('MP2/aug-cc-pvtz', properties = ['dipole'])
--------------------------------------------------------------------------

    Molecular point group: c1
  Charge       = 0
  Multiplicity = 1
  Basis Set: AUG-CC-PVTZ
    Blend: AUG-CC-PVTZ
  Basis Set: (AUG-CC-PVTZ AUX)
    Blend: AUG-CC-PVTZ-JKFIT

    Orbital Energies [Eh]
    ---------------------

    Doubly Occupied:

       1A    -20.538772     2A    -20.538481     3A    -15.615869
       4A    -11.369439     5A    -11.368574     6A    -11.256970
       7A    -11.255764     8A    -11.225258     9A    -11.224377
      10A     -1.403708    11A     -1.376026    12A     -1.245158
      13A     -1.072882    14A     -1.056618    15A     -0.938504
      16A     -0.881973    17A     -0.806564    18A     -0.777131
      19A     -0.710938    20A     -0.680466    21A     -0.657623
      22A     -0.639360    23A     -0.628249    24A     -0.607985
      25A     -0.577932    26A     -0.549517    27A     -0.537035
      28A     -0.531590    29A     -0.526828    30A     -0.521055
      31A     -0.499306    32A     -0.487170    33A     -0.461541
      34A     -0.423739    35A     -0.410975

  @DF-RHF Final Energy:  -437.96967946896564

   => Energetics <=

    Nuclear Repulsion Energy =            448.1522423501783692
    One-Electron Energy =               -1485.4370903607593846
    Two-Electron Energy =                 599.3151685416154351
    Total Energy =                       -437.9696794689656372
  Basis Set: (AUG-CC-PVTZ AUX)
    Blend: AUG-CC-PVTZ-RI
    Molecular point group: c1

    Geometry (in Angstrom), charge = 0, multiplicity = 1:

       Center              X                  Y                   Z               Mass
    ------------   -----------------  -----------------  -----------------  -----------------
         O           -1.417120025010    -1.290913553688    -0.008999112420    15.994914619570
         O            1.417119974990    -1.290912553688    -0.009598112420    15.994914619570
         N           -0.000001025010     0.542099446312    -0.009312112420    14.003074004430
         C           -2.406761925010     0.917909446312     0.090625887580    12.000000000000
         C            2.406762974990     0.917893446312    -0.009225112420    12.000000000000
         C           -1.258396025010    -0.081140553688    -0.009212112420    12.000000000000
         C            1.258395974990    -0.081139553688    -0.009396112420    12.000000000000
         C           -3.762404025010     0.226317446312    -0.009350112420    12.000000000000
         C            3.762403974990     0.226315446312    -0.009207112420    12.000000000000
         H           -2.301813025010     1.568082446312    -0.887694112420     1.007825032230
         H           -2.301894025010     1.568270446312     0.868819887580     1.007825032230
         H            2.301797974990     1.568099446312     0.869080887580     1.007825032230
         H            2.301914974990     1.568255446312    -0.887433112420     1.007825032230
         H           -0.000001025010     1.556309446312    -0.009297112420     1.007825032230
         H           -3.870414025010    -0.408845553688    -0.890094112420     1.007825032230
         H           -4.566277025010     0.966924446312    -0.009366112420     1.007825032230
         H           -3.870398025010    -0.408802553688     0.871424887580     1.007825032230
         H            4.566277974990     0.966921446312    -0.009189112420     1.007825032230
         H            3.870394974990    -0.408830553688     0.871550887580     1.007825032230
         H            3.870414974990    -0.408821553688    -0.889968112420     1.007825032230

  Basis Set: AUG-CC-PVTZ
    Blend: AUG-CC-PVTZ
  Basis Set: (AUG-CC-PVTZ AUX)
    Blend: AUG-CC-PVTZ-JKFIT
	 Reference Energy          =    -437.9696794689656372 [Eh]
	 Singles Energy            =      -0.0000000000000000 [Eh]
	 Same-Spin Energy          =      -0.4402130221689109 [Eh]
	 Opposite-Spin Energy      =      -1.4276191515973142 [Eh]
	 Correlation Energy        =      -1.8678321737662251 [Eh]
	 Total Energy              =    -439.8375116427318403 [Eh]

	 ================> DF-SCS-MP2 Energies <==================
	-----------------------------------------------------------
	 SCS Same-Spin Scale       =       0.3333333333333333 [-]
	 SCS Opposite-Spin Scale   =       1.2000000000000000 [-]
	 SCS Same-Spin Energy      =      -0.1467376740563036 [Eh]
	 SCS Opposite-Spin Energy  =      -1.7131429819167769 [Eh]
	 SCS Correlation Energy    =      -1.8598806559730805 [Eh]
	 SCS Total Energy          =    -439.8295601249387232 [Eh]
	-----------------------------------------------------------

  Dipole Moment: [D]
     X:    -0.0061      Y:     5.7549      Z:     0.0578     Total:     5.7552

*** Psi4 exiting successfully. Buy a developer a beer!
