                               Psi4 1.3.2 release

  ==> Input File <==

--------------------------------------------------------------------------
#psi4
#
memory 32 gb

molecule  {
0 1
  O       -1.4171200    -1.3484060     0.0002970
  O        1.4171200    -1.3484050    -0.0003020
  N       -0.0000010     0.4846070    -0.0000160
  C       -2.4067620     0.8604000    -0.0000780
  C        2.4067630     0.8604010     0.0000710
  C       -1.2583960    -0.1386330     0.0000840
  C        1.2583960    -0.1386320    -0.0001000
  C       -3.7624040     0.1688250    -0.0000540
  C        3.7624040     0.1688230     0.0000890
  H       -2.3018130     1.5105900    -0.8783980
  H       -2.3018940     1.5107780     0.8781160
  H        2.3017980     1.5106070     0.8783770
  H        2.3019150     1.5107630    -0.8781370
  H        0.0000209     1.4988157     0.2999990
  H       -3.8704140    -0.4663380    -0.8807980
  H       -4.5662770     0.9094320    -0.0000700
  H       -3.8703980    -0.4662950     0.8807210
  H        4.5662780     0.9094290     0.0001070
  H        3.8703950    -0.4663230     0.8808470
  H        3.8704150    -0.4663140    -0.8806720
units angstrom
no_reorient  #important for SAPT in psi4, default
symmetry c1  #important for SAPT in psi4, default
}

set PROPERTIES_ORIGIN ["COM"]
properties('MP2/aug-cc-pvtz', properties = ['dipole'])
--------------------------------------------------------------------------

    Molecular point group: c1
  Charge       = 0
  Multiplicity = 1
  Basis Set: AUG-CC-PVTZ
    Blend: AUG-CC-PVTZ
  Basis Set: (AUG-CC-PVTZ AUX)
    Blend: AUG-CC-PVTZ-JKFIT

    Orbital Energies [Eh]
    ---------------------

    Doubly Occupied:

       1A    -20.539267     2A    -20.539263     3A    -15.618454
       4A    -11.368253     5A    -11.368237     6A    -11.255441
       7A    -11.255440     8A    -11.224160     9A    -11.224160
      10A     -1.403646    11A     -1.376365    12A     -1.240061
      13A     -1.072465    14A     -1.056156    15A     -0.938174
      16A     -0.881016    17A     -0.804388    18A     -0.763699
      19A     -0.706796    20A     -0.678511    21A     -0.659249
      22A     -0.640150    23A     -0.629404    24A     -0.606766
      25A     -0.576200    26A     -0.546678    27A     -0.532307
      28A     -0.527547    29A     -0.525267    30A     -0.524353
      31A     -0.504109    32A     -0.491671    33A     -0.463094
      34A     -0.423983    35A     -0.411397

  @DF-RHF Final Energy:  -437.97523260734295

   => Energetics <=

    Nuclear Repulsion Energy =            447.9879487425644129
    One-Electron Energy =               -1485.1741089169140650
    Two-Electron Energy =                 599.2109275670067063
    Total Energy =                       -437.9752326073429458
  Basis Set: (AUG-CC-PVTZ AUX)
    Blend: AUG-CC-PVTZ-RI
    Molecular point group: c1

    Geometry (in Angstrom), charge = 0, multiplicity = 1:

       Center              X                  Y                   Z               Mass
    ------------   -----------------  -----------------  -----------------  -----------------
         O           -1.417120186704    -1.290911963110    -0.002044823658    15.994914619570
         O            1.417119813296    -1.290910963110    -0.002643823658    15.994914619570
         N           -0.000001186704     0.542101036890    -0.002357823658    14.003074004430
         C           -2.406762186704     0.917894036890    -0.002419823658    12.000000000000
         C            2.406762813296     0.917895036890    -0.002270823658    12.000000000000
         C           -1.258396186704    -0.081138963110    -0.002257823658    12.000000000000
         C            1.258395813296    -0.081137963110    -0.002441823658    12.000000000000
         C           -3.762404186704     0.226319036890    -0.002395823658    12.000000000000
         C            3.762403813296     0.226317036890    -0.002252823658    12.000000000000
         H           -2.301813186704     1.568084036890    -0.880739823658     1.007825032230
         H           -2.301894186704     1.568272036890     0.875774176342     1.007825032230
         H            2.301797813296     1.568101036890     0.876035176342     1.007825032230
         H            2.301914813296     1.568257036890    -0.880478823658     1.007825032230
         H            0.000020713296     1.556309736890     0.297657176342     1.007825032230
         H           -3.870414186704    -0.408843963110    -0.883139823658     1.007825032230
         H           -4.566277186704     0.966926036890    -0.002411823658     1.007825032230
         H           -3.870398186704    -0.408800963110     0.878379176342     1.007825032230
         H            4.566277813296     0.966923036890    -0.002234823658     1.007825032230
         H            3.870394813296    -0.408828963110     0.878505176342     1.007825032230
         H            3.870414813296    -0.408819963110    -0.883013823658     1.007825032230

  Basis Set: AUG-CC-PVTZ
    Blend: AUG-CC-PVTZ
  Basis Set: (AUG-CC-PVTZ AUX)
    Blend: AUG-CC-PVTZ-JKFIT
	 Reference Energy          =    -437.9752326073429458 [Eh]
	 Singles Energy            =      -0.0000000000000000 [Eh]
	 Same-Spin Energy          =      -0.4403674922018235 [Eh]
	 Opposite-Spin Energy      =      -1.4280401347758103 [Eh]
	 Correlation Energy        =      -1.8684076269776337 [Eh]
	 Total Energy              =    -439.8436402343205600 [Eh]

	 ================> DF-SCS-MP2 Energies <==================
	-----------------------------------------------------------
	 SCS Same-Spin Scale       =       0.3333333333333333 [-]
	 SCS Opposite-Spin Scale   =       1.2000000000000000 [-]
	 SCS Same-Spin Energy      =      -0.1467891640672745 [Eh]
	 SCS Opposite-Spin Energy  =      -1.7136481617309722 [Eh]
	 SCS Correlation Energy    =      -1.8604373257982467 [Eh]
	 SCS Total Energy          =    -439.8356699331412187 [Eh]
	-----------------------------------------------------------

  Dipole Moment: [D]
     X:    -0.0000      Y:     5.7156      Z:     0.3491     Total:     5.7262

*** Psi4 exiting successfully. Buy a developer a beer!
