                               Psi4 1.3.2 release

  ==> Input File <==

--------------------------------------------------------------------------
#psi4
#
memory 32 gb

molecule  {
0 1
  O       -1.4171200    -1.3484060     0.0002970
  O        1.4171200    -1.3484050    -0.0003020
  N       -0.0000010     0.4846070    -0.0000160
  C       -2.4067619     0.8604255     0.1499220
  C        2.4067630     0.8604010     0.0000710
  C       -1.2583960    -0.1386330     0.0000840
  C        1.2583960    -0.1386320    -0.0001000
  C       -3.7624040     0.1688250    -0.0000540
  C        3.7624040     0.1688230     0.0000890
  H       -2.3018130     1.5105900    -0.8783980
  H       -2.3018940     1.5107780     0.8781160
  H        2.3017980     1.5106070     0.8783770
  H        2.3019150     1.5107630    -0.8781370
  H       -0.0000010     1.4988170    -0.0000010
  H       -3.8704140    -0.4663380    -0.8807980
  H       -4.5662770     0.9094320    -0.0000700
  H       -3.8703980    -0.4662950     0.8807210
  H        4.5662780     0.9094290     0.0001070
  H        3.8703950    -0.4663230     0.8808470
  H        3.8704150    -0.4663140    -0.8806720
units angstrom
no_reorient  #important for SAPT in psi4, default
symmetry c1  #important for SAPT in psi4, default
}

set PROPERTIES_ORIGIN ["COM"]
properties('MP2/aug-cc-pvtz', properties = ['dipole'])
--------------------------------------------------------------------------

    Molecular point group: c1
  Charge       = 0
  Multiplicity = 1
  Basis Set: AUG-CC-PVTZ
    Blend: AUG-CC-PVTZ
  Basis Set: (AUG-CC-PVTZ AUX)
    Blend: AUG-CC-PVTZ-JKFIT

    Orbital Energies [Eh]
    ---------------------

    Doubly Occupied:

       1A    -20.539117     2A    -20.538464     3A    -15.615875
       4A    -11.370505     5A    -11.368571     6A    -11.258463
       7A    -11.255751     8A    -11.226335     9A    -11.224368
      10A     -1.403829    11A     -1.376170    12A     -1.245168
      13A     -1.072965    14A     -1.056750    15A     -0.938428
      16A     -0.882841    17A     -0.808881    18A     -0.777172
      19A     -0.714664    20A     -0.681900    21A     -0.656367
      22A     -0.638454    23A     -0.626995    24A     -0.608209
      25A     -0.577711    26A     -0.553244    27A     -0.540392
      28A     -0.531989    29A     -0.526844    30A     -0.520100
      31A     -0.497694    32A     -0.481474    33A     -0.459085
      34A     -0.423891    35A     -0.410774

  @DF-RHF Final Energy:  -437.95652663315826

   => Energetics <=

    Nuclear Repulsion Energy =            448.0805571447496618
    One-Electron Energy =               -1485.2552854573893910
    Two-Electron Energy =                 599.2182016794814672
    Total Energy =                       -437.9565266331582052
  Basis Set: (AUG-CC-PVTZ AUX)
    Blend: AUG-CC-PVTZ-RI
    Molecular point group: c1

    Geometry (in Angstrom), charge = 0, multiplicity = 1:

       Center              X                  Y                   Z               Mass
    ------------   -----------------  -----------------  -----------------  -----------------
         O           -1.417120025010    -1.290914343902    -0.013647429338    15.994914619570
         O            1.417119974990    -1.290913343902    -0.014246429338    15.994914619570
         N           -0.000001025010     0.542098656098    -0.013960429338    14.003074004430
         C           -2.406761925010     0.917917156098     0.135977570662    12.000000000000
         C            2.406762974990     0.917892656098    -0.013873429338    12.000000000000
         C           -1.258396025010    -0.081141343902    -0.013860429338    12.000000000000
         C            1.258395974990    -0.081140343902    -0.014044429338    12.000000000000
         C           -3.762404025010     0.226316656098    -0.013998429338    12.000000000000
         C            3.762403974990     0.226314656098    -0.013855429338    12.000000000000
         H           -2.301813025010     1.568081656098    -0.892342429338     1.007825032230
         H           -2.301894025010     1.568269656098     0.864171570662     1.007825032230
         H            2.301797974990     1.568098656098     0.864432570662     1.007825032230
         H            2.301914974990     1.568254656098    -0.892081429338     1.007825032230
         H           -0.000001025010     1.556308656098    -0.013945429338     1.007825032230
         H           -3.870414025010    -0.408846343902    -0.894742429338     1.007825032230
         H           -4.566277025010     0.966923656098    -0.014014429338     1.007825032230
         H           -3.870398025010    -0.408803343902     0.866776570662     1.007825032230
         H            4.566277974990     0.966920656098    -0.013837429338     1.007825032230
         H            3.870394974990    -0.408831343902     0.866902570662     1.007825032230
         H            3.870414974990    -0.408822343902    -0.894616429338     1.007825032230

  Basis Set: AUG-CC-PVTZ
    Blend: AUG-CC-PVTZ
  Basis Set: (AUG-CC-PVTZ AUX)
    Blend: AUG-CC-PVTZ-JKFIT
	 Reference Energy          =    -437.9565266331582620 [Eh]
	 Singles Energy            =      -0.0000000000000000 [Eh]
	 Same-Spin Energy          =      -0.4403800268010233 [Eh]
	 Opposite-Spin Energy      =      -1.4282411731739073 [Eh]
	 Correlation Energy        =      -1.8686211999749305 [Eh]
	 Total Energy              =    -439.8251478331332009 [Eh]

	 ================> DF-SCS-MP2 Energies <==================
	-----------------------------------------------------------
	 SCS Same-Spin Scale       =       0.3333333333333333 [-]
	 SCS Opposite-Spin Scale   =       1.2000000000000000 [-]
	 SCS Same-Spin Energy      =      -0.1467933422670077 [Eh]
	 SCS Opposite-Spin Energy  =      -1.7138894078086888 [Eh]
	 SCS Correlation Energy    =      -1.8606827500756966 [Eh]
	 SCS Total Energy          =    -439.8172093832339442 [Eh]
	-----------------------------------------------------------

  Dipole Moment: [D]
     X:    -0.0136      Y:     5.7351      Z:     0.0860     Total:     5.7358

*** Psi4 exiting successfully. Buy a developer a beer!
