                               Psi4 1.3.2 release

  ==> Input File <==

--------------------------------------------------------------------------
#psi4
#
memory 32 gb

molecule  {
0 1
  O       -1.4171200    -1.3484060     0.0002970
  O        1.4171200    -1.3484050    -0.0003020
  N       -0.0000010     0.4846070    -0.0000160
  C       -2.4067620     0.8604000    -0.0000780
  C        2.4067630     0.8604010     0.0000710
  C       -1.2583960    -0.1386330     0.0000840
  C        1.2583960    -0.1386320    -0.0001000
  C       -3.7624040     0.1688250    -0.0000540
  C        3.7624040     0.1688230     0.0000890
  H       -2.3018130     1.5105900    -0.8783980
  H       -2.3018940     1.5107780     0.8781160
  H        2.3017980     1.5106070     0.8783770
  H        2.3019150     1.5107630    -0.8781370
  H        0.0000136     1.4988161     0.1999990
  H       -3.8704140    -0.4663380    -0.8807980
  H       -4.5662770     0.9094320    -0.0000700
  H       -3.8703980    -0.4662950     0.8807210
  H        4.5662780     0.9094290     0.0001070
  H        3.8703950    -0.4663230     0.8808470
  H        3.8704150    -0.4663140    -0.8806720
units angstrom
no_reorient  #important for SAPT in psi4, default
symmetry c1  #important for SAPT in psi4, default
}

set PROPERTIES_ORIGIN ["COM"]
properties('MP2/aug-cc-pvtz', properties = ['dipole'])
--------------------------------------------------------------------------

    Molecular point group: c1
  Charge       = 0
  Multiplicity = 1
  Basis Set: AUG-CC-PVTZ
    Blend: AUG-CC-PVTZ
  Basis Set: (AUG-CC-PVTZ AUX)
    Blend: AUG-CC-PVTZ-JKFIT

    Orbital Energies [Eh]
    ---------------------

    Doubly Occupied:

       1A    -20.538847     2A    -20.538844     3A    -15.617045
       4A    -11.368428     5A    -11.368412     6A    -11.255625
       7A    -11.255624     8A    -11.224284     9A    -11.224283
      10A     -1.403621    11A     -1.376115    12A     -1.242781
      13A     -1.072661    14A     -1.056353    15A     -0.938389
      16A     -0.881186    17A     -0.804562    18A     -0.770892
      19A     -0.707297    20A     -0.678516    21A     -0.659292
      22A     -0.640270    23A     -0.629265    24A     -0.607392
      25A     -0.577251    26A     -0.547148    27A     -0.532359
      28A     -0.527716    29A     -0.525361    30A     -0.524409
      31A     -0.504231    32A     -0.491684    33A     -0.463034
      34A     -0.423779    35A     -0.411249

  @DF-RHF Final Energy:  -437.97823104350846

   => Energetics <=

    Nuclear Repulsion Energy =            448.1086931339822854
    One-Electron Energy =               -1485.3974381904640722
    Two-Electron Energy =                 599.3105140129732717
    Total Energy =                       -437.9782310435084582
  Basis Set: (AUG-CC-PVTZ AUX)
    Blend: AUG-CC-PVTZ-RI
    Molecular point group: c1

    Geometry (in Angstrom), charge = 0, multiplicity = 1:

       Center              X                  Y                   Z               Mass
    ------------   -----------------  -----------------  -----------------  -----------------
         O           -1.417120129707    -1.290911966233    -0.001264041967    15.994914619570
         O            1.417119870293    -1.290910966233    -0.001863041967    15.994914619570
         N           -0.000001129707     0.542101033767    -0.001577041967    14.003074004430
         C           -2.406762129707     0.917894033767    -0.001639041967    12.000000000000
         C            2.406762870293     0.917895033767    -0.001490041967    12.000000000000
         C           -1.258396129707    -0.081138966233    -0.001477041967    12.000000000000
         C            1.258395870293    -0.081137966233    -0.001661041967    12.000000000000
         C           -3.762404129707     0.226319033767    -0.001615041967    12.000000000000
         C            3.762403870293     0.226317033767    -0.001472041967    12.000000000000
         H           -2.301813129707     1.568084033767    -0.879959041967     1.007825032230
         H           -2.301894129707     1.568272033767     0.876554958033     1.007825032230
         H            2.301797870293     1.568101033767     0.876815958033     1.007825032230
         H            2.301914870293     1.568257033767    -0.879698041967     1.007825032230
         H            0.000013470293     1.556310133767     0.198437958033     1.007825032230
         H           -3.870414129707    -0.408843966233    -0.882359041967     1.007825032230
         H           -4.566277129707     0.966926033767    -0.001631041967     1.007825032230
         H           -3.870398129707    -0.408800966233     0.879159958033     1.007825032230
         H            4.566277870293     0.966923033767    -0.001454041967     1.007825032230
         H            3.870394870293    -0.408828966233     0.879285958033     1.007825032230
         H            3.870414870293    -0.408819966233    -0.882233041967     1.007825032230

  Basis Set: AUG-CC-PVTZ
    Blend: AUG-CC-PVTZ
  Basis Set: (AUG-CC-PVTZ AUX)
    Blend: AUG-CC-PVTZ-JKFIT
	 Reference Energy          =    -437.9782310435084582 [Eh]
	 Singles Energy            =      -0.0000000000000000 [Eh]
	 Same-Spin Energy          =      -0.4402090493519280 [Eh]
	 Opposite-Spin Energy      =      -1.4275351382796355 [Eh]
	 Correlation Energy        =      -1.8677441876315635 [Eh]
	 Total Energy              =    -439.8459752311400166 [Eh]

	 ================> DF-SCS-MP2 Energies <==================
	-----------------------------------------------------------
	 SCS Same-Spin Scale       =       0.3333333333333333 [-]
	 SCS Opposite-Spin Scale   =       1.2000000000000000 [-]
	 SCS Same-Spin Energy      =      -0.1467363497839760 [Eh]
	 SCS Opposite-Spin Energy  =      -1.7130421659355626 [Eh]
	 SCS Correlation Energy    =      -1.8597785157195386 [Eh]
	 SCS Total Energy          =    -439.8380095592279986 [Eh]
	-----------------------------------------------------------

  Dipole Moment: [D]
     X:    -0.0000      Y:     5.7459      Z:     0.2351     Total:     5.7507

*** Psi4 exiting successfully. Buy a developer a beer!
