                               Psi4 1.3.2 release

  ==> Input File <==

--------------------------------------------------------------------------
#psi4
#
memory 32 gb

molecule  {
0 1
  O       -1.4171200    -1.3484060     0.0002970
  O        1.4171200    -1.3484050    -0.0003020
  N       -0.0000010     0.4846070    -0.0000160
  C       -2.4067620     0.8604000    -0.0000780
  C        2.4067630     0.8604010     0.0000710
  C       -1.2583960    -0.1386330     0.0000840
  C        1.2583960    -0.1386320    -0.0001000
  C       -3.7624040     0.1688250    -0.0000540
  C        3.7624040     0.1688230     0.0000890
  H       -2.3018130     1.5105900    -0.8783980
  H       -2.3018940     1.5107780     0.8781160
  H        2.3017980     1.5106070     0.8783770
  H        2.3019150     1.5107630    -0.8781370
  H        0.0000063     1.4988166     0.0999990
  H       -3.8704140    -0.4663380    -0.8807980
  H       -4.5662770     0.9094320    -0.0000700
  H       -3.8703980    -0.4662950     0.8807210
  H        4.5662780     0.9094290     0.0001070
  H        3.8703950    -0.4663230     0.8808470
  H        3.8704150    -0.4663140    -0.8806720
units angstrom
no_reorient  #important for SAPT in psi4, default
symmetry c1  #important for SAPT in psi4, default
}

set PROPERTIES_ORIGIN ["COM"]
properties('MP2/aug-cc-pvtz', properties = ['dipole'])
--------------------------------------------------------------------------

    Molecular point group: c1
  Charge       = 0
  Multiplicity = 1
  Basis Set: AUG-CC-PVTZ
    Blend: AUG-CC-PVTZ
  Basis Set: (AUG-CC-PVTZ AUX)
    Blend: AUG-CC-PVTZ-JKFIT

    Orbital Energies [Eh]
    ---------------------

    Doubly Occupied:

       1A    -20.538584     2A    -20.538582     3A    -15.616165
       4A    -11.368545     5A    -11.368529     6A    -11.255737
       7A    -11.255736     8A    -11.224359     9A    -11.224359
      10A     -1.403612    11A     -1.375961    12A     -1.244540
      13A     -1.072781    14A     -1.056476    15A     -0.938524
      16A     -0.881294    17A     -0.804674    18A     -0.775506
      19A     -0.707560    20A     -0.678520    21A     -0.659325
      22A     -0.640343    23A     -0.629177    24A     -0.607708
      25A     -0.577926    26A     -0.547425    27A     -0.532391
      28A     -0.527815    29A     -0.525421    30A     -0.524440
      31A     -0.504305    32A     -0.491693    33A     -0.462985
      34A     -0.423654    35A     -0.411158

  @DF-RHF Final Energy:  -437.97970195044451

   => Energetics <=

    Nuclear Repulsion Energy =            448.1841592151919258
    One-Electron Energy =               -1485.5361062075562586
    Two-Electron Energy =                 599.3722450419198822
    Total Energy =                       -437.9797019504445643
  Basis Set: (AUG-CC-PVTZ AUX)
    Blend: AUG-CC-PVTZ-RI
    Molecular point group: c1

    Geometry (in Angstrom), charge = 0, multiplicity = 1:

       Center              X                  Y                   Z               Mass
    ------------   -----------------  -----------------  -----------------  -----------------
         O           -1.417120072710    -1.290911970137    -0.000483260275    15.994914619570
         O            1.417119927290    -1.290910970137    -0.001082260275    15.994914619570
         N           -0.000001072710     0.542101029863    -0.000796260275    14.003074004430
         C           -2.406762072710     0.917894029863    -0.000858260275    12.000000000000
         C            2.406762927290     0.917895029863    -0.000709260275    12.000000000000
         C           -1.258396072710    -0.081138970137    -0.000696260275    12.000000000000
         C            1.258395927290    -0.081137970137    -0.000880260275    12.000000000000
         C           -3.762404072710     0.226319029863    -0.000834260275    12.000000000000
         C            3.762403927290     0.226317029863    -0.000691260275    12.000000000000
         H           -2.301813072710     1.568084029863    -0.879178260275     1.007825032230
         H           -2.301894072710     1.568272029863     0.877335739725     1.007825032230
         H            2.301797927290     1.568101029863     0.877596739725     1.007825032230
         H            2.301914927290     1.568257029863    -0.878917260275     1.007825032230
         H            0.000006227290     1.556310629863     0.099218739725     1.007825032230
         H           -3.870414072710    -0.408843970137    -0.881578260275     1.007825032230
         H           -4.566277072710     0.966926029863    -0.000850260275     1.007825032230
         H           -3.870398072710    -0.408800970137     0.879940739725     1.007825032230
         H            4.566277927290     0.966923029863    -0.000673260275     1.007825032230
         H            3.870394927290    -0.408828970137     0.880066739725     1.007825032230
         H            3.870414927290    -0.408819970137    -0.881452260275     1.007825032230

  Basis Set: AUG-CC-PVTZ
    Blend: AUG-CC-PVTZ
  Basis Set: (AUG-CC-PVTZ AUX)
    Blend: AUG-CC-PVTZ-JKFIT
	 Reference Energy          =    -437.9797019504445075 [Eh]
	 Singles Energy            =      -0.0000000000000000 [Eh]
	 Same-Spin Energy          =      -0.4401130304970756 [Eh]
	 Opposite-Spin Energy      =      -1.4272323063729637 [Eh]
	 Correlation Energy        =      -1.8673453368700392 [Eh]
	 Total Energy              =    -439.8470472873145241 [Eh]

	 ================> DF-SCS-MP2 Energies <==================
	-----------------------------------------------------------
	 SCS Same-Spin Scale       =       0.3333333333333333 [-]
	 SCS Opposite-Spin Scale   =       1.2000000000000000 [-]
	 SCS Same-Spin Energy      =      -0.1467043434990252 [Eh]
	 SCS Opposite-Spin Energy  =      -1.7126787676475563 [Eh]
	 SCS Correlation Energy    =      -1.8593831111465815 [Eh]
	 SCS Total Energy          =    -439.8390850615911063 [Eh]
	-----------------------------------------------------------

  Dipole Moment: [D]
     X:    -0.0000      Y:     5.7648      Z:     0.1183     Total:     5.7660

*** Psi4 exiting successfully. Buy a developer a beer!
