                               Psi4 1.3.2 release

  ==> Input File <==

--------------------------------------------------------------------------
#psi4
#
memory 32 gb

molecule  {
0 1
  O       -1.4171200    -1.3484060     0.0002970
  O        1.4171200    -1.3484050    -0.0003020
  N       -0.0000010     0.4846070    -0.0000160
  C       -2.4067620     0.8604000    -0.0000780
  C        2.4067630     0.8604010     0.0000710
  C       -1.2583960    -0.1386330     0.0000840
  C        1.2583960    -0.1386320    -0.0001000
  C       -3.7624040     0.1688250    -0.0000540
  C        3.7624040     0.1688230     0.0000890
  H       -2.3018130     1.5105900    -0.8783980
  H       -2.3018940     1.5107780     0.8781160
  H        2.3017980     1.5106070     0.8783770
  H        2.3019150     1.5107630    -0.8781370
  H        0.0000027     1.4988168     0.0499990
  H       -3.8704140    -0.4663380    -0.8807980
  H       -4.5662770     0.9094320    -0.0000700
  H       -3.8703980    -0.4662950     0.8807210
  H        4.5662780     0.9094290     0.0001070
  H        3.8703950    -0.4663230     0.8808470
  H        3.8704150    -0.4663140    -0.8806720
units angstrom
no_reorient  #important for SAPT in psi4, default
symmetry c1  #important for SAPT in psi4, default
}

set PROPERTIES_ORIGIN ["COM"]
properties('MP2/aug-cc-pvtz', properties = ['dipole'])
--------------------------------------------------------------------------

    Molecular point group: c1
  Charge       = 0
  Multiplicity = 1
  Basis Set: AUG-CC-PVTZ
    Blend: AUG-CC-PVTZ
  Basis Set: (AUG-CC-PVTZ AUX)
    Blend: AUG-CC-PVTZ-JKFIT

    Orbital Energies [Eh]
    ---------------------

    Doubly Occupied:

       1A    -20.538517     2A    -20.538515     3A    -15.615940
       4A    -11.368575     5A    -11.368560     6A    -11.255765
       7A    -11.255764     8A    -11.224379     9A    -11.224379
      10A     -1.403611    11A     -1.375921    12A     -1.244996
      13A     -1.072812    14A     -1.056507    15A     -0.938558
      16A     -0.881321    17A     -0.804703    18A     -0.776695
      19A     -0.707622    20A     -0.678521    21A     -0.659333
      22A     -0.640361    23A     -0.629155    24A     -0.607779
      25A     -0.578101    26A     -0.547493    27A     -0.532399
      28A     -0.527840    29A     -0.525436    30A     -0.524448
      31A     -0.504324    32A     -0.491695    33A     -0.462971
      34A     -0.423623    35A     -0.411135

  @DF-RHF Final Energy:  -437.98002530245492

   => Energetics <=

    Nuclear Repulsion Energy =            448.2034037987949660
    One-Electron Energy =               -1485.5713524634684291
    Two-Electron Energy =                 599.3879233622184302
    Total Energy =                       -437.9800253024549193
  Basis Set: (AUG-CC-PVTZ AUX)
    Blend: AUG-CC-PVTZ-RI
    Molecular point group: c1

    Geometry (in Angstrom), charge = 0, multiplicity = 1:

       Center              X                  Y                   Z               Mass
    ------------   -----------------  -----------------  -----------------  -----------------
         O           -1.417120044602    -1.290911971699    -0.000092869430    15.994914619570
         O            1.417119955398    -1.290910971699    -0.000691869430    15.994914619570
         N           -0.000001044602     0.542101028301    -0.000405869430    14.003074004430
         C           -2.406762044602     0.917894028301    -0.000467869430    12.000000000000
         C            2.406762955398     0.917895028301    -0.000318869430    12.000000000000
         C           -1.258396044602    -0.081138971699    -0.000305869430    12.000000000000
         C            1.258395955398    -0.081137971699    -0.000489869430    12.000000000000
         C           -3.762404044602     0.226319028301    -0.000443869430    12.000000000000
         C            3.762403955398     0.226317028301    -0.000300869430    12.000000000000
         H           -2.301813044602     1.568084028301    -0.878787869430     1.007825032230
         H           -2.301894044602     1.568272028301     0.877726130570     1.007825032230
         H            2.301797955398     1.568101028301     0.877987130570     1.007825032230
         H            2.301914955398     1.568257028301    -0.878526869430     1.007825032230
         H            0.000002655398     1.556310828301     0.049609130570     1.007825032230
         H           -3.870414044602    -0.408843971699    -0.881187869430     1.007825032230
         H           -4.566277044602     0.966926028301    -0.000459869430     1.007825032230
         H           -3.870398044602    -0.408800971699     0.880331130570     1.007825032230
         H            4.566277955398     0.966923028301    -0.000282869430     1.007825032230
         H            3.870394955398    -0.408828971699     0.880457130570     1.007825032230
         H            3.870414955398    -0.408819971699    -0.881061869430     1.007825032230

  Basis Set: AUG-CC-PVTZ
    Blend: AUG-CC-PVTZ
  Basis Set: (AUG-CC-PVTZ AUX)
    Blend: AUG-CC-PVTZ-JKFIT
	 Reference Energy          =    -437.9800253024549193 [Eh]
	 Singles Energy            =      -0.0000000000000000 [Eh]
	 Same-Spin Energy          =      -0.4400889462938822 [Eh]
	 Opposite-Spin Energy      =      -1.4271568855114476 [Eh]
	 Correlation Energy        =      -1.8672458318053298 [Eh]
	 Total Energy              =    -439.8472711342602679 [Eh]

	 ================> DF-SCS-MP2 Energies <==================
	-----------------------------------------------------------
	 SCS Same-Spin Scale       =       0.3333333333333333 [-]
	 SCS Opposite-Spin Scale   =       1.2000000000000000 [-]
	 SCS Same-Spin Energy      =      -0.1466963154312940 [Eh]
	 SCS Opposite-Spin Energy  =      -1.7125882626137370 [Eh]
	 SCS Correlation Energy    =      -1.8592845780450311 [Eh]
	 SCS Total Energy          =    -439.8393098804999681 [Eh]
	-----------------------------------------------------------

  Dipole Moment: [D]
     X:     0.0000      Y:     5.7696      Z:     0.0593     Total:     5.7699

*** Psi4 exiting successfully. Buy a developer a beer!
