                               Psi4 1.3.2 release

  ==> Input File <==

--------------------------------------------------------------------------
#psi4
#
memory 32 gb

molecule  {
0 1
  O       -1.4171200    -1.3484060     0.0002970
  O        1.4171200    -1.3484050    -0.0003020
  N       -0.0000010     0.4846070    -0.0000160
  C       -2.4067618     0.8604340     0.1999220
  C        2.4067630     0.8604010     0.0000710
  C       -1.2583960    -0.1386330     0.0000840
  C        1.2583960    -0.1386320    -0.0001000
  C       -3.7624040     0.1688250    -0.0000540
  C        3.7624040     0.1688230     0.0000890
  H       -2.3018130     1.5105900    -0.8783980
  H       -2.3018940     1.5107780     0.8781160
  H        2.3017980     1.5106070     0.8783770
  H        2.3019150     1.5107630    -0.8781370
  H       -0.0000010     1.4988170    -0.0000010
  H       -3.8704140    -0.4663380    -0.8807980
  H       -4.5662770     0.9094320    -0.0000700
  H       -3.8703980    -0.4662950     0.8807210
  H        4.5662780     0.9094290     0.0001070
  H        3.8703950    -0.4663230     0.8808470
  H        3.8704150    -0.4663140    -0.8806720
units angstrom
no_reorient  #important for SAPT in psi4, default
symmetry c1  #important for SAPT in psi4, default
}

set PROPERTIES_ORIGIN ["COM"]
properties('MP2/aug-cc-pvtz', properties = ['dipole'])
--------------------------------------------------------------------------

    Molecular point group: c1
  Charge       = 0
  Multiplicity = 1
  Basis Set: AUG-CC-PVTZ
    Blend: AUG-CC-PVTZ
  Basis Set: (AUG-CC-PVTZ AUX)
    Blend: AUG-CC-PVTZ-JKFIT

    Orbital Energies [Eh]
    ---------------------

    Doubly Occupied:

       1A    -20.539594     2A    -20.538442     3A    -15.615885
       4A    -11.371979     5A    -11.368566     6A    -11.260549
       7A    -11.255735     8A    -11.227818     9A    -11.224356
      10A     -1.403998    11A     -1.376367    12A     -1.245183
      13A     -1.073097    14A     -1.056943    15A     -0.938331
      16A     -0.884178    17A     -0.812082    18A     -0.777221
      19A     -0.719118    20A     -0.683072    21A     -0.655342
      22A     -0.637679    23A     -0.625137    24A     -0.608513
      25A     -0.577552    26A     -0.558597    27A     -0.541811
      28A     -0.532302    29A     -0.526840    30A     -0.519141
      31A     -0.497014    32A     -0.476262    33A     -0.454385
      34A     -0.424087    35A     -0.410468

  @DF-RHF Final Energy:  -437.93796433840009

   => Energetics <=

    Nuclear Repulsion Energy =            447.9807017196886818
    One-Electron Energy =               -1485.0020443072226044
    Two-Electron Energy =                 599.0833782491339434
    Total Energy =                       -437.9379643384000929
  Basis Set: (AUG-CC-PVTZ AUX)
    Blend: AUG-CC-PVTZ-RI
    Molecular point group: c1

    Geometry (in Angstrom), charge = 0, multiplicity = 1:

       Center              X                  Y                   Z               Mass
    ------------   -----------------  -----------------  -----------------  -----------------
         O           -1.417120034306    -1.290915134116    -0.018295746257    15.994914619570
         O            1.417119965694    -1.290914134116    -0.018894746257    15.994914619570
         N           -0.000001034306     0.542097865884    -0.018608746257    14.003074004430
         C           -2.406761834306     0.917924865884     0.181329253743    12.000000000000
         C            2.406762965694     0.917891865884    -0.018521746257    12.000000000000
         C           -1.258396034306    -0.081142134116    -0.018508746257    12.000000000000
         C            1.258395965694    -0.081141134116    -0.018692746257    12.000000000000
         C           -3.762404034306     0.226315865884    -0.018646746257    12.000000000000
         C            3.762403965694     0.226313865884    -0.018503746257    12.000000000000
         H           -2.301813034306     1.568080865884    -0.896990746257     1.007825032230
         H           -2.301894034306     1.568268865884     0.859523253743     1.007825032230
         H            2.301797965694     1.568097865884     0.859784253743     1.007825032230
         H            2.301914965694     1.568253865884    -0.896729746257     1.007825032230
         H           -0.000001034306     1.556307865884    -0.018593746257     1.007825032230
         H           -3.870414034306    -0.408847134116    -0.899390746257     1.007825032230
         H           -4.566277034306     0.966922865884    -0.018662746257     1.007825032230
         H           -3.870398034306    -0.408804134116     0.862128253743     1.007825032230
         H            4.566277965694     0.966919865884    -0.018485746257     1.007825032230
         H            3.870394965694    -0.408832134116     0.862254253743     1.007825032230
         H            3.870414965694    -0.408823134116    -0.899264746257     1.007825032230

  Basis Set: AUG-CC-PVTZ
    Blend: AUG-CC-PVTZ
  Basis Set: (AUG-CC-PVTZ AUX)
    Blend: AUG-CC-PVTZ-JKFIT
	 Reference Energy          =    -437.9379643384000929 [Eh]
	 Singles Energy            =      -0.0000000000000000 [Eh]
	 Same-Spin Energy          =      -0.4406167974880419 [Eh]
	 Opposite-Spin Energy      =      -1.4291290772242602 [Eh]
	 Correlation Energy        =      -1.8697458747123021 [Eh]
	 Total Energy              =    -439.8077102131123866 [Eh]

	 ================> DF-SCS-MP2 Energies <==================
	-----------------------------------------------------------
	 SCS Same-Spin Scale       =       0.3333333333333333 [-]
	 SCS Opposite-Spin Scale   =       1.2000000000000000 [-]
	 SCS Same-Spin Energy      =      -0.1468722658293473 [Eh]
	 SCS Opposite-Spin Energy  =      -1.7149548926691123 [Eh]
	 SCS Correlation Energy    =      -1.8618271584984596 [Eh]
	 SCS Total Energy          =    -439.7997914968985356 [Eh]
	-----------------------------------------------------------

  Dipole Moment: [D]
     X:    -0.0235      Y:     5.7086      Z:     0.1130     Total:     5.7097

*** Psi4 exiting successfully. Buy a developer a beer!
