                               Psi4 1.3.2 release

  ==> Input File <==

--------------------------------------------------------------------------
#psi4
#
memory 32 gb

molecule  {
0 1
  O       -1.4171200    -1.3484060     0.0002970
  O        1.4171200    -1.3484050    -0.0003020
  N       -0.0000010     0.4846070    -0.0000160
  C       -2.4067620     0.8604000    -0.0000780
  C        2.4067630     0.8604010     0.0000710
  C       -1.2583960    -0.1386330     0.0000840
  C        1.2583960    -0.1386320    -0.0001000
  C       -3.7624040     0.1688250    -0.0000540
  C        3.7624040     0.1688230     0.0000890
  H       -2.3018130     1.5105900    -0.8783980
  H       -2.3018940     1.5107780     0.8781160
  H        2.3017980     1.5106070     0.8783770
  H        2.3019150     1.5107630    -0.8781370
  H        0.0000100     1.4988164     0.1499990
  H       -3.8704140    -0.4663380    -0.8807980
  H       -4.5662770     0.9094320    -0.0000700
  H       -3.8703980    -0.4662950     0.8807210
  H        4.5662780     0.9094290     0.0001070
  H        3.8703950    -0.4663230     0.8808470
  H        3.8704150    -0.4663140    -0.8806720
units angstrom
no_reorient  #important for SAPT in psi4, default
symmetry c1  #important for SAPT in psi4, default
}

set PROPERTIES_ORIGIN ["COM"]
properties('MP2/aug-cc-pvtz', properties = ['dipole'])
--------------------------------------------------------------------------

    Molecular point group: c1
  Charge       = 0
  Multiplicity = 1
  Basis Set: AUG-CC-PVTZ
    Blend: AUG-CC-PVTZ
  Basis Set: (AUG-CC-PVTZ AUX)
    Blend: AUG-CC-PVTZ-JKFIT

    Orbital Energies [Eh]
    ---------------------

    Doubly Occupied:

       1A    -20.538695     2A    -20.538692     3A    -15.616535
       4A    -11.368495     5A    -11.368479     6A    -11.255690
       7A    -11.255689     8A    -11.224328     9A    -11.224328
      10A     -1.403615    11A     -1.376026    12A     -1.243795
      13A     -1.072731    14A     -1.056425    15A     -0.938467
      16A     -0.881248    17A     -0.804627    18A     -0.773556
      19A     -0.707453    20A     -0.678518    21A     -0.659311
      22A     -0.640312    23A     -0.629214    24A     -0.607582
      25A     -0.577640    26A     -0.547310    27A     -0.532377
      28A     -0.527774    29A     -0.525395    30A     -0.524427
      31A     -0.504274    32A     -0.491689    33A     -0.463006
      34A     -0.423706    35A     -0.411196

  @DF-RHF Final Energy:  -437.97912245616703

   => Energetics <=

    Nuclear Repulsion Energy =            448.1524255844822164
    One-Electron Energy =               -1485.4778834128135259
    Two-Electron Energy =                 599.3463353721642761
    Total Energy =                       -437.9791224561670333
  Basis Set: (AUG-CC-PVTZ AUX)
    Blend: AUG-CC-PVTZ-RI
    Molecular point group: c1

    Geometry (in Angstrom), charge = 0, multiplicity = 1:

       Center              X                  Y                   Z               Mass
    ------------   -----------------  -----------------  -----------------  -----------------
         O           -1.417120101599    -1.290911968576    -0.000873651121    15.994914619570
         O            1.417119898401    -1.290910968576    -0.001472651121    15.994914619570
         N           -0.000001101599     0.542101031424    -0.001186651121    14.003074004430
         C           -2.406762101599     0.917894031424    -0.001248651121    12.000000000000
         C            2.406762898401     0.917895031424    -0.001099651121    12.000000000000
         C           -1.258396101599    -0.081138968576    -0.001086651121    12.000000000000
         C            1.258395898401    -0.081137968576    -0.001270651121    12.000000000000
         C           -3.762404101599     0.226319031424    -0.001224651121    12.000000000000
         C            3.762403898401     0.226317031424    -0.001081651121    12.000000000000
         H           -2.301813101599     1.568084031424    -0.879568651121     1.007825032230
         H           -2.301894101599     1.568272031424     0.876945348879     1.007825032230
         H            2.301797898401     1.568101031424     0.877206348879     1.007825032230
         H            2.301914898401     1.568257031424    -0.879307651121     1.007825032230
         H            0.000009898401     1.556310431424     0.148828348879     1.007825032230
         H           -3.870414101599    -0.408843968576    -0.881968651121     1.007825032230
         H           -4.566277101599     0.966926031424    -0.001240651121     1.007825032230
         H           -3.870398101599    -0.408800968576     0.879550348879     1.007825032230
         H            4.566277898401     0.966923031424    -0.001063651121     1.007825032230
         H            3.870394898401    -0.408828968576     0.879676348879     1.007825032230
         H            3.870414898401    -0.408819968576    -0.881842651121     1.007825032230

  Basis Set: AUG-CC-PVTZ
    Blend: AUG-CC-PVTZ
  Basis Set: (AUG-CC-PVTZ AUX)
    Blend: AUG-CC-PVTZ-JKFIT
	 Reference Energy          =    -437.9791224561670333 [Eh]
	 Singles Energy            =      -0.0000000000000000 [Eh]
	 Same-Spin Energy          =      -0.4401531065175673 [Eh]
	 Opposite-Spin Energy      =      -1.4273583290500187 [Eh]
	 Correlation Energy        =      -1.8675114355675859 [Eh]
	 Total Energy              =    -439.8466338917345979 [Eh]

	 ================> DF-SCS-MP2 Energies <==================
	-----------------------------------------------------------
	 SCS Same-Spin Scale       =       0.3333333333333333 [-]
	 SCS Opposite-Spin Scale   =       1.2000000000000000 [-]
	 SCS Same-Spin Energy      =      -0.1467177021725224 [Eh]
	 SCS Opposite-Spin Energy  =      -1.7128299948600223 [Eh]
	 SCS Correlation Energy    =      -1.8595476970325446 [Eh]
	 SCS Total Energy          =    -439.8386701531995868 [Eh]
	-----------------------------------------------------------

  Dipole Moment: [D]
     X:    -0.0000      Y:     5.7568      Z:     0.1770     Total:     5.7596

*** Psi4 exiting successfully. Buy a developer a beer!
