                               Psi4 1.3.2 release

  ==> Input File <==

--------------------------------------------------------------------------
#psi4
#
memory 32 gb

molecule  {
0 1
  O       -1.4171200    -1.3484060     0.0002970
  O        1.4171200    -1.3484050    -0.0003020
  N       -0.0000010     0.4846070    -0.0000160
  C       -2.4067618     0.8604510     0.2999220
  C        2.4067630     0.8604010     0.0000710
  C       -1.2583960    -0.1386330     0.0000840
  C        1.2583960    -0.1386320    -0.0001000
  C       -3.7624040     0.1688250    -0.0000540
  C        3.7624040     0.1688230     0.0000890
  H       -2.3018130     1.5105900    -0.8783980
  H       -2.3018940     1.5107780     0.8781160
  H        2.3017980     1.5106070     0.8783770
  H        2.3019150     1.5107630    -0.8781370
  H       -0.0000010     1.4988170    -0.0000010
  H       -3.8704140    -0.4663380    -0.8807980
  H       -4.5662770     0.9094320    -0.0000700
  H       -3.8703980    -0.4662950     0.8807210
  H        4.5662780     0.9094290     0.0001070
  H        3.8703950    -0.4663230     0.8808470
  H        3.8704150    -0.4663140    -0.8806720
units angstrom
no_reorient  #important for SAPT in psi4, default
symmetry c1  #important for SAPT in psi4, default
}

set PROPERTIES_ORIGIN ["COM"]
properties('MP2/aug-cc-pvtz', properties = ['dipole'])
--------------------------------------------------------------------------

    Molecular point group: c1
  Charge       = 0
  Multiplicity = 1
  Basis Set: AUG-CC-PVTZ
    Blend: AUG-CC-PVTZ
  Basis Set: (AUG-CC-PVTZ AUX)
    Blend: AUG-CC-PVTZ-JKFIT

    Orbital Energies [Eh]
    ---------------------

    Doubly Occupied:

       1A    -20.540914     2A    -20.538383     3A    -15.615920
       4A    -11.376057     5A    -11.368560     6A    -11.266449
       7A    -11.255696     8A    -11.231887     9A    -11.224326
      10A     -1.404474    11A     -1.376895    12A     -1.245226
      13A     -1.073569    14A     -1.057538    15A     -0.938118
      16A     -0.888737    17A     -0.820408    18A     -0.777322
      19A     -0.727859    20A     -0.684553    21A     -0.654057
      22A     -0.636982    23A     -0.620201    24A     -0.609331
      25A     -0.578778    26A     -0.568112    27A     -0.542278
      28A     -0.532892    29A     -0.526808    30A     -0.516834
      31A     -0.496476    32A     -0.470948    33A     -0.438786
      34A     -0.424435    35A     -0.409355

  @DF-RHF Final Energy:  -437.88424918872317

   => Energetics <=

    Nuclear Repulsion Energy =            447.6980621900333404
    One-Electron Energy =               -1484.2862938999473954
    Two-Electron Energy =                 598.7039825211908237
    Total Energy =                       -437.8842491887231745
  Basis Set: (AUG-CC-PVTZ AUX)
    Blend: AUG-CC-PVTZ-RI
    Molecular point group: c1

    Geometry (in Angstrom), charge = 0, multiplicity = 1:

       Center              X                  Y                   Z               Mass
    ------------   -----------------  -----------------  -----------------  -----------------
         O           -1.417120034306    -1.290916714544    -0.027592380093    15.994914619570
         O            1.417119965694    -1.290915714544    -0.028191380093    15.994914619570
         N           -0.000001034306     0.542096285456    -0.027905380093    14.003074004430
         C           -2.406761834306     0.917940285456     0.272032619907    12.000000000000
         C            2.406762965694     0.917890285456    -0.027818380093    12.000000000000
         C           -1.258396034306    -0.081143714544    -0.027805380093    12.000000000000
         C            1.258395965694    -0.081142714544    -0.027989380093    12.000000000000
         C           -3.762404034306     0.226314285456    -0.027943380093    12.000000000000
         C            3.762403965694     0.226312285456    -0.027800380093    12.000000000000
         H           -2.301813034306     1.568079285456    -0.906287380093     1.007825032230
         H           -2.301894034306     1.568267285456     0.850226619907     1.007825032230
         H            2.301797965694     1.568096285456     0.850487619907     1.007825032230
         H            2.301914965694     1.568252285456    -0.906026380093     1.007825032230
         H           -0.000001034306     1.556306285456    -0.027890380093     1.007825032230
         H           -3.870414034306    -0.408848714544    -0.908687380093     1.007825032230
         H           -4.566277034306     0.966921285456    -0.027959380093     1.007825032230
         H           -3.870398034306    -0.408805714544     0.852831619907     1.007825032230
         H            4.566277965694     0.966918285456    -0.027782380093     1.007825032230
         H            3.870394965694    -0.408833714544     0.852957619907     1.007825032230
         H            3.870414965694    -0.408824714544    -0.908561380093     1.007825032230

  Basis Set: AUG-CC-PVTZ
    Blend: AUG-CC-PVTZ
  Basis Set: (AUG-CC-PVTZ AUX)
    Blend: AUG-CC-PVTZ-JKFIT
	 Reference Energy          =    -437.8842491887231745 [Eh]
	 Singles Energy            =      -0.0000000000000000 [Eh]
	 Same-Spin Energy          =      -0.4413105967596375 [Eh]
	 Opposite-Spin Energy      =      -1.4317244111086807 [Eh]
	 Correlation Energy        =      -1.8730350078683182 [Eh]
	 Total Energy              =    -439.7572841965915131 [Eh]

	 ================> DF-SCS-MP2 Energies <==================
	-----------------------------------------------------------
	 SCS Same-Spin Scale       =       0.3333333333333333 [-]
	 SCS Opposite-Spin Scale   =       1.2000000000000000 [-]
	 SCS Same-Spin Energy      =      -0.1471035322532125 [Eh]
	 SCS Opposite-Spin Energy  =      -1.7180692933304167 [Eh]
	 SCS Correlation Energy    =      -1.8651728255836293 [Eh]
	 SCS Total Energy          =    -439.7494220143067878 [Eh]
	-----------------------------------------------------------

  Dipole Moment: [D]
     X:    -0.0484      Y:     5.6405      Z:     0.1602     Total:     5.6430

*** Psi4 exiting successfully. Buy a developer a beer!
