                               Psi4 1.3.2 release

  ==> Input File <==

--------------------------------------------------------------------------
#psi4
#
memory 32 gb

molecule  {
0 1
  O       -1.4171200    -1.3484060     0.0002970
  O        1.4171200    -1.3484050    -0.0003020
  N       -0.0000010     0.4846070    -0.0000160
  C       -2.4067618     0.8604425     0.2499220
  C        2.4067630     0.8604010     0.0000710
  C       -1.2583960    -0.1386330     0.0000840
  C        1.2583960    -0.1386320    -0.0001000
  C       -3.7624040     0.1688250    -0.0000540
  C        3.7624040     0.1688230     0.0000890
  H       -2.3018130     1.5105900    -0.8783980
  H       -2.3018940     1.5107780     0.8781160
  H        2.3017980     1.5106070     0.8783770
  H        2.3019150     1.5107630    -0.8781370
  H       -0.0000010     1.4988170    -0.0000010
  H       -3.8704140    -0.4663380    -0.8807980
  H       -4.5662770     0.9094320    -0.0000700
  H       -3.8703980    -0.4662950     0.8807210
  H        4.5662780     0.9094290     0.0001070
  H        3.8703950    -0.4663230     0.8808470
  H        3.8704150    -0.4663140    -0.8806720
units angstrom
no_reorient  #important for SAPT in psi4, default
symmetry c1  #important for SAPT in psi4, default
}

set PROPERTIES_ORIGIN ["COM"]
properties('MP2/aug-cc-pvtz', properties = ['dipole'])
--------------------------------------------------------------------------

    Molecular point group: c1
  Charge       = 0
  Multiplicity = 1
  Basis Set: AUG-CC-PVTZ
    Blend: AUG-CC-PVTZ
  Basis Set: (AUG-CC-PVTZ AUX)
    Blend: AUG-CC-PVTZ-JKFIT

    Orbital Energies [Eh]
    ---------------------

    Doubly Occupied:

       1A    -20.540196     2A    -20.538415     3A    -15.615899
       4A    -11.373839     5A    -11.368563     6A    -11.263217
       7A    -11.255716     8A    -11.229680     9A    -11.224342
      10A     -1.404214    11A     -1.376611    12A     -1.245203
      13A     -1.073291    14A     -1.057204    15A     -0.938224
      16A     -0.886102    17A     -0.816020    18A     -0.777273
      19A     -0.723685    20A     -0.683936    21A     -0.654590
      22A     -0.637190    23A     -0.622799    24A     -0.608889
      25A     -0.577715    26A     -0.563974    27A     -0.542253
      28A     -0.532605    29A     -0.526827    30A     -0.518065
      31A     -0.496678    32A     -0.472902    33A     -0.447247
      34A     -0.424299    35A     -0.410021

  @DF-RHF Final Energy:  -437.91389200777138

   => Energetics <=

    Nuclear Repulsion Energy =            447.8530742209495088
    One-Electron Energy =               -1484.6785619933002636
    Two-Electron Energy =                 598.9115957645792605
    Total Energy =                       -437.9138920077714374
  Basis Set: (AUG-CC-PVTZ AUX)
    Blend: AUG-CC-PVTZ-RI
    Molecular point group: c1

    Geometry (in Angstrom), charge = 0, multiplicity = 1:

       Center              X                  Y                   Z               Mass
    ------------   -----------------  -----------------  -----------------  -----------------
         O           -1.417120034306    -1.290915924330    -0.022944063175    15.994914619570
         O            1.417119965694    -1.290914924330    -0.023543063175    15.994914619570
         N           -0.000001034306     0.542097075670    -0.023257063175    14.003074004430
         C           -2.406761834306     0.917932575670     0.226680936825    12.000000000000
         C            2.406762965694     0.917891075670    -0.023170063175    12.000000000000
         C           -1.258396034306    -0.081142924330    -0.023157063175    12.000000000000
         C            1.258395965694    -0.081141924330    -0.023341063175    12.000000000000
         C           -3.762404034306     0.226315075670    -0.023295063175    12.000000000000
         C            3.762403965694     0.226313075670    -0.023152063175    12.000000000000
         H           -2.301813034306     1.568080075670    -0.901639063175     1.007825032230
         H           -2.301894034306     1.568268075670     0.854874936825     1.007825032230
         H            2.301797965694     1.568097075670     0.855135936825     1.007825032230
         H            2.301914965694     1.568253075670    -0.901378063175     1.007825032230
         H           -0.000001034306     1.556307075670    -0.023242063175     1.007825032230
         H           -3.870414034306    -0.408847924330    -0.904039063175     1.007825032230
         H           -4.566277034306     0.966922075670    -0.023311063175     1.007825032230
         H           -3.870398034306    -0.408804924330     0.857479936825     1.007825032230
         H            4.566277965694     0.966919075670    -0.023134063175     1.007825032230
         H            3.870394965694    -0.408832924330     0.857605936825     1.007825032230
         H            3.870414965694    -0.408823924330    -0.903913063175     1.007825032230

  Basis Set: AUG-CC-PVTZ
    Blend: AUG-CC-PVTZ
  Basis Set: (AUG-CC-PVTZ AUX)
    Blend: AUG-CC-PVTZ-JKFIT
	 Reference Energy          =    -437.9138920077713806 [Eh]
	 Singles Energy            =      -0.0000000000000000 [Eh]
	 Same-Spin Energy          =      -0.4409258818265704 [Eh]
	 Opposite-Spin Energy      =      -1.4302896920237855 [Eh]
	 Correlation Energy        =      -1.8712155738503560 [Eh]
	 Total Energy              =    -439.7851075816217303 [Eh]

	 ================> DF-SCS-MP2 Energies <==================
	-----------------------------------------------------------
	 SCS Same-Spin Scale       =       0.3333333333333333 [-]
	 SCS Opposite-Spin Scale   =       1.2000000000000000 [-]
	 SCS Same-Spin Energy      =      -0.1469752939421901 [Eh]
	 SCS Opposite-Spin Energy  =      -1.7163476304285425 [Eh]
	 SCS Correlation Energy    =      -1.8633229243707328 [Eh]
	 SCS Total Energy          =    -439.7772149321421011 [Eh]
	-----------------------------------------------------------

  Dipole Moment: [D]
     X:    -0.0354      Y:     5.6765      Z:     0.1381     Total:     5.6783

*** Psi4 exiting successfully. Buy a developer a beer!
