                               Psi4 1.3.2 release

  ==> Input File <==

--------------------------------------------------------------------------
#psi4
#
memory 32 gb

molecule  {
0 1
  O       -2.6785490     0.0000000    -0.0000150
  O        2.6785490     0.0000000    -0.0000520
  C       -1.4409660     0.0000000     0.0000110
  C        1.4409670     0.0000000    -0.0000170
  C        0.6745940    -1.2666350     0.0000030
  C       -0.6745950    -1.2666360     0.0000440
  C        0.6745950     1.2666360    -0.0000060
  C       -0.6746022     1.2666361     0.3000350
  H        1.2594220    -2.1829270     0.0000060
  H        1.2594200     2.1829290    -0.0000100
  H       -1.2594210    -2.1829290     0.0000640
  H       -1.2594220     2.1829270     0.0000490
units angstrom
no_reorient  #important for SAPT in psi4, default
symmetry c1  #important for SAPT in psi4, default
}

set PROPERTIES_ORIGIN ["COM"]
properties('MP2/aug-cc-pvtz', properties = ['dipole'])
--------------------------------------------------------------------------

    Molecular point group: c1
  Charge       = 0
  Multiplicity = 1
  Basis Set: AUG-CC-PVTZ
    Blend: AUG-CC-PVTZ
  Basis Set: (AUG-CC-PVTZ AUX)
    Blend: AUG-CC-PVTZ-JKFIT

    Orbital Energies [Eh]
    ---------------------

    Doubly Occupied:

       1A    -20.585043     2A    -20.580843     3A    -11.369033
       4A    -11.368907     5A    -11.299425     6A    -11.295024
       7A    -11.290251     8A    -11.288453     9A     -1.406702
      10A     -1.401745    11A     -1.158513    12A     -1.073124
      13A     -0.969337    14A     -0.874712    15A     -0.828515
      16A     -0.713305    17A     -0.708482    18A     -0.688494
      19A     -0.639989    20A     -0.626487    21A     -0.599603
      22A     -0.593169    23A     -0.578836    24A     -0.548333
      25A     -0.466726    26A     -0.447179    27A     -0.414381
      28A     -0.409414

  @DF-RHF Final Energy:  -379.33658355181672

   => Energetics <=

    Nuclear Repulsion Energy =            320.5260370582067253
    One-Electron Energy =               -1151.2771944388621250
    Two-Electron Energy =                 451.4145738288386838
    Total Energy =                       -379.3365835518167160
  Basis Set: (AUG-CC-PVTZ AUX)
    Blend: AUG-CC-PVTZ-RI
    Molecular point group: c1

    Geometry (in Angstrom), charge = 0, multiplicity = 1:

       Center              X                  Y                   Z               Mass
    ------------   -----------------  -----------------  -----------------  -----------------
         O           -2.678548190827    -0.000000122198    -0.033340685583    15.994914619570
         O            2.678549809173    -0.000000122198    -0.033377685583    15.994914619570
         C           -1.440965190827    -0.000000122198    -0.033314685583    12.000000000000
         C            1.440967809173    -0.000000122198    -0.033342685583    12.000000000000
         C            0.674594809173    -1.266635122198    -0.033322685583    12.000000000000
         C           -0.674594190827    -1.266636122198    -0.033281685583    12.000000000000
         C            0.674595809173     1.266635877802    -0.033331685583    12.000000000000
         C           -0.674601390827     1.266635977802     0.266709314417    12.000000000000
         H            1.259422809173    -2.182927122198    -0.033319685583     1.007825032230
         H            1.259420809173     2.182928877802    -0.033335685583     1.007825032230
         H           -1.259420190827    -2.182929122198    -0.033261685583     1.007825032230
         H           -1.259421190827     2.182926877802    -0.033276685583     1.007825032230

  Basis Set: AUG-CC-PVTZ
    Blend: AUG-CC-PVTZ
  Basis Set: (AUG-CC-PVTZ AUX)
    Blend: AUG-CC-PVTZ-JKFIT
	 Reference Energy          =    -379.3365835518167160 [Eh]
	 Singles Energy            =      -0.0000000000000000 [Eh]
	 Same-Spin Energy          =      -0.3794802403639667 [Eh]
	 Opposite-Spin Energy      =      -1.1687446063449083 [Eh]
	 Correlation Energy        =      -1.5482248467088748 [Eh]
	 Total Energy              =    -380.8848083985255926 [Eh]

	 ================> DF-SCS-MP2 Energies <==================
	-----------------------------------------------------------
	 SCS Same-Spin Scale       =       0.3333333333333333 [-]
	 SCS Opposite-Spin Scale   =       1.2000000000000000 [-]
	 SCS Same-Spin Energy      =      -0.1264934134546555 [Eh]
	 SCS Opposite-Spin Energy  =      -1.4024935276138899 [Eh]
	 SCS Correlation Energy    =      -1.5289869410685455 [Eh]
	 SCS Total Energy          =    -380.8655704928852401 [Eh]
	-----------------------------------------------------------

  Dipole Moment: [D]
     X:     0.0975      Y:    -0.0938      Z:    -0.1372     Total:     0.1927

*** Psi4 exiting successfully. Buy a developer a beer!
