                               Psi4 1.3.2 release

  ==> Input File <==

--------------------------------------------------------------------------
#psi4
#
memory 32 gb

molecule  {
0 1
  O       -2.6785490     0.0000000    -0.0000150
  O        2.6785490     0.0000000    -0.0000520
  C       -1.4409660     0.0000000     0.0000110
  C        1.4409670     0.0000000    -0.0000170
  C        0.6745940    -1.2666350     0.0000030
  C       -0.6745950    -1.2666360     0.0000440
  C        0.6745950     1.2666360    -0.0000060
  C       -0.6745981     1.2666355     0.1500350
  H        1.2594220    -2.1829270     0.0000060
  H        1.2594200     2.1829290    -0.0000100
  H       -1.2594210    -2.1829290     0.0000640
  H       -1.2594220     2.1829270     0.0000490
units angstrom
no_reorient  #important for SAPT in psi4, default
symmetry c1  #important for SAPT in psi4, default
}

set PROPERTIES_ORIGIN ["COM"]
properties('MP2/aug-cc-pvtz', properties = ['dipole'])
--------------------------------------------------------------------------

    Molecular point group: c1
  Charge       = 0
  Multiplicity = 1
  Basis Set: AUG-CC-PVTZ
    Blend: AUG-CC-PVTZ
  Basis Set: (AUG-CC-PVTZ AUX)
    Blend: AUG-CC-PVTZ-JKFIT

    Orbital Energies [Eh]
    ---------------------

    Doubly Occupied:

       1A    -20.583019     2A    -20.581923     3A    -11.367546
       4A    -11.367482     5A    -11.291730     6A    -11.289888
       7A    -11.289559     8A    -11.287950     9A     -1.405441
      10A     -1.402560    11A     -1.161026    12A     -1.076125
      13A     -0.970821    14A     -0.876337    15A     -0.831835
      16A     -0.714765    17A     -0.713208    18A     -0.689077
      19A     -0.641917    20A     -0.630218    21A     -0.602151
      22A     -0.593391    23A     -0.583663    24A     -0.549400
      25A     -0.467367    26A     -0.448497    27A     -0.414788
      28A     -0.411300

  @DF-RHF Final Energy:  -379.35647756707277

   => Energetics <=

    Nuclear Repulsion Energy =            321.2500372647831455
    One-Electron Energy =               -1152.7270664861941896
    Two-Electron Energy =                 452.1205516543382714
    Total Energy =                       -379.3564775670727727
  Basis Set: (AUG-CC-PVTZ AUX)
    Blend: AUG-CC-PVTZ-RI
    Molecular point group: c1

    Geometry (in Angstrom), charge = 0, multiplicity = 1:

       Center              X                  Y                   Z               Mass
    ------------   -----------------  -----------------  -----------------  -----------------
         O           -2.678548646293    -0.000000055545    -0.016677278984    15.994914619570
         O            2.678549353707    -0.000000055545    -0.016714278984    15.994914619570
         C           -1.440965646293    -0.000000055545    -0.016651278984    12.000000000000
         C            1.440967353707    -0.000000055545    -0.016679278984    12.000000000000
         C            0.674594353707    -1.266635055545    -0.016659278984    12.000000000000
         C           -0.674594646293    -1.266636055545    -0.016618278984    12.000000000000
         C            0.674595353707     1.266635944455    -0.016668278984    12.000000000000
         C           -0.674597746293     1.266635444455     0.133372721016    12.000000000000
         H            1.259422353707    -2.182927055545    -0.016656278984     1.007825032230
         H            1.259420353707     2.182928944455    -0.016672278984     1.007825032230
         H           -1.259420646293    -2.182929055545    -0.016598278984     1.007825032230
         H           -1.259421646293     2.182926944455    -0.016613278984     1.007825032230

  Basis Set: AUG-CC-PVTZ
    Blend: AUG-CC-PVTZ
  Basis Set: (AUG-CC-PVTZ AUX)
    Blend: AUG-CC-PVTZ-JKFIT
	 Reference Energy          =    -379.3564775670727727 [Eh]
	 Singles Energy            =      -0.0000000000000000 [Eh]
	 Same-Spin Energy          =      -0.3783415446144672 [Eh]
	 Opposite-Spin Energy      =      -1.1653927287507000 [Eh]
	 Correlation Energy        =      -1.5437342733651671 [Eh]
	 Total Energy              =    -380.9002118404379189 [Eh]

	 ================> DF-SCS-MP2 Energies <==================
	-----------------------------------------------------------
	 SCS Same-Spin Scale       =       0.3333333333333333 [-]
	 SCS Opposite-Spin Scale   =       1.2000000000000000 [-]
	 SCS Same-Spin Energy      =      -0.1261138482048224 [Eh]
	 SCS Opposite-Spin Energy  =      -1.3984712745008399 [Eh]
	 SCS Correlation Energy    =      -1.5245851227056622 [Eh]
	 SCS Total Energy          =    -380.8810626897784459 [Eh]
	-----------------------------------------------------------

  Dipole Moment: [D]
     X:     0.0273      Y:    -0.0228      Z:    -0.0620     Total:     0.0715

*** Psi4 exiting successfully. Buy a developer a beer!
