                               Psi4 1.3.2 release

  ==> Input File <==

--------------------------------------------------------------------------
#psi4
#
memory 32 gb

molecule  {
0 1
  O       -2.6785490     0.0000000    -0.0000150
  O        2.6785490     0.0000000    -0.0000520
  C       -1.4409660     0.0000000     0.0000110
  C        1.4409670     0.0000000    -0.0000170
  C        0.6745940    -1.2666350     0.0000030
  C       -0.6745950    -1.2666360     0.0000440
  C        0.6745950     1.2666360    -0.0000060
  C       -0.6745940     1.2666350     0.0000350
  H        1.2594220    -2.1829270     0.0000060
  H        1.2594200     2.1829290    -0.0000100
  H       -1.2594239    -2.1829329    -0.1499360
  H       -1.2594220     2.1829270     0.0000490
units angstrom
no_reorient  #important for SAPT in psi4, default
symmetry c1  #important for SAPT in psi4, default
}

set PROPERTIES_ORIGIN ["COM"]
properties('MP2/aug-cc-pvtz', properties = ['dipole'])
--------------------------------------------------------------------------

    Molecular point group: c1
  Charge       = 0
  Multiplicity = 1
  Basis Set: AUG-CC-PVTZ
    Blend: AUG-CC-PVTZ
  Basis Set: (AUG-CC-PVTZ AUX)
    Blend: AUG-CC-PVTZ-JKFIT

    Orbital Energies [Eh]
    ---------------------

    Doubly Occupied:

       1A    -20.582462     2A    -20.582341     3A    -11.367134
       4A    -11.367038     5A    -11.290017     6A    -11.289460
       7A    -11.288280     8A    -11.287865     9A     -1.405339
      10A     -1.402646    11A     -1.161987    12A     -1.076989
      13A     -0.971309    14A     -0.876530    15A     -0.832850
      16A     -0.715952    17A     -0.714074    18A     -0.688946
      19A     -0.642571    20A     -0.630668    21A     -0.603090
      22A     -0.593650    23A     -0.583996    24A     -0.549730
      25A     -0.467745    26A     -0.448988    27A     -0.414987
      28A     -0.411570

  @DF-RHF Final Energy:  -379.36148571791080

   => Energetics <=

    Nuclear Repulsion Energy =            321.4582667434482914
    One-Electron Energy =               -1153.1430808991276535
    Two-Electron Energy =                 452.3233284377685095
    Total Energy =                       -379.3614857179107958
  Basis Set: (AUG-CC-PVTZ AUX)
    Blend: AUG-CC-PVTZ-RI
    Molecular point group: c1

    Geometry (in Angstrom), charge = 0, multiplicity = 1:

       Center              X                  Y                   Z               Mass
    ------------   -----------------  -----------------  -----------------  -----------------
         O           -2.678549074703     0.000000036387     0.001385610807    15.994914619570
         O            2.678548925297     0.000000036387     0.001348610807    15.994914619570
         C           -1.440966074703     0.000000036387     0.001411610807    12.000000000000
         C            1.440966925297     0.000000036387     0.001383610807    12.000000000000
         C            0.674593925297    -1.266634963613     0.001403610807    12.000000000000
         C           -0.674595074703    -1.266635963613     0.001444610807    12.000000000000
         C            0.674594925297     1.266636036387     0.001394610807    12.000000000000
         C           -0.674594074703     1.266635036387     0.001435610807    12.000000000000
         H            1.259421925297    -2.182926963613     0.001406610807     1.007825032230
         H            1.259419925297     2.182929036387     0.001390610807     1.007825032230
         H           -1.259423974703    -2.182932863613    -0.148535389193     1.007825032230
         H           -1.259422074703     2.182927036387     0.001449610807     1.007825032230

  Basis Set: AUG-CC-PVTZ
    Blend: AUG-CC-PVTZ
  Basis Set: (AUG-CC-PVTZ AUX)
    Blend: AUG-CC-PVTZ-JKFIT
	 Reference Energy          =    -379.3614857179107958 [Eh]
	 Singles Energy            =      -0.0000000000000000 [Eh]
	 Same-Spin Energy          =      -0.3780420868378614 [Eh]
	 Opposite-Spin Energy      =      -1.1644387673222591 [Eh]
	 Correlation Energy        =      -1.5424808541601207 [Eh]
	 Total Energy              =    -380.9039665720709422 [Eh]

	 ================> DF-SCS-MP2 Energies <==================
	-----------------------------------------------------------
	 SCS Same-Spin Scale       =       0.3333333333333333 [-]
	 SCS Opposite-Spin Scale   =       1.2000000000000000 [-]
	 SCS Same-Spin Energy      =      -0.1260140289459538 [Eh]
	 SCS Opposite-Spin Energy  =      -1.3973265207867109 [Eh]
	 SCS Correlation Energy    =      -1.5233405497326649 [Eh]
	 SCS Total Energy          =    -380.8848262676434615 [Eh]
	-----------------------------------------------------------

  Dipole Moment: [D]
     X:     0.0064      Y:     0.0096      Z:    -0.0909     Total:     0.0916

*** Psi4 exiting successfully. Buy a developer a beer!
