                               Psi4 1.3.2 release

  ==> Input File <==

--------------------------------------------------------------------------
#psi4
#
memory 32 gb

molecule  {
0 1
  O       -2.6785490     0.0000000    -0.0000150
  O        2.6785490     0.0000000    -0.0000520
  C       -1.4409660     0.0000000     0.0000110
  C        1.4409670     0.0000000    -0.0000170
  C        0.6745940    -1.2666350     0.0000030
  C       -0.6745950    -1.2666360     0.0000440
  C        0.6745950     1.2666360    -0.0000060
  C       -0.6745940     1.2666350     0.0000350
  H        1.2594220    -2.1829270     0.0000060
  H        1.2594200     2.1829290    -0.0000100
  H       -1.2594268    -2.1829368    -0.2999360
  H       -1.2594220     2.1829270     0.0000490
units angstrom
no_reorient  #important for SAPT in psi4, default
symmetry c1  #important for SAPT in psi4, default
}

set PROPERTIES_ORIGIN ["COM"]
properties('MP2/aug-cc-pvtz', properties = ['dipole'])
--------------------------------------------------------------------------

    Molecular point group: c1
  Charge       = 0
  Multiplicity = 1
  Basis Set: AUG-CC-PVTZ
    Blend: AUG-CC-PVTZ
  Basis Set: (AUG-CC-PVTZ AUX)
    Blend: AUG-CC-PVTZ-JKFIT

    Orbital Energies [Eh]
    ---------------------

    Doubly Occupied:

       1A    -20.582734     2A    -20.582255     3A    -11.367414
       4A    -11.367043     5A    -11.292315     6A    -11.289660
       7A    -11.289211     8A    -11.288064     9A     -1.405429
      10A     -1.402688    11A     -1.162060    12A     -1.076625
      13A     -0.971125    14A     -0.875392    15A     -0.832130
      16A     -0.716070    17A     -0.713050    18A     -0.687559
      19A     -0.640936    20A     -0.629445    21A     -0.603287
      22A     -0.593932    23A     -0.580938    24A     -0.549502
      25A     -0.467814    26A     -0.449427    27A     -0.414834
      28A     -0.410574

  @DF-RHF Final Energy:  -379.35664500560256

   => Energetics <=

    Nuclear Repulsion Energy =            321.3419060617354148
    One-Electron Energy =               -1152.9140752756757138
    Two-Electron Energy =                 452.2155242083376834
    Total Energy =                       -379.3566450056025587
  Basis Set: (AUG-CC-PVTZ AUX)
    Blend: AUG-CC-PVTZ-RI
    Molecular point group: c1

    Geometry (in Angstrom), charge = 0, multiplicity = 1:

       Center              X                  Y                   Z               Mass
    ------------   -----------------  -----------------  -----------------  -----------------
         O           -2.678549047646     0.000000072773     0.002785093998    15.994914619570
         O            2.678548952354     0.000000072773     0.002748093998    15.994914619570
         C           -1.440966047646     0.000000072773     0.002811093998    12.000000000000
         C            1.440966952354     0.000000072773     0.002783093998    12.000000000000
         C            0.674593952354    -1.266634927227     0.002803093998    12.000000000000
         C           -0.674595047646    -1.266635927227     0.002844093998    12.000000000000
         C            0.674594952354     1.266636072773     0.002794093998    12.000000000000
         C           -0.674594047646     1.266635072773     0.002835093998    12.000000000000
         H            1.259421952354    -2.182926927227     0.002806093998     1.007825032230
         H            1.259419952354     2.182929072773     0.002790093998     1.007825032230
         H           -1.259426847646    -2.182936727227    -0.297135906002     1.007825032230
         H           -1.259422047646     2.182927072773     0.002849093998     1.007825032230

  Basis Set: AUG-CC-PVTZ
    Blend: AUG-CC-PVTZ
  Basis Set: (AUG-CC-PVTZ AUX)
    Blend: AUG-CC-PVTZ-JKFIT
	 Reference Energy          =    -379.3566450056025587 [Eh]
	 Singles Energy            =      -0.0000000000000000 [Eh]
	 Same-Spin Energy          =      -0.3782884924417315 [Eh]
	 Opposite-Spin Energy      =      -1.1650826969255501 [Eh]
	 Correlation Energy        =      -1.5433711893672815 [Eh]
	 Total Energy              =    -380.9000161949698509 [Eh]

	 ================> DF-SCS-MP2 Energies <==================
	-----------------------------------------------------------
	 SCS Same-Spin Scale       =       0.3333333333333333 [-]
	 SCS Opposite-Spin Scale   =       1.2000000000000000 [-]
	 SCS Same-Spin Energy      =      -0.1260961641472438 [Eh]
	 SCS Opposite-Spin Energy  =      -1.3980992363106601 [Eh]
	 SCS Correlation Energy    =      -1.5241954004579039 [Eh]
	 SCS Total Energy          =    -380.8808404060604857 [Eh]
	-----------------------------------------------------------

  Dipole Moment: [D]
     X:     0.0249      Y:     0.0378      Z:    -0.1799     Total:     0.1855

*** Psi4 exiting successfully. Buy a developer a beer!
