                               Psi4 1.3.2 release

  ==> Input File <==

--------------------------------------------------------------------------
#psi4
#
memory 32 gb

molecule  {
0 1
  O       -2.6785490     0.0000000    -0.0000150
  O        2.6785490     0.0000000    -0.0000520
  C       -1.4409660     0.0000000     0.0000110
  C        1.4409670     0.0000000    -0.0000170
  C        0.6745940    -1.2666350     0.0000030
  C       -0.6745950    -1.2666360     0.0000440
  C        0.6745950     1.2666360    -0.0000060
  C       -0.6745940     1.2666350     0.0000350
  H        1.2594220    -2.1829270     0.0000060
  H        1.2594200     2.1829290    -0.0000100
  H       -1.2594249    -2.1829342    -0.1999360
  H       -1.2594220     2.1829270     0.0000490
units angstrom
no_reorient  #important for SAPT in psi4, default
symmetry c1  #important for SAPT in psi4, default
}

set PROPERTIES_ORIGIN ["COM"]
properties('MP2/aug-cc-pvtz', properties = ['dipole'])
--------------------------------------------------------------------------

    Molecular point group: c1
  Charge       = 0
  Multiplicity = 1
  Basis Set: AUG-CC-PVTZ
    Blend: AUG-CC-PVTZ
  Basis Set: (AUG-CC-PVTZ AUX)
    Blend: AUG-CC-PVTZ-JKFIT

    Orbital Energies [Eh]
    ---------------------

    Doubly Occupied:

       1A    -20.582531     2A    -20.582317     3A    -11.367205
       4A    -11.367036     5A    -11.290573     6A    -11.289511
       7A    -11.288571     8A    -11.287915     9A     -1.405358
      10A     -1.402658    11A     -1.162003    12A     -1.076886
      13A     -0.971255    14A     -0.876211    15A     -0.832652
      16A     -0.715979    17A     -0.713773    18A     -0.688567
      19A     -0.642095    20A     -0.630385    21A     -0.603148
      22A     -0.593728    23A     -0.583209    24A     -0.549674
      25A     -0.467761    26A     -0.449108    27A     -0.414928
      28A     -0.411318

  @DF-RHF Final Energy:  -379.36029955556819

   => Energetics <=

    Nuclear Repulsion Energy =            321.4274186645497480
    One-Electron Energy =               -1153.0827303735152327
    Two-Electron Energy =                 452.2950121533972379
    Total Energy =                       -379.3602995555681900
  Basis Set: (AUG-CC-PVTZ AUX)
    Blend: AUG-CC-PVTZ-RI
    Molecular point group: c1

    Geometry (in Angstrom), charge = 0, multiplicity = 1:

       Center              X                  Y                   Z               Mass
    ------------   -----------------  -----------------  -----------------  -----------------
         O           -2.678549065373     0.000000048515     0.001852105204    15.994914619570
         O            2.678548934627     0.000000048515     0.001815105204    15.994914619570
         C           -1.440966065373     0.000000048515     0.001878105204    12.000000000000
         C            1.440966934627     0.000000048515     0.001850105204    12.000000000000
         C            0.674593934627    -1.266634951485     0.001870105204    12.000000000000
         C           -0.674595065373    -1.266635951485     0.001911105204    12.000000000000
         C            0.674594934627     1.266636048515     0.001861105204    12.000000000000
         C           -0.674594065373     1.266635048515     0.001902105204    12.000000000000
         H            1.259421934627    -2.182926951485     0.001873105204     1.007825032230
         H            1.259419934627     2.182929048515     0.001857105204     1.007825032230
         H           -1.259424965373    -2.182934151485    -0.198068894796     1.007825032230
         H           -1.259422065373     2.182927048515     0.001916105204     1.007825032230

  Basis Set: AUG-CC-PVTZ
    Blend: AUG-CC-PVTZ
  Basis Set: (AUG-CC-PVTZ AUX)
    Blend: AUG-CC-PVTZ-JKFIT
	 Reference Energy          =    -379.3602995555681900 [Eh]
	 Singles Energy            =      -0.0000000000000000 [Eh]
	 Same-Spin Energy          =      -0.3781071688608760 [Eh]
	 Opposite-Spin Energy      =      -1.1646036041384340 [Eh]
	 Correlation Energy        =      -1.5427107729993099 [Eh]
	 Total Energy              =    -380.9030103285675182 [Eh]

	 ================> DF-SCS-MP2 Energies <==================
	-----------------------------------------------------------
	 SCS Same-Spin Scale       =       0.3333333333333333 [-]
	 SCS Opposite-Spin Scale   =       1.2000000000000000 [-]
	 SCS Same-Spin Energy      =      -0.1260357229536253 [Eh]
	 SCS Opposite-Spin Energy  =      -1.3975243249661207 [Eh]
	 SCS Correlation Energy    =      -1.5235600479197460 [Eh]
	 SCS Total Energy          =    -380.8838596034879629 [Eh]
	-----------------------------------------------------------

  Dipole Moment: [D]
     X:     0.0113      Y:     0.0169      Z:    -0.1208     Total:     0.1225

*** Psi4 exiting successfully. Buy a developer a beer!
