                               Psi4 1.3.2 release

  ==> Input File <==

--------------------------------------------------------------------------
#psi4
#
memory 32 gb

molecule  {
0 1
  O       -2.6785490     0.0000000    -0.0000150
  O        2.6785490     0.0000000    -0.0000520
  C       -1.4409660     0.0000000     0.0000110
  C        1.4409670     0.0000000    -0.0000170
  C        0.6745940    -1.2666350     0.0000030
  C       -0.6745950    -1.2666360     0.0000440
  C        0.6745950     1.2666360    -0.0000060
  C       -0.6745940     1.2666350     0.0000350
  H        1.2594220    -2.1829270     0.0000060
  H        1.2594200     2.1829290    -0.0000100
  H       -1.2594229    -2.1829316    -0.0999360
  H       -1.2594220     2.1829270     0.0000490
units angstrom
no_reorient  #important for SAPT in psi4, default
symmetry c1  #important for SAPT in psi4, default
}

set PROPERTIES_ORIGIN ["COM"]
properties('MP2/aug-cc-pvtz', properties = ['dipole'])
--------------------------------------------------------------------------

    Molecular point group: c1
  Charge       = 0
  Multiplicity = 1
  Basis Set: AUG-CC-PVTZ
    Blend: AUG-CC-PVTZ
  Basis Set: (AUG-CC-PVTZ AUX)
    Blend: AUG-CC-PVTZ-JKFIT

    Orbital Energies [Eh]
    ---------------------

    Doubly Occupied:

       1A    -20.582414     2A    -20.582360     3A    -11.367085
       4A    -11.367041     5A    -11.289658     6A    -11.289425
       7A    -11.288033     8A    -11.287830     9A     -1.405328
      10A     -1.402638    11A     -1.161977    12A     -1.077067
      13A     -0.971352    14A     -0.876769    15A     -0.832997
      16A     -0.715936    17A     -0.714305    18A     -0.689225
      19A     -0.642935    20A     -0.630855    21A     -0.603045
      22A     -0.593590    23A     -0.584558    24A     -0.549768
      25A     -0.467736    26A     -0.448900    27A     -0.415041
      28A     -0.411745

  @DF-RHF Final Energy:  -379.36229915547557

   => Energetics <=

    Nuclear Repulsion Energy =            321.4806081777454665
    One-Electron Energy =               -1153.1865877251732400
    Two-Electron Energy =                 452.3436803919522049
    Total Energy =                       -379.3622991554755686
  Basis Set: (AUG-CC-PVTZ AUX)
    Blend: AUG-CC-PVTZ-RI
    Molecular point group: c1

    Geometry (in Angstrom), charge = 0, multiplicity = 1:

       Center              X                  Y                   Z               Mass
    ------------   -----------------  -----------------  -----------------  -----------------
         O           -2.678549084033     0.000000024258     0.000919116410    15.994914619570
         O            2.678548915967     0.000000024258     0.000882116410    15.994914619570
         C           -1.440966084033     0.000000024258     0.000945116410    12.000000000000
         C            1.440966915967     0.000000024258     0.000917116410    12.000000000000
         C            0.674593915967    -1.266634975742     0.000937116410    12.000000000000
         C           -0.674595084033    -1.266635975742     0.000978116410    12.000000000000
         C            0.674594915967     1.266636024258     0.000928116410    12.000000000000
         C           -0.674594084033     1.266635024258     0.000969116410    12.000000000000
         H            1.259421915967    -2.182926975742     0.000940116410     1.007825032230
         H            1.259419915967     2.182929024258     0.000924116410     1.007825032230
         H           -1.259422984033    -2.182931575742    -0.099001883590     1.007825032230
         H           -1.259422084033     2.182927024258     0.000983116410     1.007825032230

  Basis Set: AUG-CC-PVTZ
    Blend: AUG-CC-PVTZ
  Basis Set: (AUG-CC-PVTZ AUX)
    Blend: AUG-CC-PVTZ-JKFIT
	 Reference Energy          =    -379.3622991554755686 [Eh]
	 Singles Energy            =      -0.0000000000000000 [Eh]
	 Same-Spin Energy          =      -0.3779949214301878 [Eh]
	 Opposite-Spin Energy      =      -1.1643233941592332 [Eh]
	 Correlation Energy        =      -1.5423183155894211 [Eh]
	 Total Energy              =    -380.9046174710649666 [Eh]

	 ================> DF-SCS-MP2 Energies <==================
	-----------------------------------------------------------
	 SCS Same-Spin Scale       =       0.3333333333333333 [-]
	 SCS Opposite-Spin Scale   =       1.2000000000000000 [-]
	 SCS Same-Spin Energy      =      -0.1259983071433959 [Eh]
	 SCS Opposite-Spin Energy  =      -1.3971880729910799 [Eh]
	 SCS Correlation Energy    =      -1.5231863801344758 [Eh]
	 SCS Total Energy          =    -380.8854855356100302 [Eh]
	-----------------------------------------------------------

  Dipole Moment: [D]
     X:     0.0029      Y:     0.0043      Z:    -0.0607     Total:     0.0609

*** Psi4 exiting successfully. Buy a developer a beer!
