                               Psi4 1.3.2 release

  ==> Input File <==

--------------------------------------------------------------------------
#psi4
#
memory 32 gb

molecule  {
0 1
  O       -2.6785490     0.0000000    -0.0000150
  O        2.6785490     0.0000000    -0.0000520
  C       -1.4409660     0.0000000     0.0000110
  C        1.4409670     0.0000000    -0.0000170
  C        0.6745940    -1.2666350     0.0000030
  C       -0.6745950    -1.2666360     0.0000440
  C        0.6745950     1.2666360    -0.0000060
  C       -0.6745954     1.2666352     0.0500350
  H        1.2594220    -2.1829270     0.0000060
  H        1.2594200     2.1829290    -0.0000100
  H       -1.2594210    -2.1829290     0.0000640
  H       -1.2594220     2.1829270     0.0000490
units angstrom
no_reorient  #important for SAPT in psi4, default
symmetry c1  #important for SAPT in psi4, default
}

set PROPERTIES_ORIGIN ["COM"]
properties('MP2/aug-cc-pvtz', properties = ['dipole'])
--------------------------------------------------------------------------

    Molecular point group: c1
  Charge       = 0
  Multiplicity = 1
  Basis Set: AUG-CC-PVTZ
    Blend: AUG-CC-PVTZ
  Basis Set: (AUG-CC-PVTZ AUX)
    Blend: AUG-CC-PVTZ-JKFIT

    Orbital Energies [Eh]
    ---------------------

    Doubly Occupied:

       1A    -20.582443     2A    -20.582320     3A    -11.367101
       4A    -11.367088     5A    -11.289641     6A    -11.289411
       7A    -11.288048     8A    -11.287815     9A     -1.405319
      10A     -1.402630    11A     -1.161859    12A     -1.077016
      13A     -0.971320    14A     -0.876892    15A     -0.832968
      16A     -0.715760    17A     -0.714376    18A     -0.689404
      19A     -0.643071    20A     -0.630920    21A     -0.602909
      22A     -0.593518    23A     -0.584861    24A     -0.549750
      25A     -0.467681    26A     -0.448792    27A     -0.415050
      28A     -0.411817

  @DF-RHF Final Energy:  -379.36221836976432

   => Energetics <=

    Nuclear Repulsion Energy =            321.4708300087824568
    One-Electron Energy =               -1153.1665371125097863
    Two-Electron Energy =                 452.3334887339629518
    Total Energy =                       -379.3622183697643209
  Basis Set: (AUG-CC-PVTZ AUX)
    Blend: AUG-CC-PVTZ-RI
    Molecular point group: c1

    Geometry (in Angstrom), charge = 0, multiplicity = 1:

       Center              X                  Y                   Z               Mass
    ------------   -----------------  -----------------  -----------------  -----------------
         O           -2.678548946234    -0.000000022218    -0.005568341251    15.994914619570
         O            2.678549053766    -0.000000022218    -0.005605341251    15.994914619570
         C           -1.440965946234    -0.000000022218    -0.005542341251    12.000000000000
         C            1.440967053766    -0.000000022218    -0.005570341251    12.000000000000
         C            0.674594053766    -1.266635022218    -0.005550341251    12.000000000000
         C           -0.674594946234    -1.266636022218    -0.005509341251    12.000000000000
         C            0.674595053766     1.266635977782    -0.005559341251    12.000000000000
         C           -0.674595346234     1.266635177782     0.044481658749    12.000000000000
         H            1.259422053766    -2.182927022218    -0.005547341251     1.007825032230
         H            1.259420053766     2.182928977782    -0.005563341251     1.007825032230
         H           -1.259420946234    -2.182929022218    -0.005489341251     1.007825032230
         H           -1.259421946234     2.182926977782    -0.005504341251     1.007825032230

  Basis Set: AUG-CC-PVTZ
    Blend: AUG-CC-PVTZ
  Basis Set: (AUG-CC-PVTZ AUX)
    Blend: AUG-CC-PVTZ-JKFIT
	 Reference Energy          =    -379.3622183697643209 [Eh]
	 Singles Energy            =      -0.0000000000000000 [Eh]
	 Same-Spin Energy          =      -0.3780007752259131 [Eh]
	 Opposite-Spin Energy      =      -1.1643633280764871 [Eh]
	 Correlation Energy        =      -1.5423641033024003 [Eh]
	 Total Energy              =    -380.9045824730667391 [Eh]

	 ================> DF-SCS-MP2 Energies <==================
	-----------------------------------------------------------
	 SCS Same-Spin Scale       =       0.3333333333333333 [-]
	 SCS Opposite-Spin Scale   =       1.2000000000000000 [-]
	 SCS Same-Spin Energy      =      -0.1260002584086377 [Eh]
	 SCS Opposite-Spin Energy  =      -1.3972359936917844 [Eh]
	 SCS Correlation Energy    =      -1.5232362521004221 [Eh]
	 SCS Total Energy          =    -380.8854546218647670 [Eh]
	-----------------------------------------------------------

  Dipole Moment: [D]
     X:     0.0032      Y:    -0.0026      Z:    -0.0199     Total:     0.0204

*** Psi4 exiting successfully. Buy a developer a beer!
