                               Psi4 1.3.2 release

  ==> Input File <==

--------------------------------------------------------------------------
#psi4
#
memory 32 gb

molecule  {
0 1
  O       -2.6785490     0.0000000    -0.0000150
  O        2.6785490     0.0000000    -0.0000520
  C       -1.4409660     0.0000000     0.0000110
  C        1.4409670     0.0000000    -0.0000170
  C        0.6745940    -1.2666350     0.0000030
  C       -0.6745950    -1.2666360     0.0000440
  C        0.6745950     1.2666360    -0.0000060
  C       -0.6745940     1.2666350     0.0000350
  H        1.2594220    -2.1829270     0.0000060
  H        1.2594200     2.1829290    -0.0000100
  H       -1.2594210    -2.1829290     0.0000640
  H       -1.2594220     2.1829270     0.0000490
units angstrom
no_reorient  #important for SAPT in psi4, default
symmetry c1  #important for SAPT in psi4, default
}

set PROPERTIES_ORIGIN ["COM"]
properties('MP2/aug-cc-pvtz', properties = ['dipole'])
--------------------------------------------------------------------------

    Molecular point group: c1
  Charge       = 0
  Multiplicity = 1
  Basis Set: AUG-CC-PVTZ
    Blend: AUG-CC-PVTZ
  Basis Set: (AUG-CC-PVTZ AUX)
    Blend: AUG-CC-PVTZ-JKFIT

    Orbital Energies [Eh]
    ---------------------

    Doubly Occupied:

       1A    -20.582377     2A    -20.582377     3A    -11.367051
       4A    -11.367042     5A    -11.289416     6A    -11.289384
       7A    -11.287812     8A    -11.287797     9A     -1.405321
      10A     -1.402632    11A     -1.161972    12A     -1.077133
      13A     -0.971389    14A     -0.876968    15A     -0.833119
      16A     -0.715926    17A     -0.714501    18A     -0.689454
      19A     -0.643238    20A     -0.630997    21A     -0.603008
      22A     -0.593539    23A     -0.585008    24A     -0.549799
      25A     -0.467729    26A     -0.448830    27A     -0.415092
      28A     -0.411881

  @DF-RHF Final Energy:  -379.36292805779613

   => Energetics <=

    Nuclear Repulsion Energy =            321.4986721964805838
    One-Electron Energy =               -1153.2216132623475460
    Two-Electron Energy =                 452.3600130080708368
    Total Energy =                       -379.3629280577961254
  Basis Set: (AUG-CC-PVTZ AUX)
    Blend: AUG-CC-PVTZ-RI
    Molecular point group: c1

    Geometry (in Angstrom), charge = 0, multiplicity = 1:

       Center              X                  Y                   Z               Mass
    ------------   -----------------  -----------------  -----------------  -----------------
         O           -2.678549101759     0.000000000000    -0.000013872384    15.994914619570
         O            2.678548898241     0.000000000000    -0.000050872384    15.994914619570
         C           -1.440966101759     0.000000000000     0.000012127616    12.000000000000
         C            1.440966898241     0.000000000000    -0.000015872384    12.000000000000
         C            0.674593898241    -1.266635000000     0.000004127616    12.000000000000
         C           -0.674595101759    -1.266636000000     0.000045127616    12.000000000000
         C            0.674594898241     1.266636000000    -0.000004872384    12.000000000000
         C           -0.674594101759     1.266635000000     0.000036127616    12.000000000000
         H            1.259421898241    -2.182927000000     0.000007127616     1.007825032230
         H            1.259419898241     2.182929000000    -0.000008872384     1.007825032230
         H           -1.259421101759    -2.182929000000     0.000065127616     1.007825032230
         H           -1.259422101759     2.182927000000     0.000050127616     1.007825032230

  Basis Set: AUG-CC-PVTZ
    Blend: AUG-CC-PVTZ
  Basis Set: (AUG-CC-PVTZ AUX)
    Blend: AUG-CC-PVTZ-JKFIT
	 Reference Energy          =    -379.3629280577961254 [Eh]
	 Singles Energy            =      -0.0000000000000000 [Eh]
	 Same-Spin Energy          =      -0.3779566658682465 [Eh]
	 Opposite-Spin Energy      =      -1.1642338380561703 [Eh]
	 Correlation Energy        =      -1.5421905039244168 [Eh]
	 Total Energy              =    -380.9051185617205419 [Eh]

	 ================> DF-SCS-MP2 Energies <==================
	-----------------------------------------------------------
	 SCS Same-Spin Scale       =       0.3333333333333333 [-]
	 SCS Opposite-Spin Scale   =       1.2000000000000000 [-]
	 SCS Same-Spin Energy      =      -0.1259855552894155 [Eh]
	 SCS Opposite-Spin Energy  =      -1.3970806056674043 [Eh]
	 SCS Correlation Energy    =      -1.5230661609568199 [Eh]
	 SCS Total Energy          =    -380.8859942187529555 [Eh]
	-----------------------------------------------------------

  Dipole Moment: [D]
     X:     0.0000      Y:     0.0000      Z:     0.0001     Total:     0.0001

*** Psi4 exiting successfully. Buy a developer a beer!
