                               Psi4 1.3.2 release

  ==> Input File <==

--------------------------------------------------------------------------
#psi4
#
memory 32 gb

molecule  {
0 1
  O       -2.6785490     0.0000000    -0.0000150
  O        2.6785490     0.0000000    -0.0000520
  C       -1.4409660     0.0000000     0.0000110
  C        1.4409670     0.0000000    -0.0000170
  C        0.6745940    -1.2666350     0.0000030
  C       -0.6745950    -1.2666360     0.0000440
  C        0.6745950     1.2666360    -0.0000060
  C       -0.6745994     1.2666357     0.2000350
  H        1.2594220    -2.1829270     0.0000060
  H        1.2594200     2.1829290    -0.0000100
  H       -1.2594210    -2.1829290     0.0000640
  H       -1.2594220     2.1829270     0.0000490
units angstrom
no_reorient  #important for SAPT in psi4, default
symmetry c1  #important for SAPT in psi4, default
}

set PROPERTIES_ORIGIN ["COM"]
properties('MP2/aug-cc-pvtz', properties = ['dipole'])
--------------------------------------------------------------------------

    Molecular point group: c1
  Charge       = 0
  Multiplicity = 1
  Basis Set: AUG-CC-PVTZ
    Blend: AUG-CC-PVTZ
  Basis Set: (AUG-CC-PVTZ AUX)
    Blend: AUG-CC-PVTZ-JKFIT

    Orbital Energies [Eh]
    ---------------------

    Doubly Occupied:

       1A    -20.583539     2A    -20.581611     3A    -11.367940
       4A    -11.367844     5A    -11.293691     6A    -11.291334
       7A    -11.289718     8A    -11.288080     9A     -1.405681
      10A     -1.402409    11A     -1.160337    12A     -1.075352
      13A     -0.970416    14A     -0.875888    15A     -0.830908
      16A     -0.714226    17A     -0.712001    18A     -0.688858
      19A     -0.641142    20A     -0.629435    21A     -0.601490
      22A     -0.593313    23A     -0.582535    24A     -0.549111
      25A     -0.467148    26A     -0.448208    27A     -0.414631
      28A     -0.410822

  @DF-RHF Final Energy:  -379.35138724356585

   => Energetics <=

    Nuclear Repulsion Energy =            321.0592633377693232
    One-Electron Energy =               -1152.3459685769078078
    Two-Electron Energy =                 451.9353179955725750
    Total Energy =                       -379.3513872435658527
  Basis Set: (AUG-CC-PVTZ AUX)
    Blend: AUG-CC-PVTZ-RI
    Molecular point group: c1

    Geometry (in Angstrom), charge = 0, multiplicity = 1:

       Center              X                  Y                   Z               Mass
    ------------   -----------------  -----------------  -----------------  -----------------
         O           -2.678548501877    -0.000000077763    -0.022231747850    15.994914619570
         O            2.678549498123    -0.000000077763    -0.022268747850    15.994914619570
         C           -1.440965501877    -0.000000077763    -0.022205747850    12.000000000000
         C            1.440967498123    -0.000000077763    -0.022233747850    12.000000000000
         C            0.674594498123    -1.266635077763    -0.022213747850    12.000000000000
         C           -0.674594501877    -1.266636077763    -0.022172747850    12.000000000000
         C            0.674595498123     1.266635922237    -0.022222747850    12.000000000000
         C           -0.674598901877     1.266635622237     0.177818252150    12.000000000000
         H            1.259422498123    -2.182927077763    -0.022210747850     1.007825032230
         H            1.259420498123     2.182928922237    -0.022226747850     1.007825032230
         H           -1.259420501877    -2.182929077763    -0.022152747850     1.007825032230
         H           -1.259421501877     2.182926922237    -0.022167747850     1.007825032230

  Basis Set: AUG-CC-PVTZ
    Blend: AUG-CC-PVTZ
  Basis Set: (AUG-CC-PVTZ AUX)
    Blend: AUG-CC-PVTZ-JKFIT
	 Reference Energy          =    -379.3513872435658527 [Eh]
	 Singles Energy            =      -0.0000000000000000 [Eh]
	 Same-Spin Energy          =      -0.3786373640480599 [Eh]
	 Opposite-Spin Energy      =      -1.1662786569604902 [Eh]
	 Correlation Energy        =      -1.5449160210085502 [Eh]
	 Total Energy              =    -380.8963032645743851 [Eh]

	 ================> DF-SCS-MP2 Energies <==================
	-----------------------------------------------------------
	 SCS Same-Spin Scale       =       0.3333333333333333 [-]
	 SCS Opposite-Spin Scale   =       1.2000000000000000 [-]
	 SCS Same-Spin Energy      =      -0.1262124546826866 [Eh]
	 SCS Opposite-Spin Energy  =      -1.3995343883525881 [Eh]
	 SCS Correlation Energy    =      -1.5257468430352747 [Eh]
	 SCS Total Energy          =    -380.8771340866011315 [Eh]
	-----------------------------------------------------------

  Dipole Moment: [D]
     X:     0.0472      Y:    -0.0409      Z:    -0.0853     Total:     0.1056

*** Psi4 exiting successfully. Buy a developer a beer!
