                               Psi4 1.3.2 release

  ==> Input File <==

--------------------------------------------------------------------------
#psi4
#
memory 32 gb

molecule  {
0 1
  O       -2.6785490     0.0000000    -0.0000150
  O        2.6785490     0.0000000    -0.0000520
  C       -1.4409660     0.0000000     0.0000110
  C        1.4409670     0.0000000    -0.0000170
  C        0.6745940    -1.2666350     0.0000030
  C       -0.6745950    -1.2666360     0.0000440
  C        0.6745950     1.2666360    -0.0000060
  C       -0.6745967     1.2666354     0.1000350
  H        1.2594220    -2.1829270     0.0000060
  H        1.2594200     2.1829290    -0.0000100
  H       -1.2594210    -2.1829290     0.0000640
  H       -1.2594220     2.1829270     0.0000490
units angstrom
no_reorient  #important for SAPT in psi4, default
symmetry c1  #important for SAPT in psi4, default
}

set PROPERTIES_ORIGIN ["COM"]
properties('MP2/aug-cc-pvtz', properties = ['dipole'])
--------------------------------------------------------------------------

    Molecular point group: c1
  Charge       = 0
  Multiplicity = 1
  Basis Set: AUG-CC-PVTZ
    Blend: AUG-CC-PVTZ
  Basis Set: (AUG-CC-PVTZ AUX)
    Blend: AUG-CC-PVTZ-JKFIT

    Orbital Energies [Eh]
    ---------------------

    Doubly Occupied:

       1A    -20.582654     2A    -20.582163     3A    -11.367264
       4A    -11.367231     5A    -11.290395     6A    -11.289459
       7A    -11.288764     8A    -11.287861     9A     -1.405341
      10A     -1.402617    11A     -1.161538    12A     -1.076678
      13A     -0.971125    14A     -0.876676    15A     -0.832530
      16A     -0.715322    17A     -0.713975    18A     -0.689269
      19A     -0.642603    20A     -0.630678    21A     -0.602622
      22A     -0.593464    23A     -0.584421    24A     -0.549614
      25A     -0.467553    26A     -0.448683    27A     -0.414939
      28A     -0.411626

  @DF-RHF Final Energy:  -379.36007698674456

   => Energetics <=

    Nuclear Repulsion Energy =            321.3876755071233902
    One-Electron Energy =               -1153.0013714534611609
    Two-Electron Energy =                 452.2536189595932115
    Total Energy =                       -379.3600769867445592
  Basis Set: (AUG-CC-PVTZ AUX)
    Blend: AUG-CC-PVTZ-RI
    Molecular point group: c1

    Geometry (in Angstrom), charge = 0, multiplicity = 1:

       Center              X                  Y                   Z               Mass
    ------------   -----------------  -----------------  -----------------  -----------------
         O           -2.678548801818    -0.000000044436    -0.011122810117    15.994914619570
         O            2.678549198182    -0.000000044436    -0.011159810117    15.994914619570
         C           -1.440965801818    -0.000000044436    -0.011096810117    12.000000000000
         C            1.440967198182    -0.000000044436    -0.011124810117    12.000000000000
         C            0.674594198182    -1.266635044436    -0.011104810117    12.000000000000
         C           -0.674594801818    -1.266636044436    -0.011063810117    12.000000000000
         C            0.674595198182     1.266635955564    -0.011113810117    12.000000000000
         C           -0.674596501818     1.266635355564     0.088927189883    12.000000000000
         H            1.259422198182    -2.182927044436    -0.011101810117     1.007825032230
         H            1.259420198182     2.182928955564    -0.011117810117     1.007825032230
         H           -1.259420801818    -2.182929044436    -0.011043810117     1.007825032230
         H           -1.259421801818     2.182926955564    -0.011058810117     1.007825032230

  Basis Set: AUG-CC-PVTZ
    Blend: AUG-CC-PVTZ
  Basis Set: (AUG-CC-PVTZ AUX)
    Blend: AUG-CC-PVTZ-JKFIT
	 Reference Energy          =    -379.3600769867445592 [Eh]
	 Singles Energy            =      -0.0000000000000000 [Eh]
	 Same-Spin Energy          =      -0.3781295071415492 [Eh]
	 Opposite-Spin Energy      =      -1.1647504334127836 [Eh]
	 Correlation Energy        =      -1.5428799405543328 [Eh]
	 Total Energy              =    -380.9029569272988738 [Eh]

	 ================> DF-SCS-MP2 Energies <==================
	-----------------------------------------------------------
	 SCS Same-Spin Scale       =       0.3333333333333333 [-]
	 SCS Opposite-Spin Scale   =       1.2000000000000000 [-]
	 SCS Same-Spin Energy      =      -0.1260431690471830 [Eh]
	 SCS Opposite-Spin Energy  =      -1.3977005200953403 [Eh]
	 SCS Correlation Energy    =      -1.5237436891425233 [Eh]
	 SCS Total Energy          =    -380.8838206758870797 [Eh]
	-----------------------------------------------------------

  Dipole Moment: [D]
     X:     0.0125      Y:    -0.0101      Z:    -0.0404     Total:     0.0435

*** Psi4 exiting successfully. Buy a developer a beer!
