                               Psi4 1.3.2 release

  ==> Input File <==

--------------------------------------------------------------------------
#psi4
#
memory 32 gb

molecule  {
0 1
  O       -2.6785490     0.0000000    -0.0000150
  O        2.6785490     0.0000000    -0.0000520
  C       -1.4409660     0.0000000     0.0000110
  C        1.4409670     0.0000000    -0.0000170
  C        0.6745940    -1.2666350     0.0000030
  C       -0.6745950    -1.2666360     0.0000440
  C        0.6745950     1.2666360    -0.0000060
  C       -0.6745940     1.2666350     0.0000350
  H        1.2594220    -2.1829270     0.0000060
  H        1.2594200     2.1829290    -0.0000100
  H       -1.2594220    -2.1829303    -0.0499360
  H       -1.2594220     2.1829270     0.0000490
units angstrom
no_reorient  #important for SAPT in psi4, default
symmetry c1  #important for SAPT in psi4, default
}

set PROPERTIES_ORIGIN ["COM"]
properties('MP2/aug-cc-pvtz', properties = ['dipole'])
--------------------------------------------------------------------------

    Molecular point group: c1
  Charge       = 0
  Multiplicity = 1
  Basis Set: AUG-CC-PVTZ
    Blend: AUG-CC-PVTZ
  Basis Set: (AUG-CC-PVTZ AUX)
    Blend: AUG-CC-PVTZ-JKFIT

    Orbital Energies [Eh]
    ---------------------

    Doubly Occupied:

       1A    -20.582386     2A    -20.582372     3A    -11.367058
       4A    -11.367044     5A    -11.289466     6A    -11.289402
       7A    -11.287865     8A    -11.287810     9A     -1.405322
      10A     -1.402633    11A     -1.161973    12A     -1.077116
      13A     -0.971380    14A     -0.876918    15A     -0.833088
      16A     -0.715929    17A     -0.714451    18A     -0.689396
      19A     -0.643161    20A     -0.630962    21A     -0.603017
      22A     -0.593552    23A     -0.584895    24A     -0.549791
      25A     -0.467731    26A     -0.448847    27A     -0.415078
      28A     -0.411847

  @DF-RHF Final Energy:  -379.36277271952275

   => Energetics <=

    Nuclear Repulsion Energy =            321.4941392204815429
    One-Electron Energy =               -1153.2128384386771813
    Two-Electron Energy =                 452.3559264986728863
    Total Energy =                       -379.3627727195227521
  Basis Set: (AUG-CC-PVTZ AUX)
    Blend: AUG-CC-PVTZ-RI
    Molecular point group: c1

    Geometry (in Angstrom), charge = 0, multiplicity = 1:

       Center              X                  Y                   Z               Mass
    ------------   -----------------  -----------------  -----------------  -----------------
         O           -2.678549092430     0.000000012129     0.000452622013    15.994914619570
         O            2.678548907570     0.000000012129     0.000415622013    15.994914619570
         C           -1.440966092430     0.000000012129     0.000478622013    12.000000000000
         C            1.440966907570     0.000000012129     0.000450622013    12.000000000000
         C            0.674593907570    -1.266634987871     0.000470622013    12.000000000000
         C           -0.674595092430    -1.266635987871     0.000511622013    12.000000000000
         C            0.674594907570     1.266636012129     0.000461622013    12.000000000000
         C           -0.674594092430     1.266635012129     0.000502622013    12.000000000000
         H            1.259421907570    -2.182926987871     0.000473622013     1.007825032230
         H            1.259419907570     2.182929012129     0.000457622013     1.007825032230
         H           -1.259422092430    -2.182930287871    -0.049468377987     1.007825032230
         H           -1.259422092430     2.182927012129     0.000516622013     1.007825032230

  Basis Set: AUG-CC-PVTZ
    Blend: AUG-CC-PVTZ
  Basis Set: (AUG-CC-PVTZ AUX)
    Blend: AUG-CC-PVTZ-JKFIT
	 Reference Energy          =    -379.3627727195227521 [Eh]
	 Singles Energy            =      -0.0000000000000000 [Eh]
	 Same-Spin Energy          =      -0.3779662826897814 [Eh]
	 Opposite-Spin Energy      =      -1.1642559039138649 [Eh]
	 Correlation Energy        =      -1.5422221866036463 [Eh]
	 Total Energy              =    -380.9049949061263760 [Eh]

	 ================> DF-SCS-MP2 Energies <==================
	-----------------------------------------------------------
	 SCS Same-Spin Scale       =       0.3333333333333333 [-]
	 SCS Opposite-Spin Scale   =       1.2000000000000000 [-]
	 SCS Same-Spin Energy      =      -0.1259887608965938 [Eh]
	 SCS Opposite-Spin Energy  =      -1.3971070846966378 [Eh]
	 SCS Correlation Energy    =      -1.5230958455932315 [Eh]
	 SCS Total Energy          =    -380.8858685651159703 [Eh]
	-----------------------------------------------------------

  Dipole Moment: [D]
     X:     0.0007      Y:     0.0011      Z:    -0.0303     Total:     0.0304

*** Psi4 exiting successfully. Buy a developer a beer!
