                               Psi4 1.3.2 release

  ==> Input File <==

--------------------------------------------------------------------------
#psi4
#
memory 32 gb

molecule  {
0 1
  O       -2.6785490     0.0000000    -0.0000150
  O        2.6785490     0.0000000    -0.0000520
  C       -1.4409660     0.0000000     0.0000110
  C        1.4409670     0.0000000    -0.0000170
  C        0.6745940    -1.2666350     0.0000030
  C       -0.6745950    -1.2666360     0.0000440
  C        0.6745950     1.2666360    -0.0000060
  C       -0.6746008     1.2666359     0.2500350
  H        1.2594220    -2.1829270     0.0000060
  H        1.2594200     2.1829290    -0.0000100
  H       -1.2594210    -2.1829290     0.0000640
  H       -1.2594220     2.1829270     0.0000490
units angstrom
no_reorient  #important for SAPT in psi4, default
symmetry c1  #important for SAPT in psi4, default
}

set PROPERTIES_ORIGIN ["COM"]
properties('MP2/aug-cc-pvtz', properties = ['dipole'])
--------------------------------------------------------------------------

    Molecular point group: c1
  Charge       = 0
  Multiplicity = 1
  Basis Set: AUG-CC-PVTZ
    Blend: AUG-CC-PVTZ
  Basis Set: (AUG-CC-PVTZ AUX)
    Blend: AUG-CC-PVTZ-JKFIT

    Orbital Energies [Eh]
    ---------------------

    Doubly Occupied:

       1A    -20.584213     2A    -20.581244     3A    -11.368439
       4A    -11.368318     5A    -11.296271     6A    -11.293054
       7A    -11.289946     8A    -11.288249     9A     -1.406099
      10A     -1.402134    11A     -1.159491    12A     -1.074353
      13A     -0.969918    14A     -0.875341    15A     -0.829787
      16A     -0.713736    17A     -0.710401    18A     -0.688650
      19A     -0.640448    20A     -0.628210    21A     -0.600638
      22A     -0.593238    23A     -0.580959    24A     -0.548753
      25A     -0.466923    26A     -0.447782    27A     -0.414493
      28A     -0.410188

  @DF-RHF Final Energy:  -379.34476805352813

   => Energetics <=

    Nuclear Repulsion Energy =            320.8171807315673050
    One-Electron Energy =               -1151.8613428359747104
    Two-Electron Energy =                 451.6993940508792775
    Total Energy =                       -379.3447680535281279
  Basis Set: (AUG-CC-PVTZ AUX)
    Blend: AUG-CC-PVTZ-RI
    Molecular point group: c1

    Geometry (in Angstrom), charge = 0, multiplicity = 1:

       Center              X                  Y                   Z               Mass
    ------------   -----------------  -----------------  -----------------  -----------------
         O           -2.678548346352    -0.000000099980    -0.027786216717    15.994914619570
         O            2.678549653648    -0.000000099980    -0.027823216717    15.994914619570
         C           -1.440965346352    -0.000000099980    -0.027760216717    12.000000000000
         C            1.440967653648    -0.000000099980    -0.027788216717    12.000000000000
         C            0.674594653648    -1.266635099980    -0.027768216717    12.000000000000
         C           -0.674594346352    -1.266636099980    -0.027727216717    12.000000000000
         C            0.674595653648     1.266635900020    -0.027777216717    12.000000000000
         C           -0.674600146352     1.266635800020     0.222263783283    12.000000000000
         H            1.259422653648    -2.182927099980    -0.027765216717     1.007825032230
         H            1.259420653648     2.182928900020    -0.027781216717     1.007825032230
         H           -1.259420346352    -2.182929099980    -0.027707216717     1.007825032230
         H           -1.259421346352     2.182926900020    -0.027722216717     1.007825032230

  Basis Set: AUG-CC-PVTZ
    Blend: AUG-CC-PVTZ
  Basis Set: (AUG-CC-PVTZ AUX)
    Blend: AUG-CC-PVTZ-JKFIT
	 Reference Energy          =    -379.3447680535281279 [Eh]
	 Singles Energy            =      -0.0000000000000000 [Eh]
	 Same-Spin Energy          =      -0.3790170707310640 [Eh]
	 Opposite-Spin Energy      =      -1.1673979983179361 [Eh]
	 Correlation Energy        =      -1.5464150690490002 [Eh]
	 Total Energy              =    -380.8911831225771039 [Eh]

	 ================> DF-SCS-MP2 Energies <==================
	-----------------------------------------------------------
	 SCS Same-Spin Scale       =       0.3333333333333333 [-]
	 SCS Opposite-Spin Scale   =       1.2000000000000000 [-]
	 SCS Same-Spin Energy      =      -0.1263390235770213 [Eh]
	 SCS Opposite-Spin Energy  =      -1.4008775979815233 [Eh]
	 SCS Correlation Energy    =      -1.5272166215585448 [Eh]
	 SCS Total Energy          =    -380.8719846750866509 [Eh]
	-----------------------------------------------------------

  Dipole Moment: [D]
     X:     0.0709      Y:    -0.0644      Z:    -0.1103     Total:     0.1461

*** Psi4 exiting successfully. Buy a developer a beer!
