                               Psi4 1.3.2 release

  ==> Input File <==

--------------------------------------------------------------------------
#psi4
#
memory 32 gb

molecule  {
0 1
  O       -2.6785490     0.0000000    -0.0000150
  O        2.6785490     0.0000000    -0.0000520
  C       -1.4409660     0.0000000     0.0000110
  C        1.4409670     0.0000000    -0.0000170
  C        0.6745940    -1.2666350     0.0000030
  C       -0.6745950    -1.2666360     0.0000440
  C        0.6745950     1.2666360    -0.0000060
  C       -0.6745940     1.2666350     0.0000350
  H        1.2594220    -2.1829270     0.0000060
  H        1.2594200     2.1829290    -0.0000100
  H       -1.2594258    -2.1829355    -0.2499360
  H       -1.2594220     2.1829270     0.0000490
units angstrom
no_reorient  #important for SAPT in psi4, default
symmetry c1  #important for SAPT in psi4, default
}

set PROPERTIES_ORIGIN ["COM"]
properties('MP2/aug-cc-pvtz', properties = ['dipole'])
--------------------------------------------------------------------------

    Molecular point group: c1
  Charge       = 0
  Multiplicity = 1
  Basis Set: AUG-CC-PVTZ
    Blend: AUG-CC-PVTZ
  Basis Set: (AUG-CC-PVTZ AUX)
    Blend: AUG-CC-PVTZ-JKFIT

    Orbital Energies [Eh]
    ---------------------

    Doubly Occupied:

       1A    -20.582621     2A    -20.582288     3A    -11.367298
       4A    -11.367037     5A    -11.291342     6A    -11.289577
       7A    -11.288883     8A    -11.287981     9A     -1.405387
      10A     -1.402672    11A     -1.162027    12A     -1.076763
      13A     -0.971192    14A     -0.875826    15A     -0.832410
      16A     -0.716018    17A     -0.713425    18A     -0.688100
      19A     -0.641536    20A     -0.629986    21A     -0.603216
      22A     -0.593823    23A     -0.582193    24A     -0.549600
      25A     -0.467784    26A     -0.449256    27A     -0.414874
      28A     -0.410986

  @DF-RHF Final Energy:  -379.35870045064343

   => Energetics <=

    Nuclear Repulsion Energy =            321.3884690616224589
    One-Electron Energy =               -1153.0061400449787925
    Two-Electron Energy =                 452.2589705327129082
    Total Energy =                       -379.3587004506434255
  Basis Set: (AUG-CC-PVTZ AUX)
    Blend: AUG-CC-PVTZ-RI
    Molecular point group: c1

    Geometry (in Angstrom), charge = 0, multiplicity = 1:

       Center              X                  Y                   Z               Mass
    ------------   -----------------  -----------------  -----------------  -----------------
         O           -2.678549056976     0.000000060644     0.002318599601    15.994914619570
         O            2.678548943024     0.000000060644     0.002281599601    15.994914619570
         C           -1.440966056976     0.000000060644     0.002344599601    12.000000000000
         C            1.440966943024     0.000000060644     0.002316599601    12.000000000000
         C            0.674593943024    -1.266634939356     0.002336599601    12.000000000000
         C           -0.674595056976    -1.266635939356     0.002377599601    12.000000000000
         C            0.674594943024     1.266636060644     0.002327599601    12.000000000000
         C           -0.674594056976     1.266635060644     0.002368599601    12.000000000000
         H            1.259421943024    -2.182926939356     0.002339599601     1.007825032230
         H            1.259419943024     2.182929060644     0.002323599601     1.007825032230
         H           -1.259425856976    -2.182935439356    -0.247602400399     1.007825032230
         H           -1.259422056976     2.182927060644     0.002382599601     1.007825032230

  Basis Set: AUG-CC-PVTZ
    Blend: AUG-CC-PVTZ
  Basis Set: (AUG-CC-PVTZ AUX)
    Blend: AUG-CC-PVTZ-JKFIT
	 Reference Energy          =    -379.3587004506434255 [Eh]
	 Singles Energy            =      -0.0000000000000000 [Eh]
	 Same-Spin Energy          =      -0.3781895300207230 [Eh]
	 Opposite-Spin Energy      =      -1.1648183291156180 [Eh]
	 Correlation Energy        =      -1.5430078591363410 [Eh]
	 Total Energy              =    -380.9017083097797922 [Eh]

	 ================> DF-SCS-MP2 Energies <==================
	-----------------------------------------------------------
	 SCS Same-Spin Scale       =       0.3333333333333333 [-]
	 SCS Opposite-Spin Scale   =       1.2000000000000000 [-]
	 SCS Same-Spin Energy      =      -0.1260631766735743 [Eh]
	 SCS Opposite-Spin Energy  =      -1.3977819949387416 [Eh]
	 SCS Correlation Energy    =      -1.5238451716123158 [Eh]
	 SCS Total Energy          =    -380.8825456222557477 [Eh]
	-----------------------------------------------------------

  Dipole Moment: [D]
     X:     0.0175      Y:     0.0263      Z:    -0.1505     Total:     0.1538

*** Psi4 exiting successfully. Buy a developer a beer!
