                               Psi4 1.3.2 release

  ==> Input File <==

--------------------------------------------------------------------------
#psi4
#
memory 32 gb

molecule  {
0 1
  N       -1.1198630    -0.0000120     0.0000220
  C       -0.3338800     1.1258240    -0.0000040
  C       -0.3338570    -1.1258310     0.0000200
  C        0.9847800     0.7092440    -0.0000340
  C        0.9847950    -0.7092240    -0.0000090
  H       -2.1306720    -0.0000210     0.0000590
  H       -0.7709050     2.1146050    -0.0000170
  H       -0.7708590    -2.1146210     0.0000440
  H        1.8502169     1.3586000     0.1999390
  H        1.8502400    -1.3585590    -0.0000200
units angstrom
no_reorient  #important for SAPT in psi4, default
symmetry c1  #important for SAPT in psi4, default
}

set PROPERTIES_ORIGIN ["COM"]
properties('MP2/aug-cc-pvtz', properties = ['dipole'])
--------------------------------------------------------------------------

    Molecular point group: c1
  Charge       = 0
  Multiplicity = 1
  Basis Set: AUG-CC-PVTZ
    Blend: AUG-CC-PVTZ
  Basis Set: (AUG-CC-PVTZ AUX)
    Blend: AUG-CC-PVTZ-JKFIT

    Orbital Energies [Eh]
    ---------------------

    Doubly Occupied:

       1A    -15.608635     2A    -11.254785     3A    -11.254318
       4A    -11.212617     5A    -11.210955     6A     -1.289939
       7A     -1.040637     8A     -0.975408     9A     -0.791168
      10A     -0.764355    11A     -0.734682    12A     -0.589646
      13A     -0.582836    14A     -0.567363    15A     -0.542644
      16A     -0.528045    17A     -0.347346    18A     -0.296924

  @DF-RHF Final Energy:  -208.88312450177196

   => Energetics <=

    Nuclear Repulsion Energy =            160.6834607330105200
    One-Electron Energy =                -599.9485613309680048
    Two-Electron Energy =                 230.3819760961855252
    Total Energy =                       -208.8831245017719596
  Basis Set: (AUG-CC-PVTZ AUX)
    Blend: AUG-CC-PVTZ-RI
    Molecular point group: c1

    Geometry (in Angstrom), charge = 0, multiplicity = 1:

       Center              X                  Y                   Z               Mass
    ------------   -----------------  -----------------  -----------------  -----------------
         N           -1.119397199359    -0.000011880589    -0.002984376815    14.003074004430
         C           -0.333414199359     1.125824119411    -0.003010376815    12.000000000000
         C           -0.333391199359    -1.125830880589    -0.002986376815    12.000000000000
         C            0.985245800641     0.709244119411    -0.003040376815    12.000000000000
         C            0.985260800641    -0.709223880589    -0.003015376815    12.000000000000
         H           -2.130206199359    -0.000020880589    -0.002947376815     1.007825032230
         H           -0.770439199359     2.114605119411    -0.003023376815     1.007825032230
         H           -0.770393199359    -2.114620880589    -0.002962376815     1.007825032230
         H            1.850682700641     1.358600119411     0.196932623185     1.007825032230
         H            1.850705800641    -1.358558880589    -0.003026376815     1.007825032230

  Basis Set: AUG-CC-PVTZ
    Blend: AUG-CC-PVTZ
  Basis Set: (AUG-CC-PVTZ AUX)
    Blend: AUG-CC-PVTZ-JKFIT
	 Reference Energy          =    -208.8831245017719596 [Eh]
	 Singles Energy            =      -0.0000000000000000 [Eh]
	 Same-Spin Energy          =      -0.2304710438712335 [Eh]
	 Opposite-Spin Energy      =      -0.7233163272360712 [Eh]
	 Correlation Energy        =      -0.9537873711073046 [Eh]
	 Total Energy              =    -209.8369118728792557 [Eh]

	 ================> DF-SCS-MP2 Energies <==================
	-----------------------------------------------------------
	 SCS Same-Spin Scale       =       0.3333333333333333 [-]
	 SCS Opposite-Spin Scale   =       1.2000000000000000 [-]
	 SCS Same-Spin Energy      =      -0.0768236812904111 [Eh]
	 SCS Opposite-Spin Energy  =      -0.8679795926832854 [Eh]
	 SCS Correlation Energy    =      -0.9448032739736966 [Eh]
	 SCS Total Energy          =    -209.8279277757456498 [Eh]
	-----------------------------------------------------------

  Dipole Moment: [D]
     X:    -1.9019      Y:    -0.0216      Z:     0.1639     Total:     1.9091

*** Psi4 exiting successfully. Buy a developer a beer!
