                               Psi4 1.3.2 release

  ==> Input File <==

--------------------------------------------------------------------------
#psi4
#
memory 32 gb

molecule  {
0 1
  N       -1.1198630    -0.0000120     0.0000220
  C       -0.3338800     1.1258240    -0.0000040
  C       -0.3338570    -1.1258310     0.0000200
  C        0.9847800     0.7092440    -0.0000340
  C        0.9847950    -0.7092240    -0.0000090
  H       -2.1306720    -0.0000210     0.0000590
  H       -0.7709050     2.1146050    -0.0000170
  H       -0.7708590    -2.1146210     0.0000440
  H        1.8502120     1.3585970    -0.0000610
  H        1.8502400    -1.3585590    -0.0000200
units angstrom
no_reorient  #important for SAPT in psi4, default
symmetry c1  #important for SAPT in psi4, default
}

set PROPERTIES_ORIGIN ["COM"]
properties('MP2/aug-cc-pvtz', properties = ['dipole'])
--------------------------------------------------------------------------

    Molecular point group: c1
  Charge       = 0
  Multiplicity = 1
  Basis Set: AUG-CC-PVTZ
    Blend: AUG-CC-PVTZ
  Basis Set: (AUG-CC-PVTZ AUX)
    Blend: AUG-CC-PVTZ-JKFIT

    Orbital Energies [Eh]
    ---------------------

    Doubly Occupied:

       1A    -15.608188     2A    -11.254131     3A    -11.254088
       4A    -11.211455     5A    -11.210392     6A     -1.289524
       7A     -1.040710     8A     -0.975272     9A     -0.791773
      10A     -0.765684    11A     -0.734659    12A     -0.590728
      13A     -0.582507    14A     -0.566571    15A     -0.545394
      16A     -0.528966    17A     -0.347481    18A     -0.296696

  @DF-RHF Final Energy:  -208.88548573047916

   => Energetics <=

    Nuclear Repulsion Energy =            160.7490946927138964
    One-Electron Energy =                -600.0807219587430836
    Two-Electron Energy =                 230.4461415355499980
    Total Energy =                       -208.8854857304791608
  Basis Set: (AUG-CC-PVTZ AUX)
    Blend: AUG-CC-PVTZ-RI
    Molecular point group: c1

    Geometry (in Angstrom), charge = 0, multiplicity = 1:

       Center              X                  Y                   Z               Mass
    ------------   -----------------  -----------------  -----------------  -----------------
         N           -1.119397125698    -0.000011835491     0.000022162483    14.003074004430
         C           -0.333414125698     1.125824164509    -0.000003837517    12.000000000000
         C           -0.333391125698    -1.125830835491     0.000020162483    12.000000000000
         C            0.985245874302     0.709244164509    -0.000033837517    12.000000000000
         C            0.985260874302    -0.709223835491    -0.000008837517    12.000000000000
         H           -2.130206125698    -0.000020835491     0.000059162483     1.007825032230
         H           -0.770439125698     2.114605164509    -0.000016837517     1.007825032230
         H           -0.770393125698    -2.114620835491     0.000044162483     1.007825032230
         H            1.850677874302     1.358597164509    -0.000060837517     1.007825032230
         H            1.850705874302    -1.358558835491    -0.000019837517     1.007825032230

  Basis Set: AUG-CC-PVTZ
    Blend: AUG-CC-PVTZ
  Basis Set: (AUG-CC-PVTZ AUX)
    Blend: AUG-CC-PVTZ-JKFIT
	 Reference Energy          =    -208.8854857304791608 [Eh]
	 Singles Energy            =      -0.0000000000000000 [Eh]
	 Same-Spin Energy          =      -0.2303590898018534 [Eh]
	 Opposite-Spin Energy      =      -0.7230234597067553 [Eh]
	 Correlation Energy        =      -0.9533825495086088 [Eh]
	 Total Energy              =    -209.8388682799877643 [Eh]

	 ================> DF-SCS-MP2 Energies <==================
	-----------------------------------------------------------
	 SCS Same-Spin Scale       =       0.3333333333333333 [-]
	 SCS Opposite-Spin Scale   =       1.2000000000000000 [-]
	 SCS Same-Spin Energy      =      -0.0767863632672845 [Eh]
	 SCS Opposite-Spin Energy  =      -0.8676281516481064 [Eh]
	 SCS Correlation Energy    =      -0.9444145149153909 [Eh]
	 SCS Total Energy          =    -209.8299002453945548 [Eh]
	-----------------------------------------------------------

  Dipole Moment: [D]
     X:    -1.8713      Y:    -0.0000      Z:     0.0001     Total:     1.8713

*** Psi4 exiting successfully. Buy a developer a beer!
