                               Psi4 1.3.2 release

  ==> Input File <==

--------------------------------------------------------------------------
#psi4
#
memory 32 gb

molecule  {
0 1
  N       -1.1198630    -0.0000120     0.0000220
  C       -0.3338800     1.1258240    -0.0000040
  C       -0.3338570    -1.1258310     0.0000200
  C        0.9847800     0.7092440    -0.0000340
  C        0.9847950    -0.7092240    -0.0000090
  H       -2.1306720    -0.0000210     0.0000590
  H       -0.7708985     2.1146095     0.2999830
  H       -0.7708590    -2.1146210     0.0000440
  H        1.8502120     1.3585970    -0.0000610
  H        1.8502400    -1.3585590    -0.0000200
units angstrom
no_reorient  #important for SAPT in psi4, default
symmetry c1  #important for SAPT in psi4, default
}

set PROPERTIES_ORIGIN ["COM"]
properties('MP2/aug-cc-pvtz', properties = ['dipole'])
--------------------------------------------------------------------------

    Molecular point group: c1
  Charge       = 0
  Multiplicity = 1
  Basis Set: AUG-CC-PVTZ
    Blend: AUG-CC-PVTZ
  Basis Set: (AUG-CC-PVTZ AUX)
    Blend: AUG-CC-PVTZ-JKFIT

    Orbital Energies [Eh]
    ---------------------

    Doubly Occupied:

       1A    -15.608319     2A    -11.256726     3A    -11.255661
       4A    -11.212587     5A    -11.211362     6A     -1.289849
       7A     -1.041443     8A     -0.974014     9A     -0.791720
      10A     -0.765522    11A     -0.728632    12A     -0.591328
      13A     -0.582538    14A     -0.562528    15A     -0.545142
      16A     -0.526011    17A     -0.347967    18A     -0.297240

  @DF-RHF Final Energy:  -208.88017183302057

   => Energetics <=

    Nuclear Repulsion Energy =            160.6018941468327057
    One-Electron Energy =                -599.7869532574891309
    Two-Electron Energy =                 230.3048872776358564
    Total Energy =                       -208.8801718330205688
  Basis Set: (AUG-CC-PVTZ AUX)
    Blend: AUG-CC-PVTZ-RI
    Molecular point group: c1

    Geometry (in Angstrom), charge = 0, multiplicity = 1:

       Center              X                  Y                   Z               Mass
    ------------   -----------------  -----------------  -----------------  -----------------
         N           -1.119397223411    -0.000011903138    -0.004487646464    14.003074004430
         C           -0.333414223411     1.125824096862    -0.004513646464    12.000000000000
         C           -0.333391223411    -1.125830903138    -0.004489646464    12.000000000000
         C            0.985245776589     0.709244096862    -0.004543646464    12.000000000000
         C            0.985260776589    -0.709223903138    -0.004518646464    12.000000000000
         H           -2.130206223411    -0.000020903138    -0.004450646464     1.007825032230
         H           -0.770432723411     2.114609596862     0.295473353536     1.007825032230
         H           -0.770393223411    -2.114620903138    -0.004465646464     1.007825032230
         H            1.850677776589     1.358597096862    -0.004570646464     1.007825032230
         H            1.850705776589    -1.358558903138    -0.004529646464     1.007825032230

  Basis Set: AUG-CC-PVTZ
    Blend: AUG-CC-PVTZ
  Basis Set: (AUG-CC-PVTZ AUX)
    Blend: AUG-CC-PVTZ-JKFIT
	 Reference Energy          =    -208.8801718330205688 [Eh]
	 Singles Energy            =      -0.0000000000000000 [Eh]
	 Same-Spin Energy          =      -0.2306861050781693 [Eh]
	 Opposite-Spin Energy      =      -0.7238136434330132 [Eh]
	 Correlation Energy        =      -0.9544997485111826 [Eh]
	 Total Energy              =    -209.8346715815317509 [Eh]

	 ================> DF-SCS-MP2 Energies <==================
	-----------------------------------------------------------
	 SCS Same-Spin Scale       =       0.3333333333333333 [-]
	 SCS Opposite-Spin Scale   =       1.2000000000000000 [-]
	 SCS Same-Spin Energy      =      -0.0768953683593898 [Eh]
	 SCS Opposite-Spin Energy  =      -0.8685763721196159 [Eh]
	 SCS Correlation Energy    =      -0.9454717404790056 [Eh]
	 SCS Total Energy          =    -209.8256435734995762 [Eh]
	-----------------------------------------------------------

  Dipole Moment: [D]
     X:    -1.8265      Y:    -0.0883      Z:     0.2704     Total:     1.8485

*** Psi4 exiting successfully. Buy a developer a beer!
