                               Psi4 1.3.2 release

  ==> Input File <==

--------------------------------------------------------------------------
#psi4
#
memory 32 gb

molecule  {
0 1
  N       -1.1198630    -0.0000120     0.0000220
  C       -0.3338800     1.1258240    -0.0000040
  C       -0.3338570    -1.1258310     0.0000200
  C        0.9847800     0.7092440    -0.0000340
  C        0.9847950    -0.7092240    -0.0000090
  H       -2.1306720    -0.0000210     0.0000590
  H       -0.7709050     2.1146050    -0.0000170
  H       -0.7708590    -2.1146210     0.0000440
  H        1.8502145     1.3585985     0.0999390
  H        1.8502400    -1.3585590    -0.0000200
units angstrom
no_reorient  #important for SAPT in psi4, default
symmetry c1  #important for SAPT in psi4, default
}

set PROPERTIES_ORIGIN ["COM"]
properties('MP2/aug-cc-pvtz', properties = ['dipole'])
--------------------------------------------------------------------------

    Molecular point group: c1
  Charge       = 0
  Multiplicity = 1
  Basis Set: AUG-CC-PVTZ
    Blend: AUG-CC-PVTZ
  Basis Set: (AUG-CC-PVTZ AUX)
    Blend: AUG-CC-PVTZ-JKFIT

    Orbital Energies [Eh]
    ---------------------

    Doubly Occupied:

       1A    -15.608301     2A    -11.254283     3A    -11.254158
       4A    -11.211695     5A    -11.210584     6A     -1.289628
       7A     -1.040689     8A     -0.975304     9A     -0.791605
      10A     -0.765346    11A     -0.734666    12A     -0.590441
      13A     -0.582591    14A     -0.566784    15A     -0.544659
      16A     -0.528774    17A     -0.347446    18A     -0.296753

  @DF-RHF Final Energy:  -208.88492465175028

   => Energetics <=

    Nuclear Repulsion Energy =            160.7324367273682526
    One-Electron Energy =                -600.0473067169854176
    Two-Electron Energy =                 230.4299453378668545
    Total Energy =                       -208.8849246517502820
  Basis Set: (AUG-CC-PVTZ AUX)
    Blend: AUG-CC-PVTZ-RI
    Molecular point group: c1

    Geometry (in Angstrom), charge = 0, multiplicity = 1:

       Center              X                  Y                   Z               Mass
    ------------   -----------------  -----------------  -----------------  -----------------
         N           -1.119397163280    -0.000011858040    -0.001481107166    14.003074004430
         C           -0.333414163280     1.125824141960    -0.001507107166    12.000000000000
         C           -0.333391163280    -1.125830858040    -0.001483107166    12.000000000000
         C            0.985245836720     0.709244141960    -0.001537107166    12.000000000000
         C            0.985260836720    -0.709223858040    -0.001512107166    12.000000000000
         H           -2.130206163280    -0.000020858040    -0.001444107166     1.007825032230
         H           -0.770439163280     2.114605141960    -0.001520107166     1.007825032230
         H           -0.770393163280    -2.114620858040    -0.001459107166     1.007825032230
         H            1.850680336720     1.358598641960     0.098435892834     1.007825032230
         H            1.850705836720    -1.358558858040    -0.001523107166     1.007825032230

  Basis Set: AUG-CC-PVTZ
    Blend: AUG-CC-PVTZ
  Basis Set: (AUG-CC-PVTZ AUX)
    Blend: AUG-CC-PVTZ-JKFIT
	 Reference Energy          =    -208.8849246517502820 [Eh]
	 Singles Energy            =      -0.0000000000000000 [Eh]
	 Same-Spin Energy          =      -0.2303873861713874 [Eh]
	 Opposite-Spin Energy      =      -0.7230941458509974 [Eh]
	 Correlation Energy        =      -0.9534815320223848 [Eh]
	 Total Energy              =    -209.8384061837726620 [Eh]

	 ================> DF-SCS-MP2 Energies <==================
	-----------------------------------------------------------
	 SCS Same-Spin Scale       =       0.3333333333333333 [-]
	 SCS Opposite-Spin Scale   =       1.2000000000000000 [-]
	 SCS Same-Spin Energy      =      -0.0767957953904625 [Eh]
	 SCS Opposite-Spin Energy  =      -0.8677129750211968 [Eh]
	 SCS Correlation Energy    =      -0.9445087704116593 [Eh]
	 SCS Total Energy          =    -209.8294334221619408 [Eh]
	-----------------------------------------------------------

  Dipole Moment: [D]
     X:    -1.8791      Y:    -0.0055      Z:     0.0828     Total:     1.8809

*** Psi4 exiting successfully. Buy a developer a beer!
