                               Psi4 1.3.2 release

  ==> Input File <==

--------------------------------------------------------------------------
#psi4
#
memory 32 gb

molecule  {
0 1
  N       -1.1198630    -0.0000120     0.0000220
  C       -0.3338800     1.1258240    -0.0000040
  C       -0.3338570    -1.1258310     0.0000200
  C        0.9847800     0.7092440    -0.0000340
  C        0.9847950    -0.7092240    -0.0000090
  H       -2.1306720    -0.0000210     0.0000590
  H       -0.7709050     2.1146050    -0.0000170
  H       -0.7708590    -2.1146210     0.0000440
  H        1.8502181     1.3586007     0.2499390
  H        1.8502400    -1.3585590    -0.0000200
units angstrom
no_reorient  #important for SAPT in psi4, default
symmetry c1  #important for SAPT in psi4, default
}

set PROPERTIES_ORIGIN ["COM"]
properties('MP2/aug-cc-pvtz', properties = ['dipole'])
--------------------------------------------------------------------------

    Molecular point group: c1
  Charge       = 0
  Multiplicity = 1
  Basis Set: AUG-CC-PVTZ
    Blend: AUG-CC-PVTZ
  Basis Set: (AUG-CC-PVTZ AUX)
    Blend: AUG-CC-PVTZ-JKFIT

    Orbital Energies [Eh]
    ---------------------

    Doubly Occupied:

       1A    -15.608883     2A    -11.255160     3A    -11.254439
       4A    -11.213389     5A    -11.211143     6A     -1.290170
       7A     -1.040607     8A     -0.975490     9A     -0.790901
      10A     -0.763640    11A     -0.734688    12A     -0.589109
      13A     -0.583010    14A     -0.567750    15A     -0.541335
      16A     -0.527321    17A     -0.347278    18A     -0.297054

  @DF-RHF Final Energy:  -208.88166996570129

   => Energetics <=

    Nuclear Repulsion Energy =            160.6476688241899069
    One-Electron Energy =                -599.8759495438609974
    Two-Electron Energy =                 230.3466107539697987
    Total Energy =                       -208.8816699657012919
  Basis Set: (AUG-CC-PVTZ AUX)
    Blend: AUG-CC-PVTZ-RI
    Molecular point group: c1

    Geometry (in Angstrom), charge = 0, multiplicity = 1:

       Center              X                  Y                   Z               Mass
    ------------   -----------------  -----------------  -----------------  -----------------
         N           -1.119397217398    -0.000011891112    -0.003736011640    14.003074004430
         C           -0.333414217398     1.125824108888    -0.003762011640    12.000000000000
         C           -0.333391217398    -1.125830891112    -0.003738011640    12.000000000000
         C            0.985245782602     0.709244108888    -0.003792011640    12.000000000000
         C            0.985260782602    -0.709223891112    -0.003767011640    12.000000000000
         H           -2.130206217398    -0.000020891112    -0.003699011640     1.007825032230
         H           -0.770439217398     2.114605108888    -0.003775011640     1.007825032230
         H           -0.770393217398    -2.114620891112    -0.003714011640     1.007825032230
         H            1.850683882602     1.358600808888     0.246180988360     1.007825032230
         H            1.850705782602    -1.358558891112    -0.003778011640     1.007825032230

  Basis Set: AUG-CC-PVTZ
    Blend: AUG-CC-PVTZ
  Basis Set: (AUG-CC-PVTZ AUX)
    Blend: AUG-CC-PVTZ-JKFIT
	 Reference Energy          =    -208.8816699657012919 [Eh]
	 Singles Energy            =      -0.0000000000000000 [Eh]
	 Same-Spin Energy          =      -0.2305324190526091 [Eh]
	 Opposite-Spin Energy      =      -0.7234889210344962 [Eh]
	 Correlation Energy        =      -0.9540213400871054 [Eh]
	 Total Energy              =    -209.8356913057884015 [Eh]

	 ================> DF-SCS-MP2 Energies <==================
	-----------------------------------------------------------
	 SCS Same-Spin Scale       =       0.3333333333333333 [-]
	 SCS Opposite-Spin Scale   =       1.2000000000000000 [-]
	 SCS Same-Spin Energy      =      -0.0768441396842030 [Eh]
	 SCS Opposite-Spin Energy  =      -0.8681867052413955 [Eh]
	 SCS Correlation Energy    =      -0.9450308449255985 [Eh]
	 SCS Total Energy          =    -209.8267008106269031 [Eh]
	-----------------------------------------------------------

  Dipole Moment: [D]
     X:    -1.9187      Y:    -0.0335      Z:     0.2034     Total:     1.9298

*** Psi4 exiting successfully. Buy a developer a beer!
