                               Psi4 1.3.2 release

  ==> Input File <==

--------------------------------------------------------------------------
#psi4
#
memory 32 gb

molecule  {
0 1
  N       -1.1198630    -0.0000120     0.0000220
  C       -0.3338800     1.1258240    -0.0000040
  C       -0.3338570    -1.1258310     0.0000200
  C        0.9847800     0.7092440    -0.0000340
  C        0.9847950    -0.7092240    -0.0000090
  H       -2.1306720    -0.0000210     0.0000590
  H       -0.7709050     2.1146050    -0.0000170
  H       -0.7708590    -2.1146210     0.0000440
  H        1.8502157     1.3585992     0.1499390
  H        1.8502400    -1.3585590    -0.0000200
units angstrom
no_reorient  #important for SAPT in psi4, default
symmetry c1  #important for SAPT in psi4, default
}

set PROPERTIES_ORIGIN ["COM"]
properties('MP2/aug-cc-pvtz', properties = ['dipole'])
--------------------------------------------------------------------------

    Molecular point group: c1
  Charge       = 0
  Multiplicity = 1
  Basis Set: AUG-CC-PVTZ
    Blend: AUG-CC-PVTZ
  Basis Set: (AUG-CC-PVTZ AUX)
    Blend: AUG-CC-PVTZ-JKFIT

    Orbital Energies [Eh]
    ---------------------

    Doubly Occupied:

       1A    -15.608440     2A    -11.254492     3A    -11.254225
       4A    -11.212053     5A    -11.210767     6A     -1.289758
       7A     -1.040666     8A     -0.975347     9A     -0.791411
      10A     -0.764928    11A     -0.734674    12A     -0.590099
      13A     -0.582695    14A     -0.567036    15A     -0.543784
      16A     -0.528500    17A     -0.347403    18A     -0.296824

  @DF-RHF Final Energy:  -208.88419516201316

   => Energetics <=

    Nuclear Repulsion Energy =            160.7118514894862074
    One-Electron Energy =                -600.0058914220047654
    Two-Electron Energy =                 230.4098447705054014
    Total Energy =                       -208.8841951620131567
  Basis Set: (AUG-CC-PVTZ AUX)
    Blend: AUG-CC-PVTZ-RI
    Molecular point group: c1

    Geometry (in Angstrom), charge = 0, multiplicity = 1:

       Center              X                  Y                   Z               Mass
    ------------   -----------------  -----------------  -----------------  -----------------
         N           -1.119397181319    -0.000011868563    -0.002232741990    14.003074004430
         C           -0.333414181319     1.125824131437    -0.002258741990    12.000000000000
         C           -0.333391181319    -1.125830868563    -0.002234741990    12.000000000000
         C            0.985245818681     0.709244131437    -0.002288741990    12.000000000000
         C            0.985260818681    -0.709223868563    -0.002263741990    12.000000000000
         H           -2.130206181319    -0.000020868563    -0.002195741990     1.007825032230
         H           -0.770439181319     2.114605131437    -0.002271741990     1.007825032230
         H           -0.770393181319    -2.114620868563    -0.002210741990     1.007825032230
         H            1.850681518681     1.358599331437     0.147684258010     1.007825032230
         H            1.850705818681    -1.358558868563    -0.002274741990     1.007825032230

  Basis Set: AUG-CC-PVTZ
    Blend: AUG-CC-PVTZ
  Basis Set: (AUG-CC-PVTZ AUX)
    Blend: AUG-CC-PVTZ-JKFIT
	 Reference Energy          =    -208.8841951620131567 [Eh]
	 Singles Energy            =      -0.0000000000000000 [Eh]
	 Same-Spin Energy          =      -0.2304224865729118 [Eh]
	 Opposite-Spin Energy      =      -0.7231852433033652 [Eh]
	 Correlation Energy        =      -0.9536077298762771 [Eh]
	 Total Energy              =    -209.8378028918894245 [Eh]

	 ================> DF-SCS-MP2 Energies <==================
	-----------------------------------------------------------
	 SCS Same-Spin Scale       =       0.3333333333333333 [-]
	 SCS Opposite-Spin Scale   =       1.2000000000000000 [-]
	 SCS Same-Spin Energy      =      -0.0768074955243039 [Eh]
	 SCS Opposite-Spin Energy  =      -0.8678222919640383 [Eh]
	 SCS Correlation Energy    =      -0.9446297874883423 [Eh]
	 SCS Total Energy          =    -209.8288249495014952 [Eh]
	-----------------------------------------------------------

  Dipole Moment: [D]
     X:    -1.8887      Y:    -0.0122      Z:     0.1236     Total:     1.8928

*** Psi4 exiting successfully. Buy a developer a beer!
