                               Psi4 1.3.2 release

  ==> Input File <==

--------------------------------------------------------------------------
#psi4
#
memory 32 gb

molecule  {
0 1
  N       -1.1198630    -0.0000120     0.0000220
  C       -0.3338800     1.1258240    -0.0000040
  C       -0.3338570    -1.1258310     0.0000200
  C        0.9847800     0.7092440    -0.0000340
  C        0.9847950    -0.7092240    -0.0000090
  H       -2.1306720    -0.0000210     0.0000590
  H       -0.7709050     2.1146050    -0.0000170
  H       -0.7708590    -2.1146210     0.0000440
  H        1.8502194     1.3586015     0.2999390
  H        1.8502400    -1.3585590    -0.0000200
units angstrom
no_reorient  #important for SAPT in psi4, default
symmetry c1  #important for SAPT in psi4, default
}

set PROPERTIES_ORIGIN ["COM"]
properties('MP2/aug-cc-pvtz', properties = ['dipole'])
--------------------------------------------------------------------------

    Molecular point group: c1
  Charge       = 0
  Multiplicity = 1
  Basis Set: AUG-CC-PVTZ
    Blend: AUG-CC-PVTZ
  Basis Set: (AUG-CC-PVTZ AUX)
    Blend: AUG-CC-PVTZ-JKFIT

    Orbital Energies [Eh]
    ---------------------

    Doubly Occupied:

       1A    -15.609183     2A    -11.255613     3A    -11.254586
       4A    -11.214351     5A    -11.211341     6A     -1.290450
       7A     -1.040578     8A     -0.975594     9A     -0.790632
      10A     -0.762801    11A     -0.734688    12A     -0.588520
      13A     -0.583209    14A     -0.568180    15A     -0.539991
      16A     -0.526202    17A     -0.347201    18A     -0.297212

  @DF-RHF Final Energy:  -208.87978505574668

   => Energetics <=

    Nuclear Repulsion Energy =            160.6049613047855757
    One-Electron Energy =                -599.7888300565118698
    Two-Electron Energy =                 230.3040836959796422
    Total Energy =                       -208.8797850557466802
  Basis Set: (AUG-CC-PVTZ AUX)
    Blend: AUG-CC-PVTZ-RI
    Molecular point group: c1

    Geometry (in Angstrom), charge = 0, multiplicity = 1:

       Center              X                  Y                   Z               Mass
    ------------   -----------------  -----------------  -----------------  -----------------
         N           -1.119397236940    -0.000011903138    -0.004487646464    14.003074004430
         C           -0.333414236940     1.125824096862    -0.004513646464    12.000000000000
         C           -0.333391236940    -1.125830903138    -0.004489646464    12.000000000000
         C            0.985245763060     0.709244096862    -0.004543646464    12.000000000000
         C            0.985260763060    -0.709223903138    -0.004518646464    12.000000000000
         H           -2.130206236940    -0.000020903138    -0.004450646464     1.007825032230
         H           -0.770439236940     2.114605096862    -0.004526646464     1.007825032230
         H           -0.770393236940    -2.114620903138    -0.004465646464     1.007825032230
         H            1.850685163060     1.358601596862     0.295429353536     1.007825032230
         H            1.850705763060    -1.358558903138    -0.004529646464     1.007825032230

  Basis Set: AUG-CC-PVTZ
    Blend: AUG-CC-PVTZ
  Basis Set: (AUG-CC-PVTZ AUX)
    Blend: AUG-CC-PVTZ-JKFIT
	 Reference Energy          =    -208.8797850557466802 [Eh]
	 Singles Energy            =      -0.0000000000000000 [Eh]
	 Same-Spin Energy          =      -0.2306058087822203 [Eh]
	 Opposite-Spin Energy      =      -0.7237037608575158 [Eh]
	 Correlation Energy        =      -0.9543095696397361 [Eh]
	 Total Energy              =    -209.8340946253864274 [Eh]

	 ================> DF-SCS-MP2 Energies <==================
	-----------------------------------------------------------
	 SCS Same-Spin Scale       =       0.3333333333333333 [-]
	 SCS Opposite-Spin Scale   =       1.2000000000000000 [-]
	 SCS Same-Spin Energy      =      -0.0768686029274068 [Eh]
	 SCS Opposite-Spin Energy  =      -0.8684445130290189 [Eh]
	 SCS Correlation Energy    =      -0.9453131159564256 [Eh]
	 SCS Total Energy          =    -209.8250981717031038 [Eh]
	-----------------------------------------------------------

  Dipole Moment: [D]
     X:    -1.9389      Y:    -0.0479      Z:     0.2420     Total:     1.9545

*** Psi4 exiting successfully. Buy a developer a beer!
