                               Psi4 1.3.2 release

  ==> Input File <==

--------------------------------------------------------------------------
#psi4
#
memory 32 gb

molecule  {
0 1
  N       -1.1198630    -0.0000120     0.0000220
  C       -0.3338800     1.1258240    -0.0000040
  C       -0.3338570    -1.1258310     0.0000200
  C        0.9847800     0.7092440    -0.0000340
  C        0.9847950    -0.7092240    -0.0000090
  H       -2.1306720    -0.0000210     0.0000590
  H       -0.7709007     2.1146080     0.1999830
  H       -0.7708590    -2.1146210     0.0000440
  H        1.8502120     1.3585970    -0.0000610
  H        1.8502400    -1.3585590    -0.0000200
units angstrom
no_reorient  #important for SAPT in psi4, default
symmetry c1  #important for SAPT in psi4, default
}

set PROPERTIES_ORIGIN ["COM"]
properties('MP2/aug-cc-pvtz', properties = ['dipole'])
--------------------------------------------------------------------------

    Molecular point group: c1
  Charge       = 0
  Multiplicity = 1
  Basis Set: AUG-CC-PVTZ
    Blend: AUG-CC-PVTZ
  Basis Set: (AUG-CC-PVTZ AUX)
    Blend: AUG-CC-PVTZ-JKFIT

    Orbital Energies [Eh]
    ---------------------

    Doubly Occupied:

       1A    -15.608237     2A    -11.255287     3A    -11.254810
       4A    -11.211945     5A    -11.210847     6A     -1.289665
       7A     -1.041038     8A     -0.974670     9A     -0.791722
      10A     -0.765563    11A     -0.731879    12A     -0.590991
      13A     -0.582607    14A     -0.564542    15A     -0.545266
      16A     -0.527826    17A     -0.347697    18A     -0.296937

  @DF-RHF Final Energy:  -208.88330397075302

   => Energetics <=

    Nuclear Repulsion Energy =            160.6820799461767137
    One-Electron Energy =                -599.9477108717832152
    Two-Electron Energy =                 230.3823269548534824
    Total Energy =                       -208.8833039707530190
  Basis Set: (AUG-CC-PVTZ AUX)
    Blend: AUG-CC-PVTZ-RI
    Molecular point group: c1

    Geometry (in Angstrom), charge = 0, multiplicity = 1:

       Center              X                  Y                   Z               Mass
    ------------   -----------------  -----------------  -----------------  -----------------
         N           -1.119397190339    -0.000011880589    -0.002984376815    14.003074004430
         C           -0.333414190339     1.125824119411    -0.003010376815    12.000000000000
         C           -0.333391190339    -1.125830880589    -0.002986376815    12.000000000000
         C            0.985245809661     0.709244119411    -0.003040376815    12.000000000000
         C            0.985260809661    -0.709223880589    -0.003015376815    12.000000000000
         H           -2.130206190339    -0.000020880589    -0.002947376815     1.007825032230
         H           -0.770434890339     2.114608119411     0.196976623185     1.007825032230
         H           -0.770393190339    -2.114620880589    -0.002962376815     1.007825032230
         H            1.850677809661     1.358597119411    -0.003067376815     1.007825032230
         H            1.850705809661    -1.358558880589    -0.003026376815     1.007825032230

  Basis Set: AUG-CC-PVTZ
    Blend: AUG-CC-PVTZ
  Basis Set: (AUG-CC-PVTZ AUX)
    Blend: AUG-CC-PVTZ-JKFIT
	 Reference Energy          =    -208.8833039707530190 [Eh]
	 Singles Energy            =      -0.0000000000000000 [Eh]
	 Same-Spin Energy          =      -0.2305075395358555 [Eh]
	 Opposite-Spin Energy      =      -0.7233617682306975 [Eh]
	 Correlation Energy        =      -0.9538693077665530 [Eh]
	 Total Energy              =    -209.8371732785195718 [Eh]

	 ================> DF-SCS-MP2 Energies <==================
	-----------------------------------------------------------
	 SCS Same-Spin Scale       =       0.3333333333333333 [-]
	 SCS Opposite-Spin Scale   =       1.2000000000000000 [-]
	 SCS Same-Spin Energy      =      -0.0768358465119518 [Eh]
	 SCS Opposite-Spin Energy  =      -0.8680341218768370 [Eh]
	 SCS Correlation Energy    =      -0.9448699683887889 [Eh]
	 SCS Total Energy          =    -209.8281739391418057 [Eh]
	-----------------------------------------------------------

  Dipole Moment: [D]
     X:    -1.8508      Y:    -0.0400      Z:     0.1835     Total:     1.8603

*** Psi4 exiting successfully. Buy a developer a beer!
