                               Psi4 1.3.2 release

  ==> Input File <==

--------------------------------------------------------------------------
#psi4
#
memory 32 gb

molecule  {
0 1
  N       -1.1198630    -0.0000120     0.0000220
  C       -0.3338800     1.1258240    -0.0000040
  C       -0.3338570    -1.1258310     0.0000200
  C        0.9847800     0.7092440    -0.0000340
  C        0.9847950    -0.7092240    -0.0000090
  H       -2.1306720    -0.0000210     0.0000590
  H       -0.7709018     2.1146072     0.1499830
  H       -0.7708590    -2.1146210     0.0000440
  H        1.8502120     1.3585970    -0.0000610
  H        1.8502400    -1.3585590    -0.0000200
units angstrom
no_reorient  #important for SAPT in psi4, default
symmetry c1  #important for SAPT in psi4, default
}

set PROPERTIES_ORIGIN ["COM"]
properties('MP2/aug-cc-pvtz', properties = ['dipole'])
--------------------------------------------------------------------------

    Molecular point group: c1
  Charge       = 0
  Multiplicity = 1
  Basis Set: AUG-CC-PVTZ
    Blend: AUG-CC-PVTZ
  Basis Set: (AUG-CC-PVTZ AUX)
    Blend: AUG-CC-PVTZ-JKFIT

    Orbital Energies [Eh]
    ---------------------

    Doubly Occupied:

       1A    -15.608214     2A    -11.254776     3A    -11.254505
       4A    -11.211727     5A    -11.210653     6A     -1.289602
       7A     -1.040895     8A     -0.974924     9A     -0.791738
      10A     -0.765604    11A     -0.733076    12A     -0.590875
      13A     -0.582586    14A     -0.565379    15A     -0.545320
      16A     -0.528359    17A     -0.347602    18A     -0.296831

  @DF-RHF Final Energy:  -208.88429769867301

   => Energetics <=

    Nuclear Repulsion Energy =            160.7110721496362657
    One-Electron Energy =                -600.0054068655912261
    Two-Electron Energy =                 230.4100370172819510
    Total Energy =                       -208.8842976986730093
  Basis Set: (AUG-CC-PVTZ AUX)
    Blend: AUG-CC-PVTZ-RI
    Molecular point group: c1

    Geometry (in Angstrom), charge = 0, multiplicity = 1:

       Center              X                  Y                   Z               Mass
    ------------   -----------------  -----------------  -----------------  -----------------
         N           -1.119397173803    -0.000011868563    -0.002232741990    14.003074004430
         C           -0.333414173803     1.125824131437    -0.002258741990    12.000000000000
         C           -0.333391173803    -1.125830868563    -0.002234741990    12.000000000000
         C            0.985245826197     0.709244131437    -0.002288741990    12.000000000000
         C            0.985260826197    -0.709223868563    -0.002263741990    12.000000000000
         H           -2.130206173803    -0.000020868563    -0.002195741990     1.007825032230
         H           -0.770435973803     2.114607331437     0.147728258010     1.007825032230
         H           -0.770393173803    -2.114620868563    -0.002210741990     1.007825032230
         H            1.850677826197     1.358597131437    -0.002315741990     1.007825032230
         H            1.850705826197    -1.358558868563    -0.002274741990     1.007825032230

  Basis Set: AUG-CC-PVTZ
    Blend: AUG-CC-PVTZ
  Basis Set: (AUG-CC-PVTZ AUX)
    Blend: AUG-CC-PVTZ-JKFIT
	 Reference Energy          =    -208.8842976986730093 [Eh]
	 Singles Energy            =      -0.0000000000000000 [Eh]
	 Same-Spin Energy          =      -0.2304431845612224 [Eh]
	 Opposite-Spin Energy      =      -0.7232092100273382 [Eh]
	 Correlation Energy        =      -0.9536523945885605 [Eh]
	 Total Energy              =    -209.8379500932615827 [Eh]

	 ================> DF-SCS-MP2 Energies <==================
	-----------------------------------------------------------
	 SCS Same-Spin Scale       =       0.3333333333333333 [-]
	 SCS Opposite-Spin Scale   =       1.2000000000000000 [-]
	 SCS Same-Spin Energy      =      -0.0768143948537408 [Eh]
	 SCS Opposite-Spin Energy  =      -0.8678510520328058 [Eh]
	 SCS Correlation Energy    =      -0.9446654468865465 [Eh]
	 SCS Total Energy          =    -209.8289631455595554 [Eh]
	-----------------------------------------------------------

  Dipole Moment: [D]
     X:    -1.8597      Y:    -0.0227      Z:     0.1386     Total:     1.8649

*** Psi4 exiting successfully. Buy a developer a beer!
