                               Psi4 1.3.2 release

  ==> Input File <==

--------------------------------------------------------------------------
#psi4
#
memory 32 gb

molecule  {
0 1
  N       -1.1198630    -0.0000120     0.0000220
  C       -0.3338800     1.1258240    -0.0000040
  C       -0.3338570    -1.1258310     0.0000200
  C        0.9847800     0.7092440    -0.0000340
  C        0.9847950    -0.7092240    -0.0000090
  H       -2.1306720    -0.0000210     0.0000590
  H       -0.7709050     2.1146050    -0.0000170
  H       -0.7708590    -2.1146210     0.0000440
  H        1.8502132     1.3585977     0.0499390
  H        1.8502400    -1.3585590    -0.0000200
units angstrom
no_reorient  #important for SAPT in psi4, default
symmetry c1  #important for SAPT in psi4, default
}

set PROPERTIES_ORIGIN ["COM"]
properties('MP2/aug-cc-pvtz', properties = ['dipole'])
--------------------------------------------------------------------------

    Molecular point group: c1
  Charge       = 0
  Multiplicity = 1
  Basis Set: AUG-CC-PVTZ
    Blend: AUG-CC-PVTZ
  Basis Set: (AUG-CC-PVTZ AUX)
    Blend: AUG-CC-PVTZ-JKFIT

    Orbital Energies [Eh]
    ---------------------

    Doubly Occupied:

       1A    -15.608216     2A    -11.254163     3A    -11.254111
       4A    -11.211510     5A    -11.210445     6A     -1.289550
       7A     -1.040705     8A     -0.975280     9A     -0.791730
      10A     -0.765599    11A     -0.734661    12A     -0.590655
      13A     -0.582529    14A     -0.566625    15A     -0.545207
      16A     -0.528920    17A     -0.347472    18A     -0.296710

  @DF-RHF Final Energy:  -208.88534739385020

   => Energetics <=

    Nuclear Repulsion Energy =            160.7449142349022679
    One-Electron Energy =                -600.0723446862712080
    Two-Electron Energy =                 230.4420830575187722
    Total Energy =                       -208.8853473938501963
  Basis Set: (AUG-CC-PVTZ AUX)
    Blend: AUG-CC-PVTZ-RI
    Molecular point group: c1

    Geometry (in Angstrom), charge = 0, multiplicity = 1:

       Center              X                  Y                   Z               Mass
    ------------   -----------------  -----------------  -----------------  -----------------
         N           -1.119397143738    -0.000011846014    -0.000729472341    14.003074004430
         C           -0.333414143738     1.125824153986    -0.000755472341    12.000000000000
         C           -0.333391143738    -1.125830846014    -0.000731472341    12.000000000000
         C            0.985245856262     0.709244153986    -0.000785472341    12.000000000000
         C            0.985260856262    -0.709223846014    -0.000760472341    12.000000000000
         H           -2.130206143738    -0.000020846014    -0.000692472341     1.007825032230
         H           -0.770439143738     2.114605153986    -0.000768472341     1.007825032230
         H           -0.770393143738    -2.114620846014    -0.000707472341     1.007825032230
         H            1.850679056262     1.358597853986     0.049187527659     1.007825032230
         H            1.850705856262    -1.358558846014    -0.000771472341     1.007825032230

  Basis Set: AUG-CC-PVTZ
    Blend: AUG-CC-PVTZ
  Basis Set: (AUG-CC-PVTZ AUX)
    Blend: AUG-CC-PVTZ-JKFIT
	 Reference Energy          =    -208.8853473938501963 [Eh]
	 Singles Energy            =      -0.0000000000000000 [Eh]
	 Same-Spin Energy          =      -0.2303661795209495 [Eh]
	 Opposite-Spin Energy      =      -0.7230409072296475 [Eh]
	 Correlation Energy        =      -0.9534070867505970 [Eh]
	 Total Energy              =    -209.8387544806007838 [Eh]

	 ================> DF-SCS-MP2 Energies <==================
	-----------------------------------------------------------
	 SCS Same-Spin Scale       =       0.3333333333333333 [-]
	 SCS Opposite-Spin Scale   =       1.2000000000000000 [-]
	 SCS Same-Spin Energy      =      -0.0767887265069832 [Eh]
	 SCS Opposite-Spin Energy  =      -0.8676490886755770 [Eh]
	 SCS Correlation Energy    =      -0.9444378151825602 [Eh]
	 SCS Total Energy          =    -209.8297852090327638 [Eh]
	-----------------------------------------------------------

  Dipole Moment: [D]
     X:    -1.8733      Y:    -0.0014      Z:     0.0415     Total:     1.8737

*** Psi4 exiting successfully. Buy a developer a beer!
