                               Psi4 1.3.2 release

  ==> Input File <==

--------------------------------------------------------------------------
#psi4
#
memory 32 gb

molecule  {
0 1
  N       -1.1198630    -0.0000120     0.0000220
  C       -0.3338800     1.1258240    -0.0000040
  C       -0.3338570    -1.1258310     0.0000200
  C        0.9847800     0.7092440    -0.0000340
  C        0.9847950    -0.7092240    -0.0000090
  H       -2.1306720    -0.0000210     0.0000590
  H       -0.7708996     2.1146087     0.2499830
  H       -0.7708590    -2.1146210     0.0000440
  H        1.8502120     1.3585970    -0.0000610
  H        1.8502400    -1.3585590    -0.0000200
units angstrom
no_reorient  #important for SAPT in psi4, default
symmetry c1  #important for SAPT in psi4, default
}

set PROPERTIES_ORIGIN ["COM"]
properties('MP2/aug-cc-pvtz', properties = ['dipole'])
--------------------------------------------------------------------------

    Molecular point group: c1
  Charge       = 0
  Multiplicity = 1
  Basis Set: AUG-CC-PVTZ
    Blend: AUG-CC-PVTZ
  Basis Set: (AUG-CC-PVTZ AUX)
    Blend: AUG-CC-PVTZ-JKFIT

    Orbital Energies [Eh]
    ---------------------

    Doubly Occupied:

       1A    -15.608271     2A    -11.255939     3A    -11.255197
       4A    -11.212231     5A    -11.211085     6A     -1.289747
       7A     -1.041221     8A     -0.974362     9A     -0.791714
      10A     -0.765532    11A     -0.730385    12A     -0.591142
      13A     -0.582596    14A     -0.563570    15A     -0.545204
      16A     -0.527063    17A     -0.347818    18A     -0.297073

  @DF-RHF Final Energy:  -208.88194494395526

   => Energetics <=

    Nuclear Repulsion Energy =            160.6455233331952570
    One-Electron Energy =                -599.8746357233833351
    Two-Electron Energy =                 230.3471674462328451
    Total Energy =                       -208.8819449439552614
  Basis Set: (AUG-CC-PVTZ AUX)
    Blend: AUG-CC-PVTZ-RI
    Molecular point group: c1

    Geometry (in Angstrom), charge = 0, multiplicity = 1:

       Center              X                  Y                   Z               Mass
    ------------   -----------------  -----------------  -----------------  -----------------
         N           -1.119397206875    -0.000011891112    -0.003736011640    14.003074004430
         C           -0.333414206875     1.125824108888    -0.003762011640    12.000000000000
         C           -0.333391206875    -1.125830891112    -0.003738011640    12.000000000000
         C            0.985245793125     0.709244108888    -0.003792011640    12.000000000000
         C            0.985260793125    -0.709223891112    -0.003767011640    12.000000000000
         H           -2.130206206875    -0.000020891112    -0.003699011640     1.007825032230
         H           -0.770433806875     2.114608808888     0.246224988360     1.007825032230
         H           -0.770393206875    -2.114620891112    -0.003714011640     1.007825032230
         H            1.850677793125     1.358597108888    -0.003819011640     1.007825032230
         H            1.850705793125    -1.358558891112    -0.003778011640     1.007825032230

  Basis Set: AUG-CC-PVTZ
    Blend: AUG-CC-PVTZ
  Basis Set: (AUG-CC-PVTZ AUX)
    Blend: AUG-CC-PVTZ-JKFIT
	 Reference Energy          =    -208.8819449439552614 [Eh]
	 Singles Energy            =      -0.0000000000000000 [Eh]
	 Same-Spin Energy          =      -0.2305888656085917 [Eh]
	 Opposite-Spin Energy      =      -0.7235632005107990 [Eh]
	 Correlation Energy        =      -0.9541520661193907 [Eh]
	 Total Energy              =    -209.8360970100746385 [Eh]

	 ================> DF-SCS-MP2 Energies <==================
	-----------------------------------------------------------
	 SCS Same-Spin Scale       =       0.3333333333333333 [-]
	 SCS Opposite-Spin Scale   =       1.2000000000000000 [-]
	 SCS Same-Spin Energy      =      -0.0768629552028639 [Eh]
	 SCS Opposite-Spin Energy  =      -0.8682758406129588 [Eh]
	 SCS Correlation Energy    =      -0.9451387958158227 [Eh]
	 SCS Total Energy          =    -209.8270837397710977 [Eh]
	-----------------------------------------------------------

  Dipole Moment: [D]
     X:    -1.8397      Y:    -0.0620      Z:     0.2275     Total:     1.8548

*** Psi4 exiting successfully. Buy a developer a beer!
