                               Psi4 1.3.2 release

  ==> Input File <==

--------------------------------------------------------------------------
#psi4
#
memory 32 gb

molecule  {
0 1
  C        1.9266460    -0.0001280    -0.5925190
  C        0.4221035    -0.0000936    -0.5012475
  C       -0.2606840    -1.2037490    -0.1915840
  C       -0.2605850     1.2036870    -0.1916700
  C        2.7216460     0.0000950     0.7169160
  C       -1.6267430    -1.2070050     0.0951370
  C       -1.6266430     1.2070770     0.0950500
  C       -2.3133840     0.0000700     0.2425720
  H        2.1979770    -0.8797810    -1.1880300
  H        2.1980020     0.8793040    -1.1883450
  H        0.2684350    -2.1485200    -0.3109970
  H        0.2686130     2.1484050    -0.3111530
  H        2.4776170     0.8842370     1.3127700
  H        3.7994840     0.0000410     0.5265790
  H        2.4775840    -0.8838220     1.3130890
  H       -2.1553560    -2.1514480     0.2031020
  H       -2.1551770     2.1515730     0.2029480
  H       -3.3780160     0.0001220     0.4635020
units angstrom
no_reorient  #important for SAPT in psi4, default
symmetry c1  #important for SAPT in psi4, default
}

set PROPERTIES_ORIGIN ["COM"]
properties('MP2/aug-cc-pvtz', properties = ['dipole'])
--------------------------------------------------------------------------

    Molecular point group: c1
  Charge       = 0
  Multiplicity = 1
  Basis Set: AUG-CC-PVTZ
    Blend: AUG-CC-PVTZ
  Basis Set: (AUG-CC-PVTZ AUX)
    Blend: AUG-CC-PVTZ-JKFIT

    Orbital Energies [Eh]
    ---------------------

    Doubly Occupied:

       1A    -11.241348     2A    -11.234876     3A    -11.234595
       4A    -11.233257     5A    -11.233103     6A    -11.232467
       7A    -11.227987     8A    -11.218636     9A     -1.148799
      10A     -1.060746    11A     -1.008969    12A     -0.979044
      13A     -0.865826    14A     -0.821150    15A     -0.784454
      16A     -0.689205    17A     -0.638790    18A     -0.632373
      19A     -0.588739    20A     -0.583388    21A     -0.577152
      22A     -0.548626    23A     -0.519116    24A     -0.499883
      25A     -0.486572    26A     -0.472325    27A     -0.467685
      28A     -0.332776    29A     -0.322836

  @DF-RHF Final Energy:  -308.86638167112784

   => Energetics <=

    Nuclear Repulsion Energy =            339.2292017974874625
    One-Electron Energy =               -1088.4217270792087220
    Two-Electron Energy =                 440.3261436105934195
    Total Energy =                       -308.8663816711278400
  Basis Set: (AUG-CC-PVTZ AUX)
    Blend: AUG-CC-PVTZ-RI
    Molecular point group: c1

    Geometry (in Angstrom), charge = 0, multiplicity = 1:

       Center              X                  Y                   Z               Mass
    ------------   -----------------  -----------------  -----------------  -----------------
         C            1.984769275388    -0.000123783005    -0.565212060598    12.000000000000
         C            0.480226775388    -0.000089383005    -0.473940560598    12.000000000000
         C           -0.202560724612    -1.203744783005    -0.164277060598    12.000000000000
         C           -0.202461724612     1.203691216995    -0.164363060598    12.000000000000
         C            2.779769275388     0.000099216995     0.744222939402    12.000000000000
         C           -1.568619724612    -1.207000783005     0.122443939402    12.000000000000
         C           -1.568519724612     1.207081216995     0.122356939402    12.000000000000
         C           -2.255260724612     0.000074216995     0.269878939402    12.000000000000
         H            2.256100275388    -0.879776783005    -1.160723060598     1.007825032230
         H            2.256125275388     0.879308216995    -1.161038060598     1.007825032230
         H            0.326558275388    -2.148515783005    -0.283690060598     1.007825032230
         H            0.326736275388     2.148409216995    -0.283846060598     1.007825032230
         H            2.535740275388     0.884241216995     1.340076939402     1.007825032230
         H            3.857607275388     0.000045216995     0.553885939402     1.007825032230
         H            2.535707275388    -0.883817783005     1.340395939402     1.007825032230
         H           -2.097232724612    -2.151443783005     0.230408939402     1.007825032230
         H           -2.097053724612     2.151577216995     0.230254939402     1.007825032230
         H           -3.319892724612     0.000126216995     0.490808939402     1.007825032230

  Basis Set: AUG-CC-PVTZ
    Blend: AUG-CC-PVTZ
  Basis Set: (AUG-CC-PVTZ AUX)
    Blend: AUG-CC-PVTZ-JKFIT
	 Reference Energy          =    -308.8663816711278400 [Eh]
	 Singles Energy            =      -0.0000000000000000 [Eh]
	 Same-Spin Energy          =      -0.3432059258740289 [Eh]
	 Opposite-Spin Energy      =      -1.1320257102281142 [Eh]
	 Correlation Energy        =      -1.4752316361021431 [Eh]
	 Total Energy              =    -310.3416133072299772 [Eh]

	 ================> DF-SCS-MP2 Energies <==================
	-----------------------------------------------------------
	 SCS Same-Spin Scale       =       0.3333333333333333 [-]
	 SCS Opposite-Spin Scale   =       1.2000000000000000 [-]
	 SCS Same-Spin Energy      =      -0.1144019752913430 [Eh]
	 SCS Opposite-Spin Energy  =      -1.3584308522737369 [Eh]
	 SCS Correlation Energy    =      -1.4728328275650799 [Eh]
	 SCS Total Energy          =    -310.3392144986929111 [Eh]
	-----------------------------------------------------------

  Dipole Moment: [D]
     X:     0.3258      Y:     0.0000      Z:     0.0982     Total:     0.3402

*** Psi4 exiting successfully. Buy a developer a beer!
