                               Psi4 1.3.2 release

  ==> Input File <==

--------------------------------------------------------------------------
#psi4
#
memory 32 gb

molecule  {
0 1
  C        1.9266460    -0.0001280    -0.5925190
  C        0.4739578    -0.0000390    -0.1904300
  C       -0.2606840    -1.2037490    -0.1915840
  C       -0.2605850     1.2036870    -0.1916700
  C        2.7216460     0.0000950     0.7169160
  C       -1.6267430    -1.2070050     0.0951370
  C       -1.6266430     1.2070770     0.0950500
  C       -2.3133840     0.0000700     0.2425720
  H        2.1979770    -0.8797810    -1.1880300
  H        2.1980020     0.8793040    -1.1883450
  H        0.2684350    -2.1485200    -0.3109970
  H        0.2686130     2.1484050    -0.3111530
  H        2.4776170     0.8842370     1.3127700
  H        3.7994840     0.0000410     0.5265790
  H        2.4775840    -0.8838220     1.3130890
  H       -2.1553560    -2.1514480     0.2031020
  H       -2.1551770     2.1515730     0.2029480
  H       -3.3780160     0.0001220     0.4635020
units angstrom
no_reorient  #important for SAPT in psi4, default
symmetry c1  #important for SAPT in psi4, default
}

set PROPERTIES_ORIGIN ["COM"]
properties('MP2/aug-cc-pvtz', properties = ['dipole'])
--------------------------------------------------------------------------

    Molecular point group: c1
  Charge       = 0
  Multiplicity = 1
  Basis Set: AUG-CC-PVTZ
    Blend: AUG-CC-PVTZ
  Basis Set: (AUG-CC-PVTZ AUX)
    Blend: AUG-CC-PVTZ-JKFIT

    Orbital Energies [Eh]
    ---------------------

    Doubly Occupied:

       1A    -11.240823     2A    -11.234193     3A    -11.234016
       4A    -11.231595     5A    -11.231576     6A    -11.230560
       7A    -11.228610     8A    -11.214706     9A     -1.150296
      10A     -1.063560    11A     -1.009051    12A     -0.978335
      13A     -0.858763    14A     -0.821773    15A     -0.786428
      16A     -0.690568    17A     -0.639243    18A     -0.638157
      19A     -0.593246    20A     -0.583935    21A     -0.576605
      22A     -0.540832    23A     -0.519359    24A     -0.497732
      25A     -0.488104    26A     -0.478118    27A     -0.465186
      28A     -0.332328    29A     -0.321806

  @DF-RHF Final Energy:  -308.86785281860369

   => Energetics <=

    Nuclear Repulsion Energy =            340.1468933798154239
    One-Electron Energy =               -1090.2704817809694759
    Two-Electron Energy =                 441.2557355825503578
    Total Energy =                       -308.8678528186036942
  Basis Set: (AUG-CC-PVTZ AUX)
    Blend: AUG-CC-PVTZ-RI
    Molecular point group: c1

    Geometry (in Angstrom), charge = 0, multiplicity = 1:

       Center              X                  Y                   Z               Mass
    ------------   -----------------  -----------------  -----------------  -----------------
         C            1.978903307594    -0.000129959578    -0.600372991220    12.000000000000
         C            0.526215107594    -0.000040959578    -0.198283991220    12.000000000000
         C           -0.208426692406    -1.203750959578    -0.199437991220    12.000000000000
         C           -0.208327692406     1.203685040422    -0.199523991220    12.000000000000
         C            2.773903307594     0.000093040422     0.709062008780    12.000000000000
         C           -1.574485692406    -1.207006959578     0.087283008780    12.000000000000
         C           -1.574385692406     1.207075040422     0.087196008780    12.000000000000
         C           -2.261126692406     0.000068040422     0.234718008780    12.000000000000
         H            2.250234307594    -0.879782959578    -1.195883991220     1.007825032230
         H            2.250259307594     0.879302040422    -1.196198991219     1.007825032230
         H            0.320692307594    -2.148521959578    -0.318850991220     1.007825032230
         H            0.320870307594     2.148403040422    -0.319006991220     1.007825032230
         H            2.529874307594     0.884235040422     1.304916008781     1.007825032230
         H            3.851741307594     0.000039040422     0.518725008780     1.007825032230
         H            2.529841307594    -0.883823959578     1.305235008781     1.007825032230
         H           -2.103098692406    -2.151449959578     0.195248008780     1.007825032230
         H           -2.102919692406     2.151571040422     0.195094008780     1.007825032230
         H           -3.325758692406     0.000120040422     0.455648008780     1.007825032230

  Basis Set: AUG-CC-PVTZ
    Blend: AUG-CC-PVTZ
  Basis Set: (AUG-CC-PVTZ AUX)
    Blend: AUG-CC-PVTZ-JKFIT
	 Reference Energy          =    -308.8678528186036942 [Eh]
	 Singles Energy            =      -0.0000000000000000 [Eh]
	 Same-Spin Energy          =      -0.3432888198612642 [Eh]
	 Opposite-Spin Energy      =      -1.1320654380524893 [Eh]
	 Correlation Energy        =      -1.4753542579137535 [Eh]
	 Total Energy              =    -310.3432070765174444 [Eh]

	 ================> DF-SCS-MP2 Energies <==================
	-----------------------------------------------------------
	 SCS Same-Spin Scale       =       0.3333333333333333 [-]
	 SCS Opposite-Spin Scale   =       1.2000000000000000 [-]
	 SCS Same-Spin Energy      =      -0.1144296066204214 [Eh]
	 SCS Opposite-Spin Energy  =      -1.3584785256629870 [Eh]
	 SCS Correlation Energy    =      -1.4729081322834083 [Eh]
	 SCS Total Energy          =    -310.3407609508871019 [Eh]
	-----------------------------------------------------------

  Dipole Moment: [D]
     X:     0.3685      Y:    -0.0000      Z:    -0.0949     Total:     0.3805

*** Psi4 exiting successfully. Buy a developer a beer!
