                               Psi4 1.3.2 release

  ==> Input File <==

--------------------------------------------------------------------------
#psi4
#
memory 32 gb

molecule  {
0 1
  C        1.9266460    -0.0001280    -0.5925190
  C        0.4444413    -0.0000615    -0.3185702
  C       -0.2606840    -1.2037490    -0.1915840
  C       -0.2605850     1.2036870    -0.1916700
  C        2.7216460     0.0000950     0.7169160
  C       -1.6267430    -1.2070050     0.0951370
  C       -1.6266430     1.2070770     0.0950500
  C       -2.3133840     0.0000700     0.2425720
  H        2.1979770    -0.8797810    -1.1880300
  H        2.1980020     0.8793040    -1.1883450
  H        0.2684350    -2.1485200    -0.3109970
  H        0.2686130     2.1484050    -0.3111530
  H        2.4776170     0.8842370     1.3127700
  H        3.7994840     0.0000410     0.5265790
  H        2.4775840    -0.8838220     1.3130890
  H       -2.1553560    -2.1514480     0.2031020
  H       -2.1551770     2.1515730     0.2029480
  H       -3.3780160     0.0001220     0.4635020
units angstrom
no_reorient  #important for SAPT in psi4, default
symmetry c1  #important for SAPT in psi4, default
}

set PROPERTIES_ORIGIN ["COM"]
properties('MP2/aug-cc-pvtz', properties = ['dipole'])
--------------------------------------------------------------------------

    Molecular point group: c1
  Charge       = 0
  Multiplicity = 1
  Basis Set: AUG-CC-PVTZ
    Blend: AUG-CC-PVTZ
  Basis Set: (AUG-CC-PVTZ AUX)
    Blend: AUG-CC-PVTZ-JKFIT

    Orbital Energies [Eh]
    ---------------------

    Doubly Occupied:

       1A    -11.238651     2A    -11.234508     3A    -11.234350
       4A    -11.230278     5A    -11.229855     6A    -11.229747
       7A    -11.228447     8A    -11.216453     9A     -1.151298
      10A     -1.062218    11A     -1.009562    12A     -0.979842
      13A     -0.861703    14A     -0.823389    15A     -0.786236
      16A     -0.690078    17A     -0.639870    18A     -0.634884
      19A     -0.592056    20A     -0.585551    21A     -0.576710
      22A     -0.544354    23A     -0.519628    24A     -0.499015
      25A     -0.484017    26A     -0.477509    27A     -0.471947
      28A     -0.333561    29A     -0.322949

  @DF-RHF Final Energy:  -308.87709325225399

   => Energetics <=

    Nuclear Repulsion Energy =            340.0994963842105676
    One-Electron Energy =               -1090.1758476449231239
    Two-Electron Energy =                 441.1992580084585143
    Total Energy =                       -308.8770932522539852
  Basis Set: (AUG-CC-PVTZ AUX)
    Blend: AUG-CC-PVTZ-RI
    Molecular point group: c1

    Geometry (in Angstrom), charge = 0, multiplicity = 1:

       Center              X                  Y                   Z               Mass
    ------------   -----------------  -----------------  -----------------  -----------------
         C            1.982242333256    -0.000127414287    -0.585877254390    12.000000000000
         C            0.500037633256    -0.000060914287    -0.311928454390    12.000000000000
         C           -0.205087666744    -1.203748414287    -0.184942254390    12.000000000000
         C           -0.204988666744     1.203687585713    -0.185028254390    12.000000000000
         C            2.777242333256     0.000095585713     0.723557745610    12.000000000000
         C           -1.571146666744    -1.207004414287     0.101778745610    12.000000000000
         C           -1.571046666744     1.207077585713     0.101691745610    12.000000000000
         C           -2.257787666744     0.000070585713     0.249213745610    12.000000000000
         H            2.253573333256    -0.879780414287    -1.181388254390     1.007825032230
         H            2.253598333256     0.879304585713    -1.181703254390     1.007825032230
         H            0.324031333256    -2.148519414287    -0.304355254390     1.007825032230
         H            0.324209333256     2.148405585713    -0.304511254390     1.007825032230
         H            2.533213333256     0.884237585713     1.319411745610     1.007825032230
         H            3.855080333256     0.000041585713     0.533220745610     1.007825032230
         H            2.533180333256    -0.883821414287     1.319730745610     1.007825032230
         H           -2.099759666744    -2.151447414287     0.209743745610     1.007825032230
         H           -2.099580666744     2.151573585713     0.209589745610     1.007825032230
         H           -3.322419666744     0.000122585713     0.470143745610     1.007825032230

  Basis Set: AUG-CC-PVTZ
    Blend: AUG-CC-PVTZ
  Basis Set: (AUG-CC-PVTZ AUX)
    Blend: AUG-CC-PVTZ-JKFIT
	 Reference Energy          =    -308.8770932522539852 [Eh]
	 Singles Energy            =      -0.0000000000000000 [Eh]
	 Same-Spin Energy          =      -0.3427370236703305 [Eh]
	 Opposite-Spin Energy      =      -1.1306745150603150 [Eh]
	 Correlation Energy        =      -1.4734115387306455 [Eh]
	 Total Energy              =    -310.3505047909846439 [Eh]

	 ================> DF-SCS-MP2 Energies <==================
	-----------------------------------------------------------
	 SCS Same-Spin Scale       =       0.3333333333333333 [-]
	 SCS Opposite-Spin Scale   =       1.2000000000000000 [-]
	 SCS Same-Spin Energy      =      -0.1142456745567768 [Eh]
	 SCS Opposite-Spin Energy  =      -1.3568094180723780 [Eh]
	 SCS Correlation Energy    =      -1.4710550926291548 [Eh]
	 SCS Total Energy          =    -310.3481483448831568 [Eh]
	-----------------------------------------------------------

  Dipole Moment: [D]
     X:     0.3939      Y:    -0.0000      Z:    -0.0253     Total:     0.3947

*** Psi4 exiting successfully. Buy a developer a beer!
