                               Psi4 1.3.2 release

  ==> Input File <==

--------------------------------------------------------------------------
#psi4
#
memory 32 gb

molecule  {
0 1
  C        1.9266460    -0.0001280    -0.5925190
  C        0.4357836    -0.0000706    -0.3704653
  C       -0.2606840    -1.2037490    -0.1915840
  C       -0.2605850     1.2036870    -0.1916700
  C        2.7216460     0.0000950     0.7169160
  C       -1.6267430    -1.2070050     0.0951370
  C       -1.6266430     1.2070770     0.0950500
  C       -2.3133840     0.0000700     0.2425720
  H        2.1979770    -0.8797810    -1.1880300
  H        2.1980020     0.8793040    -1.1883450
  H        0.2684350    -2.1485200    -0.3109970
  H        0.2686130     2.1484050    -0.3111530
  H        2.4776170     0.8842370     1.3127700
  H        3.7994840     0.0000410     0.5265790
  H        2.4775840    -0.8838220     1.3130890
  H       -2.1553560    -2.1514480     0.2031020
  H       -2.1551770     2.1515730     0.2029480
  H       -3.3780160     0.0001220     0.4635020
units angstrom
no_reorient  #important for SAPT in psi4, default
symmetry c1  #important for SAPT in psi4, default
}

set PROPERTIES_ORIGIN ["COM"]
properties('MP2/aug-cc-pvtz', properties = ['dipole'])
--------------------------------------------------------------------------

    Molecular point group: c1
  Charge       = 0
  Multiplicity = 1
  Basis Set: AUG-CC-PVTZ
    Blend: AUG-CC-PVTZ
  Basis Set: (AUG-CC-PVTZ AUX)
    Blend: AUG-CC-PVTZ-JKFIT

    Orbital Energies [Eh]
    ---------------------

    Doubly Occupied:

       1A    -11.238759     2A    -11.234587     3A    -11.234418
       4A    -11.230616     5A    -11.230131     6A    -11.230023
       7A    -11.228343     8A    -11.217121     9A     -1.151033
      10A     -1.061762    11A     -1.009534    12A     -0.979950
      13A     -0.862881    14A     -0.823268    15A     -0.785926
      16A     -0.689819    17A     -0.639790    18A     -0.633920
      19A     -0.591297    20A     -0.585443    21A     -0.576795
      22A     -0.545656    23A     -0.519578    24A     -0.499363
      25A     -0.483537    26A     -0.476566    27A     -0.472599
      28A     -0.333628    29A     -0.323101

  @DF-RHF Final Energy:  -308.87685099800035

   => Energetics <=

    Nuclear Repulsion Energy =            339.9458976352610193
    One-Electron Energy =               -1089.8666075225721670
    Two-Electron Energy =                 441.0438588893108545
    Total Energy =                       -308.8768509980003500
  Basis Set: (AUG-CC-PVTZ AUX)
    Blend: AUG-CC-PVTZ-RI
    Molecular point group: c1

    Geometry (in Angstrom), charge = 0, multiplicity = 1:

       Center              X                  Y                   Z               Mass
    ------------   -----------------  -----------------  -----------------  -----------------
         C            1.983221727239    -0.000126384858    -0.580006671136    12.000000000000
         C            0.492359327239    -0.000068984858    -0.357952971136    12.000000000000
         C           -0.204108272761    -1.203747384858    -0.179071671136    12.000000000000
         C           -0.204009272761     1.203688615142    -0.179157671136    12.000000000000
         C            2.778221727239     0.000096615142     0.729428328864    12.000000000000
         C           -1.570167272761    -1.207003384858     0.107649328864    12.000000000000
         C           -1.570067272761     1.207078615142     0.107562328864    12.000000000000
         C           -2.256808272761     0.000071615142     0.255084328864    12.000000000000
         H            2.254552727239    -0.879779384858    -1.175517671136     1.007825032230
         H            2.254577727239     0.879305615142    -1.175832671136     1.007825032230
         H            0.325010727239    -2.148518384858    -0.298484671136     1.007825032230
         H            0.325188727239     2.148406615142    -0.298640671136     1.007825032230
         H            2.534192727239     0.884238615142     1.325282328864     1.007825032230
         H            3.856059727239     0.000042615142     0.539091328864     1.007825032230
         H            2.534159727239    -0.883820384858     1.325601328864     1.007825032230
         H           -2.098780272761    -2.151446384858     0.215614328864     1.007825032230
         H           -2.098601272761     2.151574615142     0.215460328864     1.007825032230
         H           -3.321440272761     0.000123615142     0.476014328864     1.007825032230

  Basis Set: AUG-CC-PVTZ
    Blend: AUG-CC-PVTZ
  Basis Set: (AUG-CC-PVTZ AUX)
    Blend: AUG-CC-PVTZ-JKFIT
	 Reference Energy          =    -308.8768509980003500 [Eh]
	 Singles Energy            =      -0.0000000000000000 [Eh]
	 Same-Spin Energy          =      -0.3427276276213790 [Eh]
	 Opposite-Spin Energy      =      -1.1306633796688053 [Eh]
	 Correlation Energy        =      -1.4733910072901844 [Eh]
	 Total Energy              =    -310.3502420052905109 [Eh]

	 ================> DF-SCS-MP2 Energies <==================
	-----------------------------------------------------------
	 SCS Same-Spin Scale       =       0.3333333333333333 [-]
	 SCS Opposite-Spin Scale   =       1.2000000000000000 [-]
	 SCS Same-Spin Energy      =      -0.1142425425404597 [Eh]
	 SCS Opposite-Spin Energy  =      -1.3567960556025662 [Eh]
	 SCS Correlation Energy    =      -1.4710385981430258 [Eh]
	 SCS Total Energy          =    -310.3478895961433750 [Eh]
	-----------------------------------------------------------

  Dipole Moment: [D]
     X:     0.3869      Y:     0.0000      Z:     0.0067     Total:     0.3869

*** Psi4 exiting successfully. Buy a developer a beer!
