                               Psi4 1.3.2 release

  ==> Input File <==

--------------------------------------------------------------------------
#psi4
#
memory 32 gb

molecule  {
0 1
  C        1.9266460    -0.0001280    -0.5925190
  C        0.4398860    -0.0000660    -0.3444800
  C       -0.2606840    -1.2037490    -0.1915840
  C       -0.2605850     1.2036870    -0.1916700
  C        2.7216460     0.0000950     0.7169160
  C       -1.6267430    -1.2070050     0.0951370
  C       -1.6266430     1.2070770     0.0950500
  C       -2.3133840     0.0000700     0.2425720
  H        2.1979770    -0.8797810    -1.1880300
  H        2.1980020     0.8793040    -1.1883450
  H        0.2684350    -2.1485200    -0.3109970
  H        0.2686130     2.1484050    -0.3111530
  H        2.4776170     0.8842370     1.3127700
  H        3.7994840     0.0000410     0.5265790
  H        2.4775840    -0.8838220     1.3130890
  H       -2.1553560    -2.1514480     0.2031020
  H       -2.1551770     2.1515730     0.2029480
  H       -3.3780160     0.0001220     0.4635020
units angstrom
no_reorient  #important for SAPT in psi4, default
symmetry c1  #important for SAPT in psi4, default
}

set PROPERTIES_ORIGIN ["COM"]
properties('MP2/aug-cc-pvtz', properties = ['dipole'])
--------------------------------------------------------------------------

    Molecular point group: c1
  Charge       = 0
  Multiplicity = 1
  Basis Set: AUG-CC-PVTZ
    Blend: AUG-CC-PVTZ
  Basis Set: (AUG-CC-PVTZ AUX)
    Blend: AUG-CC-PVTZ-JKFIT

    Orbital Energies [Eh]
    ---------------------

    Doubly Occupied:

       1A    -11.238635     2A    -11.234552     3A    -11.234390
       4A    -11.230411     5A    -11.229922     6A    -11.229817
       7A    -11.228397     8A    -11.216790     9A     -1.151213
      10A     -1.061985    11A     -1.009565    12A     -0.979931
      13A     -0.862292    14A     -0.823384    15A     -0.786099
      16A     -0.689951    17A     -0.639855    18A     -0.634378
      19A     -0.591696    20A     -0.585551    21A     -0.576749
      22A     -0.545013    23A     -0.519614    24A     -0.499201
      25A     -0.483621    26A     -0.477088    27A     -0.472495
      28A     -0.333626    29A     -0.323047

  @DF-RHF Final Energy:  -308.87725070781033

   => Energetics <=

    Nuclear Repulsion Energy =            340.0323911075888077
    One-Electron Energy =               -1090.0407499164714409
    Two-Electron Energy =                 441.1311081010722432
    Total Energy =                       -308.8772507078103331
  Basis Set: (AUG-CC-PVTZ AUX)
    Blend: AUG-CC-PVTZ-RI
    Molecular point group: c1

    Geometry (in Angstrom), charge = 0, multiplicity = 1:

       Center              X                  Y                   Z               Mass
    ------------   -----------------  -----------------  -----------------  -----------------
         C            1.982757647186    -0.000126905229    -0.582946233195    12.000000000000
         C            0.495997647186    -0.000064905229    -0.334907233195    12.000000000000
         C           -0.204572352814    -1.203747905229    -0.182011233195    12.000000000000
         C           -0.204473352814     1.203688094771    -0.182097233195    12.000000000000
         C            2.777757647186     0.000096094771     0.726488766805    12.000000000000
         C           -1.570631352814    -1.207003905229     0.104709766805    12.000000000000
         C           -1.570531352814     1.207078094771     0.104622766805    12.000000000000
         C           -2.257272352814     0.000071094771     0.252144766805    12.000000000000
         H            2.254088647186    -0.879779905229    -1.178457233195     1.007825032230
         H            2.254113647186     0.879305094771    -1.178772233195     1.007825032230
         H            0.324546647186    -2.148518905229    -0.301424233195     1.007825032230
         H            0.324724647186     2.148406094771    -0.301580233195     1.007825032230
         H            2.533728647186     0.884238094771     1.322342766805     1.007825032230
         H            3.855595647186     0.000042094771     0.536151766805     1.007825032230
         H            2.533695647186    -0.883820905229     1.322661766805     1.007825032230
         H           -2.099244352814    -2.151446905229     0.212674766805     1.007825032230
         H           -2.099065352814     2.151574094771     0.212520766805     1.007825032230
         H           -3.321904352814     0.000123094771     0.473074766805     1.007825032230

  Basis Set: AUG-CC-PVTZ
    Blend: AUG-CC-PVTZ
  Basis Set: (AUG-CC-PVTZ AUX)
    Blend: AUG-CC-PVTZ-JKFIT
	 Reference Energy          =    -308.8772507078103331 [Eh]
	 Singles Energy            =      -0.0000000000000000 [Eh]
	 Same-Spin Energy          =      -0.3427174505991671 [Eh]
	 Opposite-Spin Energy      =      -1.1306315253781460 [Eh]
	 Correlation Energy        =      -1.4733489759773133 [Eh]
	 Total Energy              =    -310.3505996837876637 [Eh]

	 ================> DF-SCS-MP2 Energies <==================
	-----------------------------------------------------------
	 SCS Same-Spin Scale       =       0.3333333333333333 [-]
	 SCS Opposite-Spin Scale   =       1.2000000000000000 [-]
	 SCS Same-Spin Energy      =      -0.1142391501997224 [Eh]
	 SCS Opposite-Spin Energy  =      -1.3567578304537753 [Eh]
	 SCS Correlation Energy    =      -1.4709969806534977 [Eh]
	 SCS Total Energy          =    -310.3482476884638572 [Eh]
	-----------------------------------------------------------

  Dipole Moment: [D]
     X:     0.3916      Y:    -0.0000      Z:    -0.0096     Total:     0.3917

*** Psi4 exiting successfully. Buy a developer a beer!
