                               Psi4 1.3.2 release

  ==> Input File <==

--------------------------------------------------------------------------
#psi4
#
memory 32 gb

molecule  {
0 1
  C        1.9266460    -0.0001280    -0.5925190
  C        0.4262053    -0.0000844    -0.4487953
  C       -0.2606840    -1.2037490    -0.1915840
  C       -0.2605850     1.2036870    -0.1916700
  C        2.7216460     0.0000950     0.7169160
  C       -1.6267430    -1.2070050     0.0951370
  C       -1.6266430     1.2070770     0.0950500
  C       -2.3133840     0.0000700     0.2425720
  H        2.1979770    -0.8797810    -1.1880300
  H        2.1980020     0.8793040    -1.1883450
  H        0.2684350    -2.1485200    -0.3109970
  H        0.2686130     2.1484050    -0.3111530
  H        2.4776170     0.8842370     1.3127700
  H        3.7994840     0.0000410     0.5265790
  H        2.4775840    -0.8838220     1.3130890
  H       -2.1553560    -2.1514480     0.2031020
  H       -2.1551770     2.1515730     0.2029480
  H       -3.3780160     0.0001220     0.4635020
units angstrom
no_reorient  #important for SAPT in psi4, default
symmetry c1  #important for SAPT in psi4, default
}

set PROPERTIES_ORIGIN ["COM"]
properties('MP2/aug-cc-pvtz', properties = ['dipole'])
--------------------------------------------------------------------------

    Molecular point group: c1
  Charge       = 0
  Multiplicity = 1
  Basis Set: AUG-CC-PVTZ
    Blend: AUG-CC-PVTZ
  Basis Set: (AUG-CC-PVTZ AUX)
    Blend: AUG-CC-PVTZ-JKFIT

    Orbital Energies [Eh]
    ---------------------

    Doubly Occupied:

       1A    -11.239942     2A    -11.234686     3A    -11.234462
       4A    -11.231748     5A    -11.231586     6A    -11.231380
       7A    -11.228154     8A    -11.218065     9A     -1.149944
      10A     -1.061139    11A     -1.009262    12A     -0.979605
      13A     -0.864648    14A     -0.822283    15A     -0.785174
      16A     -0.689425    17A     -0.639315    18A     -0.632845
      19A     -0.589874    20A     -0.584499    21A     -0.576982
      22A     -0.547487    23A     -0.519346    24A     -0.499730
      25A     -0.484980    26A     -0.474369    27A     -0.470434
      28A     -0.333278    29A     -0.323035

  @DF-RHF Final Energy:  -308.87228204815631

   => Energetics <=

    Nuclear Repulsion Energy =            339.5715482667479819
    One-Electron Energy =               -1089.1123032423756740
    Two-Electron Energy =                 440.6684729274713845
    Total Energy =                       -308.8722820481563076
  Basis Set: (AUG-CC-PVTZ AUX)
    Blend: AUG-CC-PVTZ-RI
    Molecular point group: c1

    Geometry (in Angstrom), charge = 0, multiplicity = 1:

       Center              X                  Y                   Z               Mass
    ------------   -----------------  -----------------  -----------------  -----------------
         C            1.984305263210    -0.000124823746    -0.571145665254    12.000000000000
         C            0.483864563210    -0.000081223746    -0.427421965254    12.000000000000
         C           -0.203024736790    -1.203745823746    -0.170210665254    12.000000000000
         C           -0.202925736790     1.203690176254    -0.170296665254    12.000000000000
         C            2.779305263210     0.000098176254     0.738289334746    12.000000000000
         C           -1.569083736790    -1.207001823746     0.116510334746    12.000000000000
         C           -1.568983736790     1.207080176254     0.116423334746    12.000000000000
         C           -2.255724736790     0.000073176254     0.263945334746    12.000000000000
         H            2.255636263210    -0.879777823746    -1.166656665254     1.007825032230
         H            2.255661263210     0.879307176254    -1.166971665254     1.007825032230
         H            0.326094263210    -2.148516823746    -0.289623665254     1.007825032230
         H            0.326272263210     2.148408176254    -0.289779665254     1.007825032230
         H            2.535276263210     0.884240176254     1.334143334746     1.007825032230
         H            3.857143263210     0.000044176254     0.547952334746     1.007825032230
         H            2.535243263210    -0.883818823746     1.334462334746     1.007825032230
         H           -2.097696736790    -2.151444823746     0.224475334746     1.007825032230
         H           -2.097517736790     2.151576176254     0.224321334746     1.007825032230
         H           -3.320356736790     0.000125176254     0.484875334746     1.007825032230

  Basis Set: AUG-CC-PVTZ
    Blend: AUG-CC-PVTZ
  Basis Set: (AUG-CC-PVTZ AUX)
    Blend: AUG-CC-PVTZ-JKFIT
	 Reference Energy          =    -308.8722820481563076 [Eh]
	 Singles Energy            =      -0.0000000000000000 [Eh]
	 Same-Spin Energy          =      -0.3429316639923978 [Eh]
	 Opposite-Spin Energy      =      -1.1312385170162635 [Eh]
	 Correlation Energy        =      -1.4741701810086614 [Eh]
	 Total Energy              =    -310.3464522291649814 [Eh]

	 ================> DF-SCS-MP2 Energies <==================
	-----------------------------------------------------------
	 SCS Same-Spin Scale       =       0.3333333333333333 [-]
	 SCS Opposite-Spin Scale   =       1.2000000000000000 [-]
	 SCS Same-Spin Energy      =      -0.1143105546641326 [Eh]
	 SCS Opposite-Spin Energy  =      -1.3574862204195162 [Eh]
	 SCS Correlation Energy    =      -1.4717967750836487 [Eh]
	 SCS Total Energy          =    -310.3440788232399541 [Eh]
	-----------------------------------------------------------

  Dipole Moment: [D]
     X:     0.3577      Y:     0.0000      Z:     0.0595     Total:     0.3626

*** Psi4 exiting successfully. Buy a developer a beer!
