                               Psi4 1.3.2 release

  ==> Input File <==

--------------------------------------------------------------------------
#psi4
#
memory 32 gb

molecule  {
0 1
  C        1.9266460    -0.0001280    -0.5925190
  C        0.4608100    -0.0000479    -0.2413731
  C       -0.2606840    -1.2037490    -0.1915840
  C       -0.2605850     1.2036870    -0.1916700
  C        2.7216460     0.0000950     0.7169160
  C       -1.6267430    -1.2070050     0.0951370
  C       -1.6266430     1.2070770     0.0950500
  C       -2.3133840     0.0000700     0.2425720
  H        2.1979770    -0.8797810    -1.1880300
  H        2.1980020     0.8793040    -1.1883450
  H        0.2684350    -2.1485200    -0.3109970
  H        0.2686130     2.1484050    -0.3111530
  H        2.4776170     0.8842370     1.3127700
  H        3.7994840     0.0000410     0.5265790
  H        2.4775840    -0.8838220     1.3130890
  H       -2.1553560    -2.1514480     0.2031020
  H       -2.1551770     2.1515730     0.2029480
  H       -3.3780160     0.0001220     0.4635020
units angstrom
no_reorient  #important for SAPT in psi4, default
symmetry c1  #important for SAPT in psi4, default
}

set PROPERTIES_ORIGIN ["COM"]
properties('MP2/aug-cc-pvtz', properties = ['dipole'])
--------------------------------------------------------------------------

    Molecular point group: c1
  Charge       = 0
  Multiplicity = 1
  Basis Set: AUG-CC-PVTZ
    Blend: AUG-CC-PVTZ
  Basis Set: (AUG-CC-PVTZ AUX)
    Blend: AUG-CC-PVTZ-JKFIT

    Orbital Energies [Eh]
    ---------------------

    Doubly Occupied:

       1A    -11.239543     2A    -11.234323     3A    -11.234160
       4A    -11.230504     5A    -11.230498     6A    -11.230172
       7A    -11.228567     8A    -11.215415     9A     -1.150975
      10A     -1.062983    11A     -1.009349    12A     -0.979155
      13A     -0.859936    14A     -0.822734    15A     -0.786443
      16A     -0.690403    17A     -0.639626    18A     -0.636699
      19A     -0.592894    20A     -0.584899    21A     -0.576632
      22A     -0.542281    23A     -0.519533    24A     -0.498315
      25A     -0.486303    26A     -0.478181    27A     -0.468436
      28A     -0.332995    29A     -0.322390

  @DF-RHF Final Energy:  -308.87325951715474

   => Energetics <=

    Nuclear Repulsion Energy =            340.1848055744493422
    One-Electron Energy =               -1090.3474452447869680
    Two-Electron Energy =                 441.2893801531828899
    Total Energy =                       -308.8732595171547359
  Basis Set: (AUG-CC-PVTZ AUX)
    Blend: AUG-CC-PVTZ-RI
    Molecular point group: c1

    Geometry (in Angstrom), charge = 0, multiplicity = 1:

       Center              X                  Y                   Z               Mass
    ------------   -----------------  -----------------  -----------------  -----------------
         C            1.980390639819    -0.000128952774    -0.594610102049    12.000000000000
         C            0.514554639819    -0.000048852774    -0.243464202049    12.000000000000
         C           -0.206939360181    -1.203749952774    -0.193675102049    12.000000000000
         C           -0.206840360181     1.203686047226    -0.193761102049    12.000000000000
         C            2.775390639819     0.000094047226     0.714824897951    12.000000000000
         C           -1.572998360181    -1.207005952774     0.093045897951    12.000000000000
         C           -1.572898360181     1.207076047226     0.092958897951    12.000000000000
         C           -2.259639360181     0.000069047226     0.240480897951    12.000000000000
         H            2.251721639819    -0.879781952774    -1.190121102049     1.007825032230
         H            2.251746639819     0.879303047226    -1.190436102049     1.007825032230
         H            0.322179639819    -2.148520952774    -0.313088102049     1.007825032230
         H            0.322357639819     2.148404047226    -0.313244102049     1.007825032230
         H            2.531361639819     0.884236047226     1.310678897951     1.007825032230
         H            3.853228639819     0.000040047226     0.524487897951     1.007825032230
         H            2.531328639819    -0.883822952774     1.310997897951     1.007825032230
         H           -2.101611360181    -2.151448952774     0.201010897951     1.007825032230
         H           -2.101432360181     2.151572047226     0.200856897951     1.007825032230
         H           -3.324271360181     0.000121047226     0.461410897951     1.007825032230

  Basis Set: AUG-CC-PVTZ
    Blend: AUG-CC-PVTZ
  Basis Set: (AUG-CC-PVTZ AUX)
    Blend: AUG-CC-PVTZ-JKFIT
	 Reference Energy          =    -308.8732595171547359 [Eh]
	 Singles Energy            =      -0.0000000000000000 [Eh]
	 Same-Spin Energy          =      -0.3429766101591841 [Eh]
	 Opposite-Spin Energy      =      -1.1312741756706917 [Eh]
	 Correlation Energy        =      -1.4742507858298759 [Eh]
	 Total Energy              =    -310.3475103029846309 [Eh]

	 ================> DF-SCS-MP2 Energies <==================
	-----------------------------------------------------------
	 SCS Same-Spin Scale       =       0.3333333333333333 [-]
	 SCS Opposite-Spin Scale   =       1.2000000000000000 [-]
	 SCS Same-Spin Energy      =      -0.1143255367197280 [Eh]
	 SCS Opposite-Spin Energy  =      -1.3575290108048299 [Eh]
	 SCS Correlation Energy    =      -1.4718545475245579 [Eh]
	 SCS Total Energy          =    -310.3451140646793078 [Eh]
	-----------------------------------------------------------

  Dipole Moment: [D]
     X:     0.3861      Y:    -0.0000      Z:    -0.0688     Total:     0.3922

*** Psi4 exiting successfully. Buy a developer a beer!
