                               Psi4 1.3.2 release

  ==> Input File <==

--------------------------------------------------------------------------
#psi4
#
memory 32 gb

molecule  {
0 1
  C        1.9266460    -0.0001280    -0.5925190
  C        0.4494481    -0.0000569    -0.2927439
  C       -0.2606840    -1.2037490    -0.1915840
  C       -0.2605850     1.2036870    -0.1916700
  C        2.7216460     0.0000950     0.7169160
  C       -1.6267430    -1.2070050     0.0951370
  C       -1.6266430     1.2070770     0.0950500
  C       -2.3133840     0.0000700     0.2425720
  H        2.1979770    -0.8797810    -1.1880300
  H        2.1980020     0.8793040    -1.1883450
  H        0.2684350    -2.1485200    -0.3109970
  H        0.2686130     2.1484050    -0.3111530
  H        2.4776170     0.8842370     1.3127700
  H        3.7994840     0.0000410     0.5265790
  H        2.4775840    -0.8838220     1.3130890
  H       -2.1553560    -2.1514480     0.2031020
  H       -2.1551770     2.1515730     0.2029480
  H       -3.3780160     0.0001220     0.4635020
units angstrom
no_reorient  #important for SAPT in psi4, default
symmetry c1  #important for SAPT in psi4, default
}

set PROPERTIES_ORIGIN ["COM"]
properties('MP2/aug-cc-pvtz', properties = ['dipole'])
--------------------------------------------------------------------------

    Molecular point group: c1
  Charge       = 0
  Multiplicity = 1
  Basis Set: AUG-CC-PVTZ
    Blend: AUG-CC-PVTZ
  Basis Set: (AUG-CC-PVTZ AUX)
    Blend: AUG-CC-PVTZ-JKFIT

    Orbital Energies [Eh]
    ---------------------

    Doubly Occupied:

       1A    -11.238808     2A    -11.234454     3A    -11.234297
       4A    -11.230222     5A    -11.229929     6A    -11.229811
       7A    -11.228492     8A    -11.216112     9A     -1.151285
      10A     -1.062461    11A     -1.009525    12A     -0.979684
      13A     -0.861113    14A     -0.823281    15A     -0.786337
      16A     -0.690196    17A     -0.639836    18A     -0.635439
      19A     -0.592376    20A     -0.585442    21A     -0.576678
      22A     -0.543679    23A     -0.519619    24A     -0.498805
      25A     -0.484652    26A     -0.477832    27A     -0.471032
      28A     -0.333433    29A     -0.322807

  @DF-RHF Final Energy:  -308.87637801351622

   => Energetics <=

    Nuclear Repulsion Energy =            340.1472004993950122
    One-Electron Energy =               -1090.2718902484227783
    Two-Electron Energy =                 441.2483117355115496
    Total Energy =                       -308.8763780135162165
  Basis Set: (AUG-CC-PVTZ AUX)
    Blend: AUG-CC-PVTZ-RI
    Molecular point group: c1

    Geometry (in Angstrom), charge = 0, multiplicity = 1:

       Center              X                  Y                   Z               Mass
    ------------   -----------------  -----------------  -----------------  -----------------
         C            1.981675943824    -0.000127934657    -0.588798829728    12.000000000000
         C            0.504478043824    -0.000056834657    -0.289023729728    12.000000000000
         C           -0.205654056176    -1.203748934657    -0.187863829728    12.000000000000
         C           -0.205555056176     1.203687065343    -0.187949829728    12.000000000000
         C            2.776675943824     0.000095065343     0.720636170272    12.000000000000
         C           -1.571713056176    -1.207004934657     0.098857170272    12.000000000000
         C           -1.571613056176     1.207077065343     0.098770170272    12.000000000000
         C           -2.258354056176     0.000070065343     0.246292170272    12.000000000000
         H            2.253006943824    -0.879780934657    -1.184309829728     1.007825032230
         H            2.253031943824     0.879304065343    -1.184624829728     1.007825032230
         H            0.323464943824    -2.148519934657    -0.307276829728     1.007825032230
         H            0.323642943824     2.148405065343    -0.307432829728     1.007825032230
         H            2.532646943824     0.884237065343     1.316490170272     1.007825032230
         H            3.854513943824     0.000041065343     0.530299170272     1.007825032230
         H            2.532613943824    -0.883821934657     1.316809170272     1.007825032230
         H           -2.100326056176    -2.151447934657     0.206822170272     1.007825032230
         H           -2.100147056176     2.151573065343     0.206668170272     1.007825032230
         H           -3.322986056176     0.000122065343     0.467222170272     1.007825032230

  Basis Set: AUG-CC-PVTZ
    Blend: AUG-CC-PVTZ
  Basis Set: (AUG-CC-PVTZ AUX)
    Blend: AUG-CC-PVTZ-JKFIT
	 Reference Energy          =    -308.8763780135162165 [Eh]
	 Singles Energy            =      -0.0000000000000000 [Eh]
	 Same-Spin Energy          =      -0.3427866505465536 [Eh]
	 Opposite-Spin Energy      =      -1.1307939524655137 [Eh]
	 Correlation Energy        =      -1.4735806030120673 [Eh]
	 Total Energy              =    -310.3499586165282835 [Eh]

	 ================> DF-SCS-MP2 Energies <==================
	-----------------------------------------------------------
	 SCS Same-Spin Scale       =       0.3333333333333333 [-]
	 SCS Opposite-Spin Scale   =       1.2000000000000000 [-]
	 SCS Same-Spin Energy      =      -0.1142622168488512 [Eh]
	 SCS Opposite-Spin Energy  =      -1.3569527429586163 [Eh]
	 SCS Correlation Energy    =      -1.4712149598074675 [Eh]
	 SCS Total Energy          =    -310.3475929733236853 [Eh]
	-----------------------------------------------------------

  Dipole Moment: [D]
     X:     0.3938      Y:    -0.0000      Z:    -0.0404     Total:     0.3959

*** Psi4 exiting successfully. Buy a developer a beer!
