                               Psi4 1.3.2 release

  ==> Input File <==

--------------------------------------------------------------------------
#psi4
#
memory 32 gb

molecule  {
0 1
  C        1.9266460    -0.0001280    -0.5925190
  C        0.4321353    -0.0000751    -0.3965183
  C       -0.2606840    -1.2037490    -0.1915840
  C       -0.2605850     1.2036870    -0.1916700
  C        2.7216460     0.0000950     0.7169160
  C       -1.6267430    -1.2070050     0.0951370
  C       -1.6266430     1.2070770     0.0950500
  C       -2.3133840     0.0000700     0.2425720
  H        2.1979770    -0.8797810    -1.1880300
  H        2.1980020     0.8793040    -1.1883450
  H        0.2684350    -2.1485200    -0.3109970
  H        0.2686130     2.1484050    -0.3111530
  H        2.4776170     0.8842370     1.3127700
  H        3.7994840     0.0000410     0.5265790
  H        2.4775840    -0.8838220     1.3130890
  H       -2.1553560    -2.1514480     0.2031020
  H       -2.1551770     2.1515730     0.2029480
  H       -3.3780160     0.0001220     0.4635020
units angstrom
no_reorient  #important for SAPT in psi4, default
symmetry c1  #important for SAPT in psi4, default
}

set PROPERTIES_ORIGIN ["COM"]
properties('MP2/aug-cc-pvtz', properties = ['dipole'])
--------------------------------------------------------------------------

    Molecular point group: c1
  Charge       = 0
  Multiplicity = 1
  Basis Set: AUG-CC-PVTZ
    Blend: AUG-CC-PVTZ
  Basis Set: (AUG-CC-PVTZ AUX)
    Blend: AUG-CC-PVTZ-JKFIT

    Orbital Energies [Eh]
    ---------------------

    Doubly Occupied:

       1A    -11.239021     2A    -11.234618     3A    -11.234436
       4A    -11.230896     5A    -11.230480     6A    -11.230365
       7A    -11.228285     8A    -11.217445     9A     -1.150759
      10A     -1.061547    11A     -1.009470    12A     -0.979902
      13A     -0.863470    14A     -0.823043    15A     -0.785716
      16A     -0.689685    17A     -0.639677    18A     -0.633512
      19A     -0.590860    20A     -0.585230    21A     -0.576849
      22A     -0.546282    23A     -0.519520    24A     -0.499505
      25A     -0.483781    26A     -0.475941    27A     -0.472246
      28A     -0.333569    29A     -0.323115

  @DF-RHF Final Energy:  -308.87589214592163

   => Energetics <=

    Nuclear Repulsion Energy =            339.8401180156058672
    One-Electron Energy =               -1089.6535683631739175
    Two-Electron Energy =                 440.9375582016464250
    Total Energy =                       -308.8758921459216253
  Basis Set: (AUG-CC-PVTZ AUX)
    Blend: AUG-CC-PVTZ-RI
    Molecular point group: c1

    Geometry (in Angstrom), charge = 0, multiplicity = 1:

       Center              X                  Y                   Z               Mass
    ------------   -----------------  -----------------  -----------------  -----------------
         C            1.983634437666    -0.000125875800    -0.577059450579    12.000000000000
         C            0.489123737666    -0.000072975800    -0.381058750579    12.000000000000
         C           -0.203695562334    -1.203746875800    -0.176124450579    12.000000000000
         C           -0.203596562334     1.203689124200    -0.176210450579    12.000000000000
         C            2.778634437666     0.000097124200     0.732375549421    12.000000000000
         C           -1.569754562334    -1.207002875800     0.110596549421    12.000000000000
         C           -1.569654562334     1.207079124200     0.110509549421    12.000000000000
         C           -2.256395562334     0.000072124200     0.258031549421    12.000000000000
         H            2.254965437666    -0.879778875800    -1.172570450579     1.007825032230
         H            2.254990437666     0.879306124200    -1.172885450579     1.007825032230
         H            0.325423437666    -2.148517875800    -0.295537450579     1.007825032230
         H            0.325601437666     2.148407124200    -0.295693450579     1.007825032230
         H            2.534605437666     0.884239124200     1.328229549421     1.007825032230
         H            3.856472437666     0.000043124200     0.542038549421     1.007825032230
         H            2.534572437666    -0.883819875800     1.328548549421     1.007825032230
         H           -2.098367562334    -2.151445875800     0.218561549421     1.007825032230
         H           -2.098188562334     2.151575124200     0.218407549421     1.007825032230
         H           -3.321027562334     0.000124124200     0.478961549421     1.007825032230

  Basis Set: AUG-CC-PVTZ
    Blend: AUG-CC-PVTZ
  Basis Set: (AUG-CC-PVTZ AUX)
    Blend: AUG-CC-PVTZ-JKFIT
	 Reference Energy          =    -308.8758921459216253 [Eh]
	 Singles Energy            =      -0.0000000000000000 [Eh]
	 Same-Spin Energy          =      -0.3427671270669251 [Eh]
	 Opposite-Spin Energy      =      -1.1307735300458588 [Eh]
	 Correlation Energy        =      -1.4735406571127840 [Eh]
	 Total Energy              =    -310.3494328030344036 [Eh]

	 ================> DF-SCS-MP2 Energies <==================
	-----------------------------------------------------------
	 SCS Same-Spin Scale       =       0.3333333333333333 [-]
	 SCS Opposite-Spin Scale   =       1.2000000000000000 [-]
	 SCS Same-Spin Energy      =      -0.1142557090223084 [Eh]
	 SCS Opposite-Spin Energy  =      -1.3569282360550305 [Eh]
	 SCS Correlation Energy    =      -1.4711839450773390 [Eh]
	 SCS Total Energy          =    -310.3470760909989394 [Eh]
	-----------------------------------------------------------

  Dipole Moment: [D]
     X:     0.3796      Y:     0.0000      Z:     0.0236     Total:     0.3804

*** Psi4 exiting successfully. Buy a developer a beer!
