                               Psi4 1.3.2 release

  ==> Input File <==

--------------------------------------------------------------------------
#psi4
#
memory 32 gb

molecule  {
-1 1
  S        0.8911030    -0.8186440     0.0000000
  C        0.0000000     0.7834870     0.0000000
  C       -1.5190904     0.6339858    -0.0112189
  H        0.3031296     1.3736451     0.8737076
  H        0.2939480     1.3744500    -0.8762970
  H       -2.0143880     1.6210480     0.0000000
  H       -1.8561270     0.0903230    -0.8834160
  H       -1.8561270     0.0903230     0.8834160
units angstrom
no_reorient  #important for SAPT in psi4, default
symmetry c1  #important for SAPT in psi4, default
}

set PROPERTIES_ORIGIN ["COM"]
properties('MP2/aug-cc-pvtz', properties = ['dipole'])
--------------------------------------------------------------------------

    Molecular point group: c1
  Charge       = -1
  Multiplicity = 1
  Basis Set: AUG-CC-PVTZ
    Blend: AUG-CC-PVTZ
  Basis Set: (AUG-CC-PVTZ AUX)
    Blend: AUG-CC-PVTZ-JKFIT

    Orbital Energies [Eh]
    ---------------------

    Doubly Occupied:

       1A    -91.665044     2A    -11.058355     3A    -11.054883
       4A     -8.664959     5A     -6.346540     6A     -6.344886
       7A     -6.344847     8A     -0.858467     9A     -0.700677
      10A     -0.572432    11A     -0.436613    12A     -0.400720
      13A     -0.343625    14A     -0.323935    15A     -0.224985
      16A     -0.088488    17A     -0.087257

  @DF-RHF Final Energy:  -476.22618454244753

   => Energetics <=

    Nuclear Repulsion Energy =             97.2435014418274761
    One-Electron Energy =                -855.9059458654263608
    Two-Electron Energy =                 282.4362598811513863
    Total Energy =                       -476.2261845424475268
  Basis Set: (AUG-CC-PVTZ AUX)
    Blend: AUG-CC-PVTZ-RI
    Molecular point group: c1

    Geometry (in Angstrom), charge = -1, multiplicity = 1:

       Center              X                  Y                   Z               Mass
    ------------   -----------------  -----------------  -----------------  -----------------
         S            0.807649131878    -0.743597458330     0.002249365205    31.972071174400
         C           -0.083453868122     0.858533541670     0.002249365205    12.000000000000
         C           -1.602544268122     0.709032341670    -0.008969534795    12.000000000000
         H            0.219675731878     1.448691641670     0.875956965205     1.007825032230
         H            0.210494131878     1.449496541670    -0.874047634795     1.007825032230
         H           -2.097841868122     1.696094541670     0.002249365205     1.007825032230
         H           -1.939580868122     0.165369541670    -0.881166634795     1.007825032230
         H           -1.939580868122     0.165369541670     0.885665365205     1.007825032230

  Basis Set: AUG-CC-PVTZ
    Blend: AUG-CC-PVTZ
  Basis Set: (AUG-CC-PVTZ AUX)
    Blend: AUG-CC-PVTZ-JKFIT
	 Reference Energy          =    -476.2261845424475268 [Eh]
	 Singles Energy            =      -0.0000000000000000 [Eh]
	 Same-Spin Energy          =      -0.1431251333406729 [Eh]
	 Opposite-Spin Energy      =      -0.4896623430645183 [Eh]
	 Correlation Energy        =      -0.6327874764051912 [Eh]
	 Total Energy              =    -476.8589720188527394 [Eh]

	 ================> DF-SCS-MP2 Energies <==================
	-----------------------------------------------------------
	 SCS Same-Spin Scale       =       0.3333333333333333 [-]
	 SCS Opposite-Spin Scale   =       1.2000000000000000 [-]
	 SCS Same-Spin Energy      =      -0.0477083777802243 [Eh]
	 SCS Opposite-Spin Energy  =      -0.5875948116774219 [Eh]
	 SCS Correlation Energy    =      -0.6353031894576462 [Eh]
	 SCS Total Energy          =    -476.8614877319051857 [Eh]
	-----------------------------------------------------------

  Dipole Moment: [D]
     X:    -3.0843      Y:     3.3144      Z:    -0.0159     Total:     4.5276

*** Psi4 exiting successfully. Buy a developer a beer!
