                               Psi4 1.3.2 release

  ==> Input File <==

--------------------------------------------------------------------------
#psi4
#
memory 32 gb

molecule  {
-1 1
  S        0.8911030    -0.8186440     0.0000000
  C        0.0000000     0.7834870     0.0000000
  C       -1.5198180     0.6411310     0.0000000
  H        0.2403596     1.2667142     0.7165432
  H        0.2939480     1.3744500    -0.8762970
  H       -2.0143880     1.6210480     0.0000000
  H       -1.8561270     0.0903230    -0.8834160
  H       -1.8561270     0.0903230     0.8834160
units angstrom
no_reorient  #important for SAPT in psi4, default
symmetry c1  #important for SAPT in psi4, default
}

set PROPERTIES_ORIGIN ["COM"]
properties('MP2/aug-cc-pvtz', properties = ['dipole'])
--------------------------------------------------------------------------

    Molecular point group: c1
  Charge       = -1
  Multiplicity = 1
  Basis Set: AUG-CC-PVTZ
    Blend: AUG-CC-PVTZ
  Basis Set: (AUG-CC-PVTZ AUX)
    Blend: AUG-CC-PVTZ-JKFIT

    Orbital Energies [Eh]
    ---------------------

    Doubly Occupied:

       1A    -91.663649     2A    -11.052954     3A    -11.031618
       4A     -8.663528     5A     -6.345111     6A     -6.343480
       7A     -6.343441     8A     -0.870642     9A     -0.709836
      10A     -0.590037    11A     -0.448999    12A     -0.402044
      13A     -0.350187    14A     -0.330479    15A     -0.224498
      16A     -0.087898    17A     -0.086589

  @DF-RHF Final Energy:  -476.19332848199048

   => Energetics <=

    Nuclear Repulsion Energy =             98.2321233571228447
    One-Electron Energy =                -857.7609221751537234
    Two-Electron Energy =                 283.3354703360403732
    Total Energy =                       -476.1933284819904770
  Basis Set: (AUG-CC-PVTZ AUX)
    Blend: AUG-CC-PVTZ-RI
    Molecular point group: c1

    Geometry (in Angstrom), charge = -1, multiplicity = 1:

       Center              X                  Y                   Z               Mass
    ------------   -----------------  -----------------  -----------------  -----------------
         S            0.808829118202    -0.743236455119     0.002638923481    31.972071174400
         C           -0.082273881798     0.858894544881     0.002638923481    12.000000000000
         C           -1.602091881798     0.716538544881     0.002638923481    12.000000000000
         H            0.158085718202     1.342121744881     0.719182123481     1.007825032230
         H            0.211674118202     1.449857544881    -0.873658076519     1.007825032230
         H           -2.096661881798     1.696455544881     0.002638923481     1.007825032230
         H           -1.938400881798     0.165730544881    -0.880777076519     1.007825032230
         H           -1.938400881798     0.165730544881     0.886054923481     1.007825032230

  Basis Set: AUG-CC-PVTZ
    Blend: AUG-CC-PVTZ
  Basis Set: (AUG-CC-PVTZ AUX)
    Blend: AUG-CC-PVTZ-JKFIT
	 Reference Energy          =    -476.1933284819904770 [Eh]
	 Singles Energy            =      -0.0000000000000000 [Eh]
	 Same-Spin Energy          =      -0.1431673954518713 [Eh]
	 Opposite-Spin Energy      =      -0.4891591999036058 [Eh]
	 Correlation Energy        =      -0.6323265953554771 [Eh]
	 Total Energy              =    -476.8256550773459708 [Eh]

	 ================> DF-SCS-MP2 Energies <==================
	-----------------------------------------------------------
	 SCS Same-Spin Scale       =       0.3333333333333333 [-]
	 SCS Opposite-Spin Scale   =       1.2000000000000000 [-]
	 SCS Same-Spin Energy      =      -0.0477224651506238 [Eh]
	 SCS Opposite-Spin Energy  =      -0.5869910398843269 [Eh]
	 SCS Correlation Energy    =      -0.6347135050349506 [Eh]
	 SCS Total Energy          =    -476.8280419870254150 [Eh]
	-----------------------------------------------------------

  Dipole Moment: [D]
     X:    -3.1092      Y:     3.4935      Z:     0.0530     Total:     4.6770

*** Psi4 exiting successfully. Buy a developer a beer!
