                               Psi4 1.3.2 release

  ==> Input File <==

--------------------------------------------------------------------------
#psi4
#
memory 32 gb

molecule  {
-1 1
  S        0.8911030    -0.8186440     0.0000000
  C        0.0000000     0.7834870     0.0000000
  C       -1.5198180     0.6411310     0.0000000
  H        0.2939480     1.3744500     0.8762970
  H        0.2939480     1.3744500    -0.8762970
  H       -2.0098590     1.6232870     0.0081381
  H       -1.8506279     0.0829489    -0.8808601
  H       -1.8561270     0.0903230     0.8834160
units angstrom
no_reorient  #important for SAPT in psi4, default
symmetry c1  #important for SAPT in psi4, default
}

set PROPERTIES_ORIGIN ["COM"]
properties('MP2/aug-cc-pvtz', properties = ['dipole'])
--------------------------------------------------------------------------

    Molecular point group: c1
  Charge       = -1
  Multiplicity = 1
  Basis Set: AUG-CC-PVTZ
    Blend: AUG-CC-PVTZ
  Basis Set: (AUG-CC-PVTZ AUX)
    Blend: AUG-CC-PVTZ-JKFIT

    Orbital Energies [Eh]
    ---------------------

    Doubly Occupied:

       1A    -91.665229     2A    -11.058199     3A    -11.054538
       4A     -8.665122     5A     -6.346702     6A     -6.345049
       7A     -6.345011     8A     -0.858538     9A     -0.700287
      10A     -0.572386    11A     -0.435550    12A     -0.403565
      13A     -0.341608    14A     -0.323034    15A     -0.225635
      16A     -0.088607    17A     -0.087407

  @DF-RHF Final Energy:  -476.22635834956850

   => Energetics <=

    Nuclear Repulsion Energy =             97.2309794866396544
    One-Electron Energy =                -855.8817436864031833
    Two-Electron Energy =                 282.4244058501950576
    Total Energy =                       -476.2263583495684998
  Basis Set: (AUG-CC-PVTZ AUX)
    Blend: AUG-CC-PVTZ-RI
    Molecular point group: c1

    Geometry (in Angstrom), charge = -1, multiplicity = 1:

       Center              X                  Y                   Z               Mass
    ------------   -----------------  -----------------  -----------------  -----------------
         S            0.807778256966    -0.744931284266    -0.000176650870    31.972071174400
         C           -0.083324743034     0.857199715734    -0.000176650870    12.000000000000
         C           -1.603142743034     0.714843715734    -0.000176650870    12.000000000000
         H            0.210623256966     1.448162715734     0.876120349130     1.007825032230
         H            0.210623256966     1.448162715734    -0.876473650870     1.007825032230
         H           -2.093183743034     1.696999715734     0.007961449130     1.007825032230
         H           -1.933952643034     0.156661615734    -0.881036750870     1.007825032230
         H           -1.939451743034     0.164035715734     0.883239349130     1.007825032230

  Basis Set: AUG-CC-PVTZ
    Blend: AUG-CC-PVTZ
  Basis Set: (AUG-CC-PVTZ AUX)
    Blend: AUG-CC-PVTZ-JKFIT
	 Reference Energy          =    -476.2263583495684998 [Eh]
	 Singles Energy            =      -0.0000000000000000 [Eh]
	 Same-Spin Energy          =      -0.1431417744854052 [Eh]
	 Opposite-Spin Energy      =      -0.4896851068024721 [Eh]
	 Correlation Energy        =      -0.6328268812878772 [Eh]
	 Total Energy              =    -476.8591852308563830 [Eh]

	 ================> DF-SCS-MP2 Energies <==================
	-----------------------------------------------------------
	 SCS Same-Spin Scale       =       0.3333333333333333 [-]
	 SCS Opposite-Spin Scale   =       1.2000000000000000 [-]
	 SCS Same-Spin Energy      =      -0.0477139248284684 [Eh]
	 SCS Opposite-Spin Energy  =      -0.5876221281629666 [Eh]
	 SCS Correlation Energy    =      -0.6353360529914349 [Eh]
	 SCS Total Energy          =    -476.8616944025599196 [Eh]
	-----------------------------------------------------------

  Dipole Moment: [D]
     X:    -3.0799      Y:     3.3229      Z:     0.0051     Total:     4.5307

*** Psi4 exiting successfully. Buy a developer a beer!
