                               Psi4 1.3.2 release

  ==> Input File <==

--------------------------------------------------------------------------
#psi4
#
memory 32 gb

molecule  {
-1 1
  S        0.8911030    -0.8186440     0.0000000
  C       -0.0095332     0.8628330     0.0000000
  C       -1.5198180     0.6411310     0.0000000
  H        0.2939480     1.3744500     0.8762970
  H        0.2939480     1.3744500    -0.8762970
  H       -1.9624253     1.6455889     0.0000000
  H       -1.8561270     0.0903230    -0.8834160
  H       -1.8561270     0.0903230     0.8834160
units angstrom
no_reorient  #important for SAPT in psi4, default
symmetry c1  #important for SAPT in psi4, default
}

set PROPERTIES_ORIGIN ["COM"]
properties('MP2/aug-cc-pvtz', properties = ['dipole'])
--------------------------------------------------------------------------

    Molecular point group: c1
  Charge       = -1
  Multiplicity = 1
  Basis Set: AUG-CC-PVTZ
    Blend: AUG-CC-PVTZ
  Basis Set: (AUG-CC-PVTZ AUX)
    Blend: AUG-CC-PVTZ-JKFIT

    Orbital Energies [Eh]
    ---------------------

    Doubly Occupied:

       1A    -91.665864     2A    -11.056237     3A    -11.054086
       4A     -8.664722     5A     -6.346120     6A     -6.344598
       7A     -6.344572     8A     -0.859091     9A     -0.694205
      10A     -0.575564    11A     -0.446473    12A     -0.401118
      13A     -0.350289    14A     -0.336832    15A     -0.205114
      16A     -0.087401    17A     -0.086912

  @DF-RHF Final Energy:  -476.22119922717417

   => Energetics <=

    Nuclear Repulsion Energy =             96.3922747911144882
    One-Electron Energy =                -854.1885478262606739
    Two-Electron Energy =                 281.5750738079720463
    Total Energy =                       -476.2211992271741678
  Basis Set: (AUG-CC-PVTZ AUX)
    Blend: AUG-CC-PVTZ-RI
    Molecular point group: c1

    Geometry (in Angstrom), charge = -1, multiplicity = 1:

       Center              X                  Y                   Z               Mass
    ------------   -----------------  -----------------  -----------------  -----------------
         S            0.808960591763    -0.761027677627     0.000000000000    31.972071174400
         C           -0.091675608237     0.920449322373     0.000000000000    12.000000000000
         C           -1.601960408237     0.698747322373     0.000000000000    12.000000000000
         H            0.211805591763     1.432066322373     0.876297000000     1.007825032230
         H            0.211805591763     1.432066322373    -0.876297000000     1.007825032230
         H           -2.044567708237     1.703205222373     0.000000000000     1.007825032230
         H           -1.938269408237     0.147939322373    -0.883416000000     1.007825032230
         H           -1.938269408237     0.147939322373     0.883416000000     1.007825032230

  Basis Set: AUG-CC-PVTZ
    Blend: AUG-CC-PVTZ
  Basis Set: (AUG-CC-PVTZ AUX)
    Blend: AUG-CC-PVTZ-JKFIT
	 Reference Energy          =    -476.2211992271741678 [Eh]
	 Singles Energy            =      -0.0000000000000000 [Eh]
	 Same-Spin Energy          =      -0.1428416697742813 [Eh]
	 Opposite-Spin Energy      =      -0.4898066087587110 [Eh]
	 Correlation Energy        =      -0.6326482785329922 [Eh]
	 Total Energy              =    -476.8538475057071651 [Eh]

	 ================> DF-SCS-MP2 Energies <==================
	-----------------------------------------------------------
	 SCS Same-Spin Scale       =       0.3333333333333333 [-]
	 SCS Opposite-Spin Scale   =       1.2000000000000000 [-]
	 SCS Same-Spin Energy      =      -0.0476138899247604 [Eh]
	 SCS Opposite-Spin Energy  =      -0.5877679305104532 [Eh]
	 SCS Correlation Energy    =      -0.6353818204352136 [Eh]
	 SCS Total Energy          =    -476.8565810476093816 [Eh]
	-----------------------------------------------------------

  Dipole Moment: [D]
     X:    -3.2228      Y:     3.5055      Z:    -0.0000     Total:     4.7618

*** Psi4 exiting successfully. Buy a developer a beer!
