                               Psi4 1.3.2 release

  ==> Input File <==

--------------------------------------------------------------------------
#psi4
#
memory 32 gb

molecule  {
-1 1
  S        0.9341141    -0.7918464     0.0815101
  C        0.0000000     0.7834870     0.0000000
  C       -1.5198180     0.6411310     0.0000000
  H        0.3287988     1.3314755     0.8917057
  H        0.2939480     1.3744500    -0.8762970
  H       -2.0143880     1.6210480     0.0000000
  H       -1.8561270     0.0903230    -0.8834160
  H       -1.8561270     0.0903230     0.8834160
units angstrom
no_reorient  #important for SAPT in psi4, default
symmetry c1  #important for SAPT in psi4, default
}

set PROPERTIES_ORIGIN ["COM"]
properties('MP2/aug-cc-pvtz', properties = ['dipole'])
--------------------------------------------------------------------------

    Molecular point group: c1
  Charge       = -1
  Multiplicity = 1
  Basis Set: AUG-CC-PVTZ
    Blend: AUG-CC-PVTZ
  Basis Set: (AUG-CC-PVTZ AUX)
    Blend: AUG-CC-PVTZ-JKFIT

    Orbital Energies [Eh]
    ---------------------

    Doubly Occupied:

       1A    -91.664709     2A    -11.058070     3A    -11.056178
       4A     -8.664658     5A     -6.346239     6A     -6.344578
       7A     -6.344535     8A     -0.858473     9A     -0.703186
      10A     -0.569266    11A     -0.437241    12A     -0.404065
      13A     -0.343719    14A     -0.326056    15A     -0.223155
      16A     -0.088614    17A     -0.086009

  @DF-RHF Final Energy:  -476.22536538226854

   => Energetics <=

    Nuclear Repulsion Energy =             97.0710979190578200
    One-Electron Energy =                -855.5554247756264203
    Two-Electron Energy =                 282.2589614743000652
    Total Energy =                       -476.2253653822685351
  Basis Set: (AUG-CC-PVTZ AUX)
    Blend: AUG-CC-PVTZ-RI
    Molecular point group: c1

    Geometry (in Angstrom), charge = -1, multiplicity = 1:

       Center              X                  Y                   Z               Mass
    ------------   -----------------  -----------------  -----------------  -----------------
         S            0.827839948120    -0.731551537531     0.038541331157    31.972071174400
         C           -0.106274151880     0.843781862469    -0.042968768843    12.000000000000
         C           -1.626092151880     0.701425862469    -0.042968768843    12.000000000000
         H            0.222524648120     1.391770362469     0.848736931157     1.007825032230
         H            0.187673848120     1.434744862469    -0.919265768843     1.007825032230
         H           -2.120662151880     1.681342862469    -0.042968768843     1.007825032230
         H           -1.962401151880     0.150617862469    -0.926384768843     1.007825032230
         H           -1.962401151880     0.150617862469     0.840447231157     1.007825032230

  Basis Set: AUG-CC-PVTZ
    Blend: AUG-CC-PVTZ
  Basis Set: (AUG-CC-PVTZ AUX)
    Blend: AUG-CC-PVTZ-JKFIT
	 Reference Energy          =    -476.2253653822685351 [Eh]
	 Singles Energy            =      -0.0000000000000000 [Eh]
	 Same-Spin Energy          =      -0.1431314399466665 [Eh]
	 Opposite-Spin Energy      =      -0.4896610476015770 [Eh]
	 Correlation Energy        =      -0.6327924875482436 [Eh]
	 Total Energy              =    -476.8581578698167505 [Eh]

	 ================> DF-SCS-MP2 Energies <==================
	-----------------------------------------------------------
	 SCS Same-Spin Scale       =       0.3333333333333333 [-]
	 SCS Opposite-Spin Scale   =       1.2000000000000000 [-]
	 SCS Same-Spin Energy      =      -0.0477104799822222 [Eh]
	 SCS Opposite-Spin Energy  =      -0.5875932571218924 [Eh]
	 SCS Correlation Energy    =      -0.6353037371041146 [Eh]
	 SCS Total Energy          =    -476.8606691193726306 [Eh]
	-----------------------------------------------------------

  Dipole Moment: [D]
     X:    -3.1657      Y:     3.3236      Z:    -0.1084     Total:     4.5912

*** Psi4 exiting successfully. Buy a developer a beer!
