                               Psi4 1.3.2 release

  ==> Input File <==

--------------------------------------------------------------------------
#psi4
#
memory 32 gb

molecule  {
-1 1
  S        0.8911030    -0.8186440     0.0000000
  C        0.0000000     0.7834870     0.0000000
  C       -1.5198180     0.6411310     0.0000000
  H        0.2801490     1.3467080     0.8987980
  H        0.2801490     1.3467080    -0.8987980
  H       -2.0143880     1.6210480     0.0000000
  H       -1.8561270     0.0903230    -0.8834160
  H       -1.8561270     0.0903230     0.8834160
units angstrom
no_reorient  #important for SAPT in psi4, default
symmetry c1  #important for SAPT in psi4, default
}

set PROPERTIES_ORIGIN ["COM"]
properties('MP2/aug-cc-pvtz', properties = ['dipole'])
--------------------------------------------------------------------------

    Molecular point group: c1
  Charge       = -1
  Multiplicity = 1
  Basis Set: AUG-CC-PVTZ
    Blend: AUG-CC-PVTZ
  Basis Set: (AUG-CC-PVTZ AUX)
    Blend: AUG-CC-PVTZ-JKFIT

    Orbital Energies [Eh]
    ---------------------

    Doubly Occupied:

       1A    -91.664859     2A    -11.058476     3A    -11.054142
       4A     -8.664805     5A     -6.346384     6A     -6.344730
       7A     -6.344694     8A     -0.858967     9A     -0.700316
      10A     -0.570308    11A     -0.439812    12A     -0.402398
      13A     -0.338677    14A     -0.327080    15A     -0.224100
      16A     -0.088148    17A     -0.087460

  @DF-RHF Final Energy:  -476.22598422224797

   => Energetics <=

    Nuclear Repulsion Energy =             97.2703357108069895
    One-Electron Energy =                -855.9619337650183297
    Two-Electron Energy =                 282.4656138319633669
    Total Energy =                       -476.2259842222479733
  Basis Set: (AUG-CC-PVTZ AUX)
    Blend: AUG-CC-PVTZ-RI
    Molecular point group: c1

    Geometry (in Angstrom), charge = -1, multiplicity = 1:

       Center              X                  Y                   Z               Mass
    ------------   -----------------  -----------------  -----------------  -----------------
         S            0.808399790844    -0.744099586400     0.000000000000    31.972071174400
         C           -0.082703209156     0.858031413600     0.000000000000    12.000000000000
         C           -1.602521209156     0.715675413600     0.000000000000    12.000000000000
         H            0.197445790844     1.421252413600     0.898798000000     1.007825032230
         H            0.197445790844     1.421252413600    -0.898798000000     1.007825032230
         H           -2.097091209156     1.695592413600     0.000000000000     1.007825032230
         H           -1.938830209156     0.164867413600    -0.883416000000     1.007825032230
         H           -1.938830209156     0.164867413600     0.883416000000     1.007825032230

  Basis Set: AUG-CC-PVTZ
    Blend: AUG-CC-PVTZ
  Basis Set: (AUG-CC-PVTZ AUX)
    Blend: AUG-CC-PVTZ-JKFIT
	 Reference Energy          =    -476.2259842222479733 [Eh]
	 Singles Energy            =      -0.0000000000000000 [Eh]
	 Same-Spin Energy          =      -0.1431799137695051 [Eh]
	 Opposite-Spin Energy      =      -0.4897454635153037 [Eh]
	 Correlation Energy        =      -0.6329253772848089 [Eh]
	 Total Energy              =    -476.8589095995328080 [Eh]

	 ================> DF-SCS-MP2 Energies <==================
	-----------------------------------------------------------
	 SCS Same-Spin Scale       =       0.3333333333333333 [-]
	 SCS Opposite-Spin Scale   =       1.2000000000000000 [-]
	 SCS Same-Spin Energy      =      -0.0477266379231684 [Eh]
	 SCS Opposite-Spin Energy  =      -0.5876945562183644 [Eh]
	 SCS Correlation Energy    =      -0.6354211941415328 [Eh]
	 SCS Total Energy          =    -476.8614054163895162 [Eh]
	-----------------------------------------------------------

  Dipole Moment: [D]
     X:    -3.0815      Y:     3.3299      Z:    -0.0000     Total:     4.5369

*** Psi4 exiting successfully. Buy a developer a beer!
