                               Psi4 1.3.2 release

  ==> Input File <==

--------------------------------------------------------------------------
#psi4
#
memory 32 gb

molecule  {
-1 1
  S        0.8911030    -0.8186440     0.0000000
  C        0.0000000     0.7834870     0.0000000
  C       -1.5204299     0.6482871     0.0112189
  H        0.2847440     1.3752099     0.8788197
  H        0.2939480     1.3744500    -0.8762970
  H       -2.0143880     1.6210480     0.0000000
  H       -1.8561270     0.0903230    -0.8834160
  H       -1.8561270     0.0903230     0.8834160
units angstrom
no_reorient  #important for SAPT in psi4, default
symmetry c1  #important for SAPT in psi4, default
}

set PROPERTIES_ORIGIN ["COM"]
properties('MP2/aug-cc-pvtz', properties = ['dipole'])
--------------------------------------------------------------------------

    Molecular point group: c1
  Charge       = -1
  Multiplicity = 1
  Basis Set: AUG-CC-PVTZ
    Blend: AUG-CC-PVTZ
  Basis Set: (AUG-CC-PVTZ AUX)
    Blend: AUG-CC-PVTZ-JKFIT

    Orbital Energies [Eh]
    ---------------------

    Doubly Occupied:

       1A    -91.665454     2A    -11.058270     3A    -11.054371
       4A     -8.665324     5A     -6.346905     6A     -6.345248
       7A     -6.345211     8A     -0.858490     9A     -0.700408
      10A     -0.572434    11A     -0.435030    12A     -0.405031
      13A     -0.340747    14A     -0.321604    15A     -0.226365
      16A     -0.088768    17A     -0.087564

  @DF-RHF Final Energy:  -476.22614578817218

   => Energetics <=

    Nuclear Repulsion Energy =             97.1933106825956230
    One-Electron Energy =                -855.8044659913853138
    Two-Electron Energy =                 282.3850095206174728
    Total Energy =                       -476.2261457881721753
  Basis Set: (AUG-CC-PVTZ AUX)
    Blend: AUG-CC-PVTZ-RI
    Molecular point group: c1

    Geometry (in Angstrom), charge = -1, multiplicity = 1:

       Center              X                  Y                   Z               Mass
    ------------   -----------------  -----------------  -----------------  -----------------
         S            0.808216297742    -0.746436160978    -0.002248263408    31.972071174400
         C           -0.082886702258     0.855694839022    -0.002248263408    12.000000000000
         C           -1.603316602258     0.720494939022     0.008970636592    12.000000000000
         H            0.201857297742     1.447417739022     0.876571436592     1.007825032230
         H            0.211061297742     1.446657839022    -0.878545263408     1.007825032230
         H           -2.097274702258     1.693255839022    -0.002248263408     1.007825032230
         H           -1.939013702258     0.162530839022    -0.885664263408     1.007825032230
         H           -1.939013702258     0.162530839022     0.881167736592     1.007825032230

  Basis Set: AUG-CC-PVTZ
    Blend: AUG-CC-PVTZ
  Basis Set: (AUG-CC-PVTZ AUX)
    Blend: AUG-CC-PVTZ-JKFIT
	 Reference Energy          =    -476.2261457881721753 [Eh]
	 Singles Energy            =      -0.0000000000000000 [Eh]
	 Same-Spin Energy          =      -0.1431393035366245 [Eh]
	 Opposite-Spin Energy      =      -0.4896960314059696 [Eh]
	 Correlation Energy        =      -0.6328353349425941 [Eh]
	 Total Energy              =    -476.8589811231147451 [Eh]

	 ================> DF-SCS-MP2 Energies <==================
	-----------------------------------------------------------
	 SCS Same-Spin Scale       =       0.3333333333333333 [-]
	 SCS Opposite-Spin Scale   =       1.2000000000000000 [-]
	 SCS Same-Spin Energy      =      -0.0477131011788748 [Eh]
	 SCS Opposite-Spin Energy  =      -0.5876352376871634 [Eh]
	 SCS Correlation Energy    =      -0.6353483388660383 [Eh]
	 SCS Total Energy          =    -476.8614941270382133 [Eh]
	-----------------------------------------------------------

  Dipole Moment: [D]
     X:    -3.0796      Y:     3.3327      Z:     0.0163     Total:     4.5377

*** Psi4 exiting successfully. Buy a developer a beer!
