                               Psi4 1.3.2 release

  ==> Input File <==

--------------------------------------------------------------------------
#psi4
#
memory 32 gb

molecule  {
-1 1
  S        0.8911030    -0.8186440     0.0000000
  C        0.0000000     0.7834870     0.0000000
  C       -1.5198180     0.6411310     0.0000000
  H        0.3139699     1.4147027     0.8405526
  H        0.3139699     1.4147027    -0.8405526
  H       -2.0143880     1.6210480     0.0000000
  H       -1.8561270     0.0903230    -0.8834160
  H       -1.8561270     0.0903230     0.8834160
units angstrom
no_reorient  #important for SAPT in psi4, default
symmetry c1  #important for SAPT in psi4, default
}

set PROPERTIES_ORIGIN ["COM"]
properties('MP2/aug-cc-pvtz', properties = ['dipole'])
--------------------------------------------------------------------------

    Molecular point group: c1
  Charge       = -1
  Multiplicity = 1
  Basis Set: AUG-CC-PVTZ
    Blend: AUG-CC-PVTZ
  Basis Set: (AUG-CC-PVTZ AUX)
    Blend: AUG-CC-PVTZ-JKFIT

    Orbital Energies [Eh]
    ---------------------

    Doubly Occupied:

       1A    -91.665870     2A    -11.058080     3A    -11.055290
       4A     -8.665681     5A     -6.347266     6A     -6.345607
       7A     -6.345567     8A     -0.857863     9A     -0.700958
      10A     -0.575823    11A     -0.429980    12A     -0.403873
      13A     -0.346106    14A     -0.316697    15A     -0.227917
      16A     -0.089366    17A     -0.087232

  @DF-RHF Final Energy:  -476.22521374292961

   => Energetics <=

    Nuclear Repulsion Energy =             97.1457990347518461
    One-Electron Energy =                -855.7036753943849590
    Two-Electron Energy =                 282.3326626167035442
    Total Energy =                       -476.2252137429296113
  Basis Set: (AUG-CC-PVTZ AUX)
    Blend: AUG-CC-PVTZ-RI
    Molecular point group: c1

    Geometry (in Angstrom), charge = -1, multiplicity = 1:

       Center              X                  Y                   Z               Mass
    ------------   -----------------  -----------------  -----------------  -----------------
         S            0.807282436926    -0.746345953127     0.000000000000    31.972071174400
         C           -0.083820563074     0.855785046873     0.000000000000    12.000000000000
         C           -1.603638563074     0.713429046873     0.000000000000    12.000000000000
         H            0.230149336926     1.487000746873     0.840552600000     1.007825032230
         H            0.230149336926     1.487000746873    -0.840552600000     1.007825032230
         H           -2.098208563074     1.693346046873     0.000000000000     1.007825032230
         H           -1.939947563074     0.162621046873    -0.883416000000     1.007825032230
         H           -1.939947563074     0.162621046873     0.883416000000     1.007825032230

  Basis Set: AUG-CC-PVTZ
    Blend: AUG-CC-PVTZ
  Basis Set: (AUG-CC-PVTZ AUX)
    Blend: AUG-CC-PVTZ-JKFIT
	 Reference Energy          =    -476.2252137429296113 [Eh]
	 Singles Energy            =      -0.0000000000000000 [Eh]
	 Same-Spin Energy          =      -0.1431378940838910 [Eh]
	 Opposite-Spin Energy      =      -0.4896790062968632 [Eh]
	 Correlation Energy        =      -0.6328169003807542 [Eh]
	 Total Energy              =    -476.8580306433103715 [Eh]

	 ================> DF-SCS-MP2 Energies <==================
	-----------------------------------------------------------
	 SCS Same-Spin Scale       =       0.3333333333333333 [-]
	 SCS Opposite-Spin Scale   =       1.2000000000000000 [-]
	 SCS Same-Spin Energy      =      -0.0477126313612970 [Eh]
	 SCS Opposite-Spin Energy  =      -0.5876148075562359 [Eh]
	 SCS Correlation Energy    =      -0.6353274389175328 [Eh]
	 SCS Total Energy          =    -476.8605411818471680 [Eh]
	-----------------------------------------------------------

  Dipole Moment: [D]
     X:    -3.0828      Y:     3.3129      Z:    -0.0000     Total:     4.5253

*** Psi4 exiting successfully. Buy a developer a beer!
