                               Psi4 1.3.2 release

  ==> Input File <==

--------------------------------------------------------------------------
#psi4
#
memory 32 gb

molecule  {
-1 1
  S        0.8911030    -0.8186440     0.0000000
  C       -0.0058940     0.8364412     0.0000000
  C       -1.5198180     0.6411310     0.0000000
  H        0.2939480     1.3744500     0.8762970
  H        0.2939480     1.3744500    -0.8762970
  H       -1.9798881     1.6377113     0.0000000
  H       -1.8561270     0.0903230    -0.8834160
  H       -1.8561270     0.0903230     0.8834160
units angstrom
no_reorient  #important for SAPT in psi4, default
symmetry c1  #important for SAPT in psi4, default
}

set PROPERTIES_ORIGIN ["COM"]
properties('MP2/aug-cc-pvtz', properties = ['dipole'])
--------------------------------------------------------------------------

    Molecular point group: c1
  Charge       = -1
  Multiplicity = 1
  Basis Set: AUG-CC-PVTZ
    Blend: AUG-CC-PVTZ
  Basis Set: (AUG-CC-PVTZ AUX)
    Blend: AUG-CC-PVTZ-JKFIT

    Orbital Energies [Eh]
    ---------------------

    Doubly Occupied:

       1A    -91.665660     2A    -11.055763     3A    -11.055054
       4A     -8.664827     5A     -6.346281     6A     -6.344723
       7A     -6.344693     8A     -0.858679     9A     -0.695939
      10A     -0.574712    11A     -0.442603    12A     -0.401390
      13A     -0.347755    14A     -0.332551    15A     -0.212070
      16A     -0.087455    17A     -0.087439

  @DF-RHF Final Energy:  -476.22414879617168

   => Energetics <=

    Nuclear Repulsion Energy =             96.6620576813536019
    One-Electron Energy =                -854.7372229651570024
    Two-Electron Energy =                 281.8510164876316821
    Total Energy =                       -476.2241487961716757
  Basis Set: (AUG-CC-PVTZ AUX)
    Blend: AUG-CC-PVTZ-RI
    Molecular point group: c1

    Geometry (in Angstrom), charge = -1, multiplicity = 1:

       Center              X                  Y                   Z               Mass
    ------------   -----------------  -----------------  -----------------  -----------------
         S            0.808533277522    -0.755706673254     0.000000000000    31.972071174400
         C           -0.088463722478     0.899378526746     0.000000000000    12.000000000000
         C           -1.602387722478     0.704068326746     0.000000000000    12.000000000000
         H            0.211378277522     1.437387326746     0.876297000000     1.007825032230
         H            0.211378277522     1.437387326746    -0.876297000000     1.007825032230
         H           -2.062457822478     1.700648626746     0.000000000000     1.007825032230
         H           -1.938696722478     0.153260326746    -0.883416000000     1.007825032230
         H           -1.938696722478     0.153260326746     0.883416000000     1.007825032230

  Basis Set: AUG-CC-PVTZ
    Blend: AUG-CC-PVTZ
  Basis Set: (AUG-CC-PVTZ AUX)
    Blend: AUG-CC-PVTZ-JKFIT
	 Reference Energy          =    -476.2241487961716757 [Eh]
	 Singles Energy            =      -0.0000000000000000 [Eh]
	 Same-Spin Energy          =      -0.1428796207043198 [Eh]
	 Opposite-Spin Energy      =      -0.4896664229910141 [Eh]
	 Correlation Energy        =      -0.6325460436953340 [Eh]
	 Total Energy              =    -476.8566948398670320 [Eh]

	 ================> DF-SCS-MP2 Energies <==================
	-----------------------------------------------------------
	 SCS Same-Spin Scale       =       0.3333333333333333 [-]
	 SCS Opposite-Spin Scale   =       1.2000000000000000 [-]
	 SCS Same-Spin Energy      =      -0.0476265402347733 [Eh]
	 SCS Opposite-Spin Energy  =      -0.5875997075892170 [Eh]
	 SCS Correlation Energy    =      -0.6352262478239903 [Eh]
	 SCS Total Energy          =    -476.8593750439956693 [Eh]
	-----------------------------------------------------------

  Dipole Moment: [D]
     X:    -3.1785      Y:     3.4515      Z:     0.0000     Total:     4.6921

*** Psi4 exiting successfully. Buy a developer a beer!
