                               Psi4 1.3.2 release

  ==> Input File <==

--------------------------------------------------------------------------
#psi4
#
memory 32 gb

molecule  {
-1 1
  S        0.9737308    -0.7698116     0.0000000
  C        0.0000000     0.7834870     0.0000000
  C       -1.5251855     0.7208672     0.0000000
  H        0.2939480     1.3744500     0.8762970
  H        0.2939480     1.3744500    -0.8762970
  H       -2.0143880     1.6210480     0.0000000
  H       -1.8561270     0.0903230    -0.8834160
  H       -1.8561270     0.0903230     0.8834160
units angstrom
no_reorient  #important for SAPT in psi4, default
symmetry c1  #important for SAPT in psi4, default
}

set PROPERTIES_ORIGIN ["COM"]
properties('MP2/aug-cc-pvtz', properties = ['dipole'])
--------------------------------------------------------------------------

    Molecular point group: c1
  Charge       = -1
  Multiplicity = 1
  Basis Set: AUG-CC-PVTZ
    Blend: AUG-CC-PVTZ
  Basis Set: (AUG-CC-PVTZ AUX)
    Blend: AUG-CC-PVTZ-JKFIT

    Orbital Energies [Eh]
    ---------------------

    Doubly Occupied:

       1A    -91.667200     2A    -11.057977     3A    -11.056743
       4A     -8.666888     5A     -6.348475     6A     -6.346795
       7A     -6.346753     8A     -0.858810     9A     -0.705309
      10A     -0.569912    11A     -0.429324    12A     -0.426118
      13A     -0.333299    14A     -0.309830    15A     -0.230474
      16A     -0.090189    17A     -0.087486

  @DF-RHF Final Energy:  -476.21807696557715

   => Energetics <=

    Nuclear Repulsion Energy =             96.6133509299772300
    One-Electron Energy =                -854.5996917822905061
    Two-Electron Energy =                 281.7682638867361788
    Total Energy =                       -476.2180769655771542
  Basis Set: (AUG-CC-PVTZ AUX)
    Blend: AUG-CC-PVTZ-RI
    Molecular point group: c1

    Geometry (in Angstrom), charge = -1, multiplicity = 1:

       Center              X                  Y                   Z               Mass
    ------------   -----------------  -----------------  -----------------  -----------------
         S            0.848327463420    -0.737456582562     0.000000000000    31.972071174400
         C           -0.125403336580     0.815842017438     0.000000000000    12.000000000000
         C           -1.650588836580     0.753222217438     0.000000000000    12.000000000000
         H            0.168544663420     1.406805017438     0.876297000000     1.007825032230
         H            0.168544663420     1.406805017438    -0.876297000000     1.007825032230
         H           -2.139791336580     1.653403017438     0.000000000000     1.007825032230
         H           -1.981530336580     0.122678017438    -0.883416000000     1.007825032230
         H           -1.981530336580     0.122678017438     0.883416000000     1.007825032230

  Basis Set: AUG-CC-PVTZ
    Blend: AUG-CC-PVTZ
  Basis Set: (AUG-CC-PVTZ AUX)
    Blend: AUG-CC-PVTZ-JKFIT
	 Reference Energy          =    -476.2180769655771542 [Eh]
	 Singles Energy            =      -0.0000000000000000 [Eh]
	 Same-Spin Energy          =      -0.1432041015527475 [Eh]
	 Opposite-Spin Energy      =      -0.4899927057942460 [Eh]
	 Correlation Energy        =      -0.6331968073469936 [Eh]
	 Total Energy              =    -476.8512737729241735 [Eh]

	 ================> DF-SCS-MP2 Energies <==================
	-----------------------------------------------------------
	 SCS Same-Spin Scale       =       0.3333333333333333 [-]
	 SCS Opposite-Spin Scale   =       1.2000000000000000 [-]
	 SCS Same-Spin Energy      =      -0.0477347005175825 [Eh]
	 SCS Opposite-Spin Energy  =      -0.5879912469530952 [Eh]
	 SCS Correlation Energy    =      -0.6357259474706778 [Eh]
	 SCS Total Energy          =    -476.8538029130478435 [Eh]
	-----------------------------------------------------------

  Dipole Moment: [D]
     X:    -3.1748      Y:     3.3993      Z:    -0.0000     Total:     4.6513

*** Psi4 exiting successfully. Buy a developer a beer!
