                               Psi4 1.3.2 release

  ==> Input File <==

--------------------------------------------------------------------------
#psi4
#
memory 32 gb

molecule  {
-1 1
  S        0.8984444    -0.8144808     0.0135911
  C        0.0000000     0.7834870     0.0000000
  C       -1.5198180     0.6411310     0.0000000
  H        0.2998150     1.3673969     0.8790331
  H        0.2939480     1.3744500    -0.8762970
  H       -2.0143880     1.6210480     0.0000000
  H       -1.8561270     0.0903230    -0.8834160
  H       -1.8561270     0.0903230     0.8834160
units angstrom
no_reorient  #important for SAPT in psi4, default
symmetry c1  #important for SAPT in psi4, default
}

set PROPERTIES_ORIGIN ["COM"]
properties('MP2/aug-cc-pvtz', properties = ['dipole'])
--------------------------------------------------------------------------

    Molecular point group: c1
  Charge       = -1
  Multiplicity = 1
  Basis Set: AUG-CC-PVTZ
    Blend: AUG-CC-PVTZ
  Basis Set: (AUG-CC-PVTZ AUX)
    Blend: AUG-CC-PVTZ-JKFIT

    Orbital Energies [Eh]
    ---------------------

    Doubly Occupied:

       1A    -91.665133     2A    -11.058278     3A    -11.054864
       4A     -8.665034     5A     -6.346615     6A     -6.344960
       7A     -6.344922     8A     -0.858450     9A     -0.700936
      10A     -0.571879    11A     -0.435994    12A     -0.403142
      13A     -0.341972    14A     -0.323846    15A     -0.225291
      16A     -0.088579    17A     -0.087224

  @DF-RHF Final Energy:  -476.22636611384672

   => Energetics <=

    Nuclear Repulsion Energy =             97.1910369315619960
    One-Electron Energy =                -855.8005726285530272
    Two-Electron Energy =                 282.3831695831443653
    Total Energy =                       -476.2263661138467228
  Basis Set: (AUG-CC-PVTZ AUX)
    Blend: AUG-CC-PVTZ-RI
    Molecular point group: c1

    Geometry (in Angstrom), charge = -1, multiplicity = 1:

       Center              X                  Y                   Z               Mass
    ------------   -----------------  -----------------  -----------------  -----------------
         S            0.811341234047    -0.742918068632     0.006423675775    31.972071174400
         C           -0.087103165953     0.855049731368    -0.007167424225    12.000000000000
         C           -1.606921165953     0.712693731368    -0.007167424225    12.000000000000
         H            0.212711834047     1.438959631368     0.871865675775     1.007825032230
         H            0.206844834047     1.446012731368    -0.883464424225     1.007825032230
         H           -2.101491165953     1.692610731368    -0.007167424225     1.007825032230
         H           -1.943230165953     0.161885731368    -0.890583424225     1.007825032230
         H           -1.943230165953     0.161885731368     0.876248575775     1.007825032230

  Basis Set: AUG-CC-PVTZ
    Blend: AUG-CC-PVTZ
  Basis Set: (AUG-CC-PVTZ AUX)
    Blend: AUG-CC-PVTZ-JKFIT
	 Reference Energy          =    -476.2263661138467228 [Eh]
	 Singles Energy            =      -0.0000000000000000 [Eh]
	 Same-Spin Energy          =      -0.1431201306728453 [Eh]
	 Opposite-Spin Energy      =      -0.4896537658806229 [Eh]
	 Correlation Energy        =      -0.6327738965534683 [Eh]
	 Total Energy              =    -476.8591400104002105 [Eh]

	 ================> DF-SCS-MP2 Energies <==================
	-----------------------------------------------------------
	 SCS Same-Spin Scale       =       0.3333333333333333 [-]
	 SCS Opposite-Spin Scale   =       1.2000000000000000 [-]
	 SCS Same-Spin Energy      =      -0.0477067102242818 [Eh]
	 SCS Opposite-Spin Energy  =      -0.5875845190567475 [Eh]
	 SCS Correlation Energy    =      -0.6352912292810292 [Eh]
	 SCS Total Energy          =    -476.8616573431277743 [Eh]
	-----------------------------------------------------------

  Dipole Moment: [D]
     X:    -3.0968      Y:     3.3247      Z:    -0.0175     Total:     4.5435

*** Psi4 exiting successfully. Buy a developer a beer!
