                               Psi4 1.3.2 release

  ==> Input File <==

--------------------------------------------------------------------------
#psi4
#
memory 32 gb

molecule  {
-1 1
  S        0.8911030    -0.8186440     0.0000000
  C        0.0000000     0.7834870     0.0000000
  C       -1.5198180     0.6411310     0.0000000
  H        0.2939480     1.3744500     0.8762970
  H        0.2939480     1.3744500    -0.8762970
  H       -2.0321239     1.6113476    -0.0325461
  H       -1.8778630     0.1202333    -0.8929649
  H       -1.8561270     0.0903230     0.8834160
units angstrom
no_reorient  #important for SAPT in psi4, default
symmetry c1  #important for SAPT in psi4, default
}

set PROPERTIES_ORIGIN ["COM"]
properties('MP2/aug-cc-pvtz', properties = ['dipole'])
--------------------------------------------------------------------------

    Molecular point group: c1
  Charge       = -1
  Multiplicity = 1
  Basis Set: AUG-CC-PVTZ
    Blend: AUG-CC-PVTZ
  Basis Set: (AUG-CC-PVTZ AUX)
    Blend: AUG-CC-PVTZ-JKFIT

    Orbital Energies [Eh]
    ---------------------

    Doubly Occupied:

       1A    -91.665305     2A    -11.058705     3A    -11.054806
       4A     -8.665195     5A     -6.346778     6A     -6.345117
       7A     -6.345079     8A     -0.858183     9A     -0.701478
      10A     -0.572536    11A     -0.437030    12A     -0.400136
      13A     -0.341536    14A     -0.324443    15A     -0.225790
      16A     -0.088684    17A     -0.087422

  @DF-RHF Final Energy:  -476.22589388717029

   => Energetics <=

    Nuclear Repulsion Energy =             97.1684211367757342
    One-Electron Energy =                -855.7521851684736021
    Two-Electron Energy =                 282.3578701445276238
    Total Energy =                       -476.2258938871702867
  Basis Set: (AUG-CC-PVTZ AUX)
    Blend: AUG-CC-PVTZ-RI
    Molecular point group: c1

    Geometry (in Angstrom), charge = -1, multiplicity = 1:

       Center              X                  Y                   Z               Mass
    ------------   -----------------  -----------------  -----------------  -----------------
         S            0.808595932116    -0.745349950461     0.000695354251    31.972071174400
         C           -0.082507067884     0.856781049539     0.000695354251    12.000000000000
         C           -1.602325067884     0.714425049539     0.000695354251    12.000000000000
         H            0.211440932116     1.447744049539     0.876992354251     1.007825032230
         H            0.211440932116     1.447744049539    -0.875601645749     1.007825032230
         H           -2.114630967884     1.684641649539    -0.031850745749     1.007825032230
         H           -1.960370067884     0.193527349539    -0.892269545749     1.007825032230
         H           -1.938634067884     0.163617049539     0.884111354251     1.007825032230

  Basis Set: AUG-CC-PVTZ
    Blend: AUG-CC-PVTZ
  Basis Set: (AUG-CC-PVTZ AUX)
    Blend: AUG-CC-PVTZ-JKFIT
	 Reference Energy          =    -476.2258938871702867 [Eh]
	 Singles Energy            =      -0.0000000000000000 [Eh]
	 Same-Spin Energy          =      -0.1431016033472619 [Eh]
	 Opposite-Spin Energy      =      -0.4896413364938363 [Eh]
	 Correlation Energy        =      -0.6327429398410982 [Eh]
	 Total Energy              =    -476.8586368270113667 [Eh]

	 ================> DF-SCS-MP2 Energies <==================
	-----------------------------------------------------------
	 SCS Same-Spin Scale       =       0.3333333333333333 [-]
	 SCS Opposite-Spin Scale   =       1.2000000000000000 [-]
	 SCS Same-Spin Energy      =      -0.0477005344490873 [Eh]
	 SCS Opposite-Spin Energy  =      -0.5875696037926036 [Eh]
	 SCS Correlation Energy    =      -0.6352701382416909 [Eh]
	 SCS Total Energy          =    -476.8611640254119948 [Eh]
	-----------------------------------------------------------

  Dipole Moment: [D]
     X:    -3.0925      Y:     3.3265      Z:    -0.0205     Total:     4.5420

*** Psi4 exiting successfully. Buy a developer a beer!
