                               Psi4 1.3.2 release

  ==> Input File <==

--------------------------------------------------------------------------
#psi4
#
memory 32 gb

molecule  {
-1 1
  S        0.9050501    -0.8108068     0.0000000
  C        0.0000000     0.7834870     0.0000000
  C       -1.5210024     0.6543992     0.0000000
  H        0.2939480     1.3744500     0.8762970
  H        0.2939480     1.3744500    -0.8762970
  H       -2.0143880     1.6210480     0.0000000
  H       -1.8561270     0.0903230    -0.8834160
  H       -1.8561270     0.0903230     0.8834160
units angstrom
no_reorient  #important for SAPT in psi4, default
symmetry c1  #important for SAPT in psi4, default
}

set PROPERTIES_ORIGIN ["COM"]
properties('MP2/aug-cc-pvtz', properties = ['dipole'])
--------------------------------------------------------------------------

    Molecular point group: c1
  Charge       = -1
  Multiplicity = 1
  Basis Set: AUG-CC-PVTZ
    Blend: AUG-CC-PVTZ
  Basis Set: (AUG-CC-PVTZ AUX)
    Blend: AUG-CC-PVTZ-JKFIT

    Orbital Energies [Eh]
    ---------------------

    Doubly Occupied:

       1A    -91.665507     2A    -11.058168     3A    -11.054774
       4A     -8.665363     5A     -6.346945     6A     -6.345287
       7A     -6.345249     8A     -0.858388     9A     -0.701145
      10A     -0.571889    11A     -0.433932    12A     -0.407449
      13A     -0.340226    14A     -0.321242    15A     -0.226556
      16A     -0.088884    17A     -0.087363

  @DF-RHF Final Energy:  -476.22614249291036

   => Energetics <=

    Nuclear Repulsion Energy =             97.1098657703760182
    One-Electron Energy =                -855.6352829271812652
    Two-Electron Energy =                 282.2992746638948915
    Total Energy =                       -476.2261424929103555
  Basis Set: (AUG-CC-PVTZ AUX)
    Blend: AUG-CC-PVTZ-RI
    Molecular point group: c1

    Geometry (in Angstrom), charge = -1, multiplicity = 1:

       Center              X                  Y                   Z               Mass
    ------------   -----------------  -----------------  -----------------  -----------------
         S            0.814815177704    -0.743895544054     0.000000000000    31.972071174400
         C           -0.090234922296     0.850398255946     0.000000000000    12.000000000000
         C           -1.611237322296     0.721310455946     0.000000000000    12.000000000000
         H            0.203713077704     1.441361255946     0.876297000000     1.007825032230
         H            0.203713077704     1.441361255946    -0.876297000000     1.007825032230
         H           -2.104622922296     1.687959255946     0.000000000000     1.007825032230
         H           -1.946361922296     0.157234255946    -0.883416000000     1.007825032230
         H           -1.946361922296     0.157234255946     0.883416000000     1.007825032230

  Basis Set: AUG-CC-PVTZ
    Blend: AUG-CC-PVTZ
  Basis Set: (AUG-CC-PVTZ AUX)
    Blend: AUG-CC-PVTZ-JKFIT
	 Reference Energy          =    -476.2261424929103555 [Eh]
	 Singles Energy            =      -0.0000000000000000 [Eh]
	 Same-Spin Energy          =      -0.1431207781999203 [Eh]
	 Opposite-Spin Energy      =      -0.4896673748601036 [Eh]
	 Correlation Energy        =      -0.6327881530600240 [Eh]
	 Total Energy              =    -476.8589306459703607 [Eh]

	 ================> DF-SCS-MP2 Energies <==================
	-----------------------------------------------------------
	 SCS Same-Spin Scale       =       0.3333333333333333 [-]
	 SCS Opposite-Spin Scale   =       1.2000000000000000 [-]
	 SCS Same-Spin Energy      =      -0.0477069260666401 [Eh]
	 SCS Opposite-Spin Energy  =      -0.5876008498321244 [Eh]
	 SCS Correlation Energy    =      -0.6353077758987644 [Eh]
	 SCS Total Energy          =    -476.8614502688091079 [Eh]
	-----------------------------------------------------------

  Dipole Moment: [D]
     X:    -3.1040      Y:     3.3404      Z:     0.0000     Total:     4.5599

*** Psi4 exiting successfully. Buy a developer a beer!
