                               Psi4 1.3.2 release

  ==> Input File <==

--------------------------------------------------------------------------
#psi4
#
memory 32 gb

molecule  {
-1 1
  S        0.8911030    -0.8186440     0.0000000
  C        0.0000000     0.7834870     0.0000000
  C       -1.5137183     0.5984413    -0.0672834
  H        0.3486773     1.3689479     0.8597667
  H        0.2939480     1.3744500    -0.8762970
  H       -2.0143880     1.6210480     0.0000000
  H       -1.8561270     0.0903230    -0.8834160
  H       -1.8561270     0.0903230     0.8834160
units angstrom
no_reorient  #important for SAPT in psi4, default
symmetry c1  #important for SAPT in psi4, default
}

set PROPERTIES_ORIGIN ["COM"]
properties('MP2/aug-cc-pvtz', properties = ['dipole'])
--------------------------------------------------------------------------

    Molecular point group: c1
  Charge       = -1
  Multiplicity = 1
  Basis Set: AUG-CC-PVTZ
    Blend: AUG-CC-PVTZ
  Basis Set: (AUG-CC-PVTZ AUX)
    Blend: AUG-CC-PVTZ-JKFIT

    Orbital Energies [Eh]
    ---------------------

    Doubly Occupied:

       1A    -91.664230     2A    -11.059149     3A    -11.057444
       4A     -8.664260     5A     -6.345838     6A     -6.344189
       7A     -6.344148     8A     -0.859260     9A     -0.702648
      10A     -0.573312    11A     -0.442807    12A     -0.388623
      13A     -0.361282    14A     -0.317350    15A     -0.221392
      16A     -0.088013    17A     -0.086602

  @DF-RHF Final Energy:  -476.21830437456248

   => Energetics <=

    Nuclear Repulsion Energy =             97.3826763659955930
    One-Electron Energy =                -856.1608666292127054
    Two-Electron Energy =                 282.5598858886546054
    Total Energy =                       -476.2183043745624786
  Basis Set: (AUG-CC-PVTZ AUX)
    Blend: AUG-CC-PVTZ-RI
    Molecular point group: c1

    Geometry (in Angstrom), charge = -1, multiplicity = 1:

       Center              X                  Y                   Z               Mass
    ------------   -----------------  -----------------  -----------------  -----------------
         S            0.805840130926    -0.736528789272     0.013506708598    31.972071174400
         C           -0.085262869074     0.865602210728     0.013506708598    12.000000000000
         C           -1.598981169074     0.680556510728    -0.053776691402    12.000000000000
         H            0.263414430926     1.451063110728     0.873273408598     1.007825032230
         H            0.208685130926     1.456565210728    -0.862790291402     1.007825032230
         H           -2.099650869074     1.703163210728     0.013506708598     1.007825032230
         H           -1.941389869074     0.172438210728    -0.869909291402     1.007825032230
         H           -1.941389869074     0.172438210728     0.896922708598     1.007825032230

  Basis Set: AUG-CC-PVTZ
    Blend: AUG-CC-PVTZ
  Basis Set: (AUG-CC-PVTZ AUX)
    Blend: AUG-CC-PVTZ-JKFIT
	 Reference Energy          =    -476.2183043745624786 [Eh]
	 Singles Energy            =      -0.0000000000000000 [Eh]
	 Same-Spin Energy          =      -0.1432327359586362 [Eh]
	 Opposite-Spin Energy      =      -0.4899514417165164 [Eh]
	 Correlation Energy        =      -0.6331841776751526 [Eh]
	 Total Energy              =    -476.8514885522376403 [Eh]

	 ================> DF-SCS-MP2 Energies <==================
	-----------------------------------------------------------
	 SCS Same-Spin Scale       =       0.3333333333333333 [-]
	 SCS Opposite-Spin Scale   =       1.2000000000000000 [-]
	 SCS Same-Spin Energy      =      -0.0477442453195454 [Eh]
	 SCS Opposite-Spin Energy  =      -0.5879417300598196 [Eh]
	 SCS Correlation Energy    =      -0.6356859753793651 [Eh]
	 SCS Total Energy          =    -476.8539903499418529 [Eh]
	-----------------------------------------------------------

  Dipole Moment: [D]
     X:    -3.0721      Y:     3.2630      Z:    -0.0897     Total:     4.4826

*** Psi4 exiting successfully. Buy a developer a beer!
