                               Psi4 1.3.2 release

  ==> Input File <==

--------------------------------------------------------------------------
#psi4
#
memory 32 gb

molecule  {
-1 1
  S        0.8911030    -0.8186440     0.0000000
  C        0.0000000     0.7834870     0.0000000
  C       -1.5198180     0.6411310     0.0000000
  H        0.2939480     1.3744500     0.8762970
  H        0.2939480     1.3744500    -0.8762970
  H       -1.9866613     1.6333568     0.0488068
  H       -1.8227632     0.0467270    -0.8670785
  H       -1.8561270     0.0903230     0.8834160
units angstrom
no_reorient  #important for SAPT in psi4, default
symmetry c1  #important for SAPT in psi4, default
}

set PROPERTIES_ORIGIN ["COM"]
properties('MP2/aug-cc-pvtz', properties = ['dipole'])
--------------------------------------------------------------------------

    Molecular point group: c1
  Charge       = -1
  Multiplicity = 1
  Basis Set: AUG-CC-PVTZ
    Blend: AUG-CC-PVTZ
  Basis Set: (AUG-CC-PVTZ AUX)
    Blend: AUG-CC-PVTZ-JKFIT

    Orbital Energies [Eh]
    ---------------------

    Doubly Occupied:

       1A    -91.665169     2A    -11.057738     3A    -11.054304
       4A     -8.665065     5A     -6.346644     6A     -6.344998
       7A     -6.344959     8A     -0.859050     9A     -0.699277
      10A     -0.572328    11A     -0.435818    12A     -0.405807
      13A     -0.341251    14A     -0.320963    15A     -0.225325
      16A     -0.088560    17A     -0.087408

  @DF-RHF Final Energy:  -476.22542657555357

   => Energetics <=

    Nuclear Repulsion Energy =             97.2986345956444580
    One-Electron Energy =                -856.0187974443665553
    Two-Electron Energy =                 282.4947362731685416
    Total Energy =                       -476.2254265755535698
  Basis Set: (AUG-CC-PVTZ AUX)
    Blend: AUG-CC-PVTZ-RI
    Molecular point group: c1

    Geometry (in Angstrom), charge = -1, multiplicity = 1:

       Center              X                  Y                   Z               Mass
    ------------   -----------------  -----------------  -----------------  -----------------
         S            0.806934773015    -0.744499285836    -0.001076098490    31.972071174400
         C           -0.084168226985     0.857631714164    -0.001076098490    12.000000000000
         C           -1.603986226985     0.715275714164    -0.001076098490    12.000000000000
         H            0.209779773015     1.448594714164     0.875220901510     1.007825032230
         H            0.209779773015     1.448594714164    -0.877373098490     1.007825032230
         H           -2.070829526985     1.707501514164     0.047730701510     1.007825032230
         H           -1.906931426985     0.120871714164    -0.868154598490     1.007825032230
         H           -1.940295226985     0.164467714164     0.882339901510     1.007825032230

  Basis Set: AUG-CC-PVTZ
    Blend: AUG-CC-PVTZ
  Basis Set: (AUG-CC-PVTZ AUX)
    Blend: AUG-CC-PVTZ-JKFIT
	 Reference Energy          =    -476.2254265755535698 [Eh]
	 Singles Energy            =      -0.0000000000000000 [Eh]
	 Same-Spin Energy          =      -0.1432501896635494 [Eh]
	 Opposite-Spin Energy      =      -0.4898192811250926 [Eh]
	 Correlation Energy        =      -0.6330694707886420 [Eh]
	 Total Energy              =    -476.8584960463422249 [Eh]

	 ================> DF-SCS-MP2 Energies <==================
	-----------------------------------------------------------
	 SCS Same-Spin Scale       =       0.3333333333333333 [-]
	 SCS Opposite-Spin Scale   =       1.2000000000000000 [-]
	 SCS Same-Spin Energy      =      -0.0477500632211831 [Eh]
	 SCS Opposite-Spin Energy  =      -0.5877831373501111 [Eh]
	 SCS Correlation Energy    =      -0.6355332005712943 [Eh]
	 SCS Total Energy          =    -476.8609597761248438 [Eh]
	-----------------------------------------------------------

  Dipole Moment: [D]
     X:    -3.0649      Y:     3.3176      Z:     0.0311     Total:     4.5168

*** Psi4 exiting successfully. Buy a developer a beer!
