                               Psi4 1.3.2 release

  ==> Input File <==

--------------------------------------------------------------------------
#psi4
#
memory 32 gb

molecule  {
-1 1
  S        0.8911030    -0.8186440     0.0000000
  C        0.0000000     0.7834870     0.0000000
  C       -1.5198180     0.6411310     0.0000000
  H        0.2905312     1.3675807     0.8820234
  H        0.2905312     1.3675807    -0.8820234
  H       -2.0143880     1.6210480     0.0000000
  H       -1.8561270     0.0903230    -0.8834160
  H       -1.8561270     0.0903230     0.8834160
units angstrom
no_reorient  #important for SAPT in psi4, default
symmetry c1  #important for SAPT in psi4, default
}

set PROPERTIES_ORIGIN ["COM"]
properties('MP2/aug-cc-pvtz', properties = ['dipole'])
--------------------------------------------------------------------------

    Molecular point group: c1
  Charge       = -1
  Multiplicity = 1
  Basis Set: AUG-CC-PVTZ
    Blend: AUG-CC-PVTZ
  Basis Set: (AUG-CC-PVTZ AUX)
    Blend: AUG-CC-PVTZ-JKFIT

    Orbital Energies [Eh]
    ---------------------

    Doubly Occupied:

       1A    -91.665144     2A    -11.058339     3A    -11.054475
       4A     -8.665050     5A     -6.346630     6A     -6.344976
       7A     -6.344938     8A     -0.858574     9A     -0.700454
      10A     -0.571871    11A     -0.436724    12A     -0.402810
      13A     -0.340893    14A     -0.324350    15A     -0.225291
      16A     -0.088501    17A     -0.087426

  @DF-RHF Final Energy:  -476.22636639317568

   => Energetics <=

    Nuclear Repulsion Energy =             97.2308221516106386
    One-Electron Energy =                -855.8814830831061045
    Two-Electron Energy =                 282.4242945383198276
    Total Energy =                       -476.2263663931756810
  Basis Set: (AUG-CC-PVTZ AUX)
    Blend: AUG-CC-PVTZ-RI
    Molecular point group: c1

    Geometry (in Angstrom), charge = -1, multiplicity = 1:

       Center              X                  Y                   Z               Mass
    ------------   -----------------  -----------------  -----------------  -----------------
         S            0.808056790159    -0.744789165717     0.000000000000    31.972071174400
         C           -0.083046209841     0.857341834283     0.000000000000    12.000000000000
         C           -1.602864209841     0.714985834283     0.000000000000    12.000000000000
         H            0.207484990159     1.441435534283     0.882023400000     1.007825032230
         H            0.207484990159     1.441435534283    -0.882023400000     1.007825032230
         H           -2.097434209841     1.694902834283     0.000000000000     1.007825032230
         H           -1.939173209841     0.164177834283    -0.883416000000     1.007825032230
         H           -1.939173209841     0.164177834283     0.883416000000     1.007825032230

  Basis Set: AUG-CC-PVTZ
    Blend: AUG-CC-PVTZ
  Basis Set: (AUG-CC-PVTZ AUX)
    Blend: AUG-CC-PVTZ-JKFIT
	 Reference Energy          =    -476.2263663931756810 [Eh]
	 Singles Energy            =      -0.0000000000000000 [Eh]
	 Same-Spin Energy          =      -0.1431368550949970 [Eh]
	 Opposite-Spin Energy      =      -0.4896821383643661 [Eh]
	 Correlation Energy        =      -0.6328189934593631 [Eh]
	 Total Energy              =    -476.8591853866350334 [Eh]

	 ================> DF-SCS-MP2 Energies <==================
	-----------------------------------------------------------
	 SCS Same-Spin Scale       =       0.3333333333333333 [-]
	 SCS Opposite-Spin Scale   =       1.2000000000000000 [-]
	 SCS Same-Spin Energy      =      -0.0477122850316656 [Eh]
	 SCS Opposite-Spin Energy  =      -0.5876185660372394 [Eh]
	 SCS Correlation Energy    =      -0.6353308510689051 [Eh]
	 SCS Total Energy          =    -476.8616972442445672 [Eh]
	-----------------------------------------------------------

  Dipole Moment: [D]
     X:    -3.0824      Y:     3.3254      Z:    -0.0000     Total:     4.5342

*** Psi4 exiting successfully. Buy a developer a beer!
