                               Psi4 1.3.2 release

  ==> Input File <==

--------------------------------------------------------------------------
#psi4
#
memory 32 gb

molecule  {
-1 1
  S        0.8911030    -0.8186440     0.0000000
  C        0.0000000     0.7834870     0.0000000
  C       -1.5198180     0.6411310     0.0000000
  H        0.3073889     1.4014720     0.8527284
  H        0.3073889     1.4014720    -0.8527284
  H       -2.0143880     1.6210480     0.0000000
  H       -1.8561270     0.0903230    -0.8834160
  H       -1.8561270     0.0903230     0.8834160
units angstrom
no_reorient  #important for SAPT in psi4, default
symmetry c1  #important for SAPT in psi4, default
}

set PROPERTIES_ORIGIN ["COM"]
properties('MP2/aug-cc-pvtz', properties = ['dipole'])
--------------------------------------------------------------------------

    Molecular point group: c1
  Charge       = -1
  Multiplicity = 1
  Basis Set: AUG-CC-PVTZ
    Blend: AUG-CC-PVTZ
  Basis Set: (AUG-CC-PVTZ AUX)
    Blend: AUG-CC-PVTZ-JKFIT

    Orbital Energies [Eh]
    ---------------------

    Doubly Occupied:

       1A    -91.665655     2A    -11.058145     3A    -11.055053
       4A     -8.665493     5A     -6.347077     6A     -6.345419
       7A     -6.345380     8A     -0.858036     9A     -0.700786
      10A     -0.574647    11A     -0.431833    12A     -0.403555
      13A     -0.344612    14A     -0.319075    15A     -0.227187
      16A     -0.089113    17A     -0.087306

  @DF-RHF Final Energy:  -476.22584174367847

   => Energetics <=

    Nuclear Repulsion Energy =             97.1690541595121289
    One-Electron Energy =                -855.7530482464338775
    Two-Electron Energy =                 282.3581523432432618
    Total Energy =                       -476.2258417436784725
  Basis Set: (AUG-CC-PVTZ AUX)
    Blend: AUG-CC-PVTZ-RI
    Molecular point group: c1

    Geometry (in Angstrom), charge = -1, multiplicity = 1:

       Center              X                  Y                   Z               Mass
    ------------   -----------------  -----------------  -----------------  -----------------
         S            0.807499855922    -0.745908845467     0.000000000000    31.972071174400
         C           -0.083603144078     0.856222154533     0.000000000000    12.000000000000
         C           -1.603421144078     0.713866154533     0.000000000000    12.000000000000
         H            0.223785755922     1.474207154533     0.852728400000     1.007825032230
         H            0.223785755922     1.474207154533    -0.852728400000     1.007825032230
         H           -2.097991144078     1.693783154533     0.000000000000     1.007825032230
         H           -1.939730144078     0.163058154533    -0.883416000000     1.007825032230
         H           -1.939730144078     0.163058154533     0.883416000000     1.007825032230

  Basis Set: AUG-CC-PVTZ
    Blend: AUG-CC-PVTZ
  Basis Set: (AUG-CC-PVTZ AUX)
    Blend: AUG-CC-PVTZ-JKFIT
	 Reference Energy          =    -476.2258417436784725 [Eh]
	 Singles Energy            =      -0.0000000000000000 [Eh]
	 Same-Spin Energy          =      -0.1431226531300973 [Eh]
	 Opposite-Spin Energy      =      -0.4896575778016484 [Eh]
	 Correlation Energy        =      -0.6327802309317457 [Eh]
	 Total Energy              =    -476.8586219746102302 [Eh]

	 ================> DF-SCS-MP2 Energies <==================
	-----------------------------------------------------------
	 SCS Same-Spin Scale       =       0.3333333333333333 [-]
	 SCS Opposite-Spin Scale   =       1.2000000000000000 [-]
	 SCS Same-Spin Energy      =      -0.0477075510433658 [Eh]
	 SCS Opposite-Spin Energy  =      -0.5875890933619781 [Eh]
	 SCS Correlation Energy    =      -0.6352966444053438 [Eh]
	 SCS Total Energy          =    -476.8611383880838162 [Eh]
	-----------------------------------------------------------

  Dipole Moment: [D]
     X:    -3.0829      Y:     3.3166      Z:    -0.0000     Total:     4.5282

*** Psi4 exiting successfully. Buy a developer a beer!
