                               Psi4 1.4a3.dev225

  ==> Input File <==

--------------------------------------------------------------------------
#psi4
#
memory 32 gb

molecule  {
-1 1
  S        1.1996750    -0.1541640    -0.0000130
  C       -0.4531560     0.6408210     0.0000070
  C       -1.6097280    -0.3542770     0.0000150
  H       -0.5498396     1.2626340     0.8364400
  H       -0.5544760     1.2923430    -0.8763740
  H       -2.5798990     0.1588220     0.0000240
  H       -1.5643380    -0.9980720    -0.8832230
  H       -1.5643230    -0.9980760     0.8832490
units angstrom
no_reorient  #important for SAPT in psi4, default
symmetry c1  #important for SAPT in psi4, default
}

set PROPERTIES_ORIGIN ["COM"]
properties('MP2/aug-cc-pvtz', properties = ['dipole'])
--------------------------------------------------------------------------

    Molecular point group: c1
  Charge       = -1
  Multiplicity = 1
  Basis Set: AUG-CC-PVTZ
    Blend: AUG-CC-PVTZ
  Basis Set: (AUG-CC-PVTZ AUX)
    Blend: AUG-CC-PVTZ-JKFIT

    Orbital Energies [Eh]
    ---------------------

    Doubly Occupied:

       1A    -91.664685     2A    -11.053926     3A    -11.051431
       4A     -8.664568     5A     -6.346148     6A     -6.344501
       7A     -6.344462     8A     -0.860675     9A     -0.701869
      10A     -0.576140    11A     -0.439036    12A     -0.402771
      13A     -0.342959    14A     -0.326419    15A     -0.225030
      16A     -0.088226    17A     -0.087185

  @DF-RHF Final Energy:  -476.22533967869316

   => Energetics <=

    Nuclear Repulsion Energy =             97.4642324240922591
    One-Electron Energy =                -856.3390839472835978
    Two-Electron Energy =                 282.6495118444981358
    Total Energy =                       -476.2253396786931603
  Basis Set: (AUG-CC-PVTZ AUX)
    Blend: AUG-CC-PVTZ-RI
    Molecular point group: c1

    Geometry (in Angstrom), charge = -1, multiplicity = 1:

       Center              X                  Y                   Z               Mass
    ------------   -----------------  -----------------  -----------------  -----------------
         S            1.089280509816    -0.141590115461     0.000648316823    31.972071174400
         C           -0.563550490184     0.653394884539     0.000668316823    12.000000000000
         C           -1.720122490184    -0.341703115461     0.000676316823    12.000000000000
         H           -0.660234090184     1.275207884539     0.837101316823     1.007825032230
         H           -0.664870490184     1.304916884539    -0.875712683177     1.007825032230
         H           -2.690293490184     0.171395884539     0.000685316823     1.007825032230
         H           -1.674732490184    -0.985498115461    -0.882561683177     1.007825032230
         H           -1.674717490184    -0.985502115461     0.883910316823     1.007825032230

  Basis Set: AUG-CC-PVTZ
    Blend: AUG-CC-PVTZ
  Basis Set: (AUG-CC-PVTZ AUX)
    Blend: AUG-CC-PVTZ-JKFIT
	 Reference Energy          =    -476.2253396786931603 [Eh]
	 Singles Energy            =      -0.0000000000000000 [Eh]
	 Same-Spin Energy          =      -0.1431277810436521 [Eh]
	 Opposite-Spin Energy      =      -0.4894261244807894 [Eh]
	 Correlation Energy        =      -0.6325539055244416 [Eh]
	 Total Energy              =    -476.8578935842176065 [Eh]

	 ================> DF-SCS-MP2 Energies <==================
	-----------------------------------------------------------
	 SCS Same-Spin Scale       =       0.3333333333333333 [-]
	 SCS Opposite-Spin Scale   =       1.2000000000000000 [-]
	 SCS Same-Spin Energy      =      -0.0477092603478840 [Eh]
	 SCS Opposite-Spin Energy  =      -0.5873113493769473 [Eh]
	 SCS Correlation Energy    =      -0.6350206097248313 [Eh]
	 SCS Total Energy          =    -476.8603602884180077 [Eh]
	-----------------------------------------------------------

  Dipole Moment: [D]
     X:    -4.4734      Y:     0.9781      Z:     0.0241     Total:     4.5791

*** Psi4 exiting successfully. Buy a developer a beer!
