                               Psi4 1.3.2 release

  ==> Input File <==

--------------------------------------------------------------------------
#psi4
#
memory 32 gb

molecule  {
-1 1
  S        0.8911030    -0.8186440     0.0000000
  C        0.0000000     0.7834870     0.0000000
  C       -1.5162136     0.6126206    -0.0448670
  H        0.3305330     1.3709611     0.8655410
  H        0.2939480     1.3744500    -0.8762970
  H       -2.0143880     1.6210480     0.0000000
  H       -1.8561270     0.0903230    -0.8834160
  H       -1.8561270     0.0903230     0.8834160
units angstrom
no_reorient  #important for SAPT in psi4, default
symmetry c1  #important for SAPT in psi4, default
}

set PROPERTIES_ORIGIN ["COM"]
properties('MP2/aug-cc-pvtz', properties = ['dipole'])
--------------------------------------------------------------------------

    Molecular point group: c1
  Charge       = -1
  Multiplicity = 1
  Basis Set: AUG-CC-PVTZ
    Blend: AUG-CC-PVTZ
  Basis Set: (AUG-CC-PVTZ AUX)
    Blend: AUG-CC-PVTZ-JKFIT

    Orbital Energies [Eh]
    ---------------------

    Doubly Occupied:

       1A    -91.664519     2A    -11.058728     3A    -11.056208
       4A     -8.664503     5A     -6.346082     6A     -6.344431
       7A     -6.344391     8A     -0.858797     9A     -0.701613
      10A     -0.572805    11A     -0.440099    12A     -0.393532
      13A     -0.353603    14A     -0.320968    15A     -0.222852
      16A     -0.088168    17A     -0.086840

  @DF-RHF Final Energy:  -476.22289365210020

   => Energetics <=

    Nuclear Repulsion Energy =             97.3244538015092928
    One-Electron Energy =                -856.0584167581072279
    Two-Electron Energy =                 282.5110693044977097
    Total Energy =                       -476.2228936521001970
  Basis Set: (AUG-CC-PVTZ AUX)
    Blend: AUG-CC-PVTZ-RI
    Molecular point group: c1

    Geometry (in Angstrom), charge = -1, multiplicity = 1:

       Center              X                  Y                   Z               Mass
    ------------   -----------------  -----------------  -----------------  -----------------
         S            0.806630639597    -0.739350903305     0.009002350372    31.972071174400
         C           -0.084472360403     0.862780096695     0.009002350372    12.000000000000
         C           -1.600685960403     0.691913696695    -0.035864649628    12.000000000000
         H            0.246060639597     1.450254196695     0.874543350372     1.007825032230
         H            0.209475639597     1.453743096695    -0.867294649628     1.007825032230
         H           -2.098860360403     1.700341096695     0.009002350372     1.007825032230
         H           -1.940599360403     0.169616096695    -0.874413649628     1.007825032230
         H           -1.940599360403     0.169616096695     0.892418350372     1.007825032230

  Basis Set: AUG-CC-PVTZ
    Blend: AUG-CC-PVTZ
  Basis Set: (AUG-CC-PVTZ AUX)
    Blend: AUG-CC-PVTZ-JKFIT
	 Reference Energy          =    -476.2228936521001970 [Eh]
	 Singles Energy            =      -0.0000000000000000 [Eh]
	 Same-Spin Energy          =      -0.1431649261261613 [Eh]
	 Opposite-Spin Energy      =      -0.4897700470168719 [Eh]
	 Correlation Energy        =      -0.6329349731430332 [Eh]
	 Total Energy              =    -476.8558286252432481 [Eh]

	 ================> DF-SCS-MP2 Energies <==================
	-----------------------------------------------------------
	 SCS Same-Spin Scale       =       0.3333333333333333 [-]
	 SCS Opposite-Spin Scale   =       1.2000000000000000 [-]
	 SCS Same-Spin Energy      =      -0.0477216420420538 [Eh]
	 SCS Opposite-Spin Energy  =      -0.5877240564202463 [Eh]
	 SCS Correlation Energy    =      -0.6354456984623000 [Eh]
	 SCS Total Energy          =    -476.8583393505625168 [Eh]
	-----------------------------------------------------------

  Dipole Moment: [D]
     X:    -3.0812      Y:     3.2847      Z:    -0.0612     Total:     4.5040

*** Psi4 exiting successfully. Buy a developer a beer!
