                               Psi4 1.4a3.dev225

  ==> Input File <==

--------------------------------------------------------------------------
#psi4
#
memory 32 gb

molecule  {
-1 1
  S        1.1996750    -0.1541640    -0.0000130
  C       -0.4080972     0.6191484     0.0000065
  C       -1.6097280    -0.3542770     0.0000150
  H       -0.5544580     1.2923370     0.8763950
  H       -0.5544760     1.2923430    -0.8763740
  H       -2.5798990     0.1588220     0.0000240
  H       -1.5643380    -0.9980720    -0.8832230
  H       -1.5643230    -0.9980760     0.8832490
units angstrom
no_reorient  #important for SAPT in psi4, default
symmetry c1  #important for SAPT in psi4, default
}

set PROPERTIES_ORIGIN ["COM"]
properties('MP2/aug-cc-pvtz', properties = ['dipole'])
--------------------------------------------------------------------------

    Molecular point group: c1
  Charge       = -1
  Multiplicity = 1
  Basis Set: AUG-CC-PVTZ
    Blend: AUG-CC-PVTZ
  Basis Set: (AUG-CC-PVTZ AUX)
    Blend: AUG-CC-PVTZ-JKFIT

    Orbital Energies [Eh]
    ---------------------

    Doubly Occupied:

       1A    -91.664480     2A    -11.061183     3A    -11.054156
       4A     -8.665278     5A     -6.347004     6A     -6.345225
       7A     -6.345181     8A     -0.856073     9A     -0.706363
      10A     -0.570654    11A     -0.430138    12A     -0.402868
      13A     -0.331824    14A     -0.318436    15A     -0.238744
      16A     -0.089031    17A     -0.087537

  @DF-RHF Final Energy:  -476.22446126338207

   => Energetics <=

    Nuclear Repulsion Energy =             97.7156673782107958
    One-Electron Energy =                -856.8519076022297440
    Two-Electron Energy =                 282.9117789606368660
    Total Energy =                       -476.2244612633820680
  Basis Set: (AUG-CC-PVTZ AUX)
    Blend: AUG-CC-PVTZ-RI
    Molecular point group: c1

    Geometry (in Angstrom), charge = -1, multiplicity = 1:

       Center              X                  Y                   Z               Mass
    ------------   -----------------  -----------------  -----------------  -----------------
         S            1.080494400166    -0.137818090211    -0.000011589089    31.972071174400
         C           -0.527277799834     0.635494309789     0.000007910911    12.000000000000
         C           -1.728908599834    -0.337931090211     0.000016410911    12.000000000000
         H           -0.673638599834     1.308682909789     0.876396410911     1.007825032230
         H           -0.673656599834     1.308688909789    -0.876372589089     1.007825032230
         H           -2.699079599834     0.175167909789     0.000025410911     1.007825032230
         H           -1.683518599834    -0.981726090211    -0.883221589089     1.007825032230
         H           -1.683503599834    -0.981730090211     0.883250410911     1.007825032230

  Basis Set: AUG-CC-PVTZ
    Blend: AUG-CC-PVTZ
  Basis Set: (AUG-CC-PVTZ AUX)
    Blend: AUG-CC-PVTZ-JKFIT
	 Reference Energy          =    -476.2244612633820680 [Eh]
	 Singles Energy            =      -0.0000000000000000 [Eh]
	 Same-Spin Energy          =      -0.1435220461620984 [Eh]
	 Opposite-Spin Energy      =      -0.4899557734524277 [Eh]
	 Correlation Energy        =      -0.6334778196145261 [Eh]
	 Total Energy              =    -476.8579390829966087 [Eh]

	 ================> DF-SCS-MP2 Energies <==================
	-----------------------------------------------------------
	 SCS Same-Spin Scale       =       0.3333333333333333 [-]
	 SCS Opposite-Spin Scale   =       1.2000000000000000 [-]
	 SCS Same-Spin Energy      =      -0.0478406820540328 [Eh]
	 SCS Opposite-Spin Energy  =      -0.5879469281429132 [Eh]
	 SCS Correlation Energy    =      -0.6357876101969460 [Eh]
	 SCS Total Energy          =    -476.8602488735789962 [Eh]
	-----------------------------------------------------------

  Dipole Moment: [D]
     X:    -4.2403      Y:     0.8965      Z:     0.0000     Total:     4.3340

*** Psi4 exiting successfully. Buy a developer a beer!
