                               Psi4 1.3.2 release

  ==> Input File <==

--------------------------------------------------------------------------
#psi4
#
memory 32 gb

molecule  {
-1 1
  S        0.8630062    -0.8339519     0.0000000
  C        0.0000000     0.7834870     0.0000000
  C       -1.5171021     0.6146282     0.0000000
  H        0.2939480     1.3744500     0.8762970
  H        0.2939480     1.3744500    -0.8762970
  H       -2.0143880     1.6210480     0.0000000
  H       -1.8561270     0.0903230    -0.8834160
  H       -1.8561270     0.0903230     0.8834160
units angstrom
no_reorient  #important for SAPT in psi4, default
symmetry c1  #important for SAPT in psi4, default
}

set PROPERTIES_ORIGIN ["COM"]
properties('MP2/aug-cc-pvtz', properties = ['dipole'])
--------------------------------------------------------------------------

    Molecular point group: c1
  Charge       = -1
  Multiplicity = 1
  Basis Set: AUG-CC-PVTZ
    Blend: AUG-CC-PVTZ
  Basis Set: (AUG-CC-PVTZ AUX)
    Blend: AUG-CC-PVTZ-JKFIT

    Orbital Energies [Eh]
    ---------------------

    Doubly Occupied:

       1A    -91.664800     2A    -11.058638     3A    -11.054443
       4A     -8.664768     5A     -6.346345     6A     -6.344695
       7A     -6.344657     8A     -0.858741     9A     -0.699418
      10A     -0.573539    11A     -0.439497    12A     -0.393975
      13A     -0.344432    14A     -0.327454    15A     -0.223842
      16A     -0.088089    17A     -0.087578

  @DF-RHF Final Energy:  -476.22558483998978

   => Energetics <=

    Nuclear Repulsion Energy =             97.4434204950942302
    One-Electron Energy =                -856.3081874093825263
    Two-Electron Energy =                 282.6391820742985601
    Total Energy =                       -476.2255848399897786
  Basis Set: (AUG-CC-PVTZ AUX)
    Blend: AUG-CC-PVTZ-RI
    Molecular point group: c1

    Geometry (in Angstrom), charge = -1, multiplicity = 1:

       Center              X                  Y                   Z               Mass
    ------------   -----------------  -----------------  -----------------  -----------------
         S            0.794036668996    -0.747089407926     0.000000000000    31.972071174400
         C           -0.068969531004     0.870349492074     0.000000000000    12.000000000000
         C           -1.586071631004     0.701490692074     0.000000000000    12.000000000000
         H            0.224978468996     1.461312492074     0.876297000000     1.007825032230
         H            0.224978468996     1.461312492074    -0.876297000000     1.007825032230
         H           -2.083357531004     1.707910492074     0.000000000000     1.007825032230
         H           -1.925096531004     0.177185492074    -0.883416000000     1.007825032230
         H           -1.925096531004     0.177185492074     0.883416000000     1.007825032230

  Basis Set: AUG-CC-PVTZ
    Blend: AUG-CC-PVTZ
  Basis Set: (AUG-CC-PVTZ AUX)
    Blend: AUG-CC-PVTZ-JKFIT
	 Reference Energy          =    -476.2255848399897786 [Eh]
	 Singles Energy            =      -0.0000000000000000 [Eh]
	 Same-Spin Energy          =      -0.1431680622499142 [Eh]
	 Opposite-Spin Energy      =      -0.4897354573395024 [Eh]
	 Correlation Energy        =      -0.6329035195894166 [Eh]
	 Total Energy              =    -476.8584883595792121 [Eh]

	 ================> DF-SCS-MP2 Energies <==================
	-----------------------------------------------------------
	 SCS Same-Spin Scale       =       0.3333333333333333 [-]
	 SCS Opposite-Spin Scale   =       1.2000000000000000 [-]
	 SCS Same-Spin Energy      =      -0.0477226874166381 [Eh]
	 SCS Opposite-Spin Energy  =      -0.5876825488074029 [Eh]
	 SCS Correlation Energy    =      -0.6354052362240410 [Eh]
	 SCS Total Energy          =    -476.8609900762137954 [Eh]
	-----------------------------------------------------------

  Dipole Moment: [D]
     X:    -3.0319      Y:     3.2845      Z:    -0.0000     Total:     4.4700

*** Psi4 exiting successfully. Buy a developer a beer!
