                               Psi4 1.3.2 release

  ==> Input File <==

--------------------------------------------------------------------------
#psi4
#
memory 32 gb

molecule  {
-1 1
  S        0.8911030    -0.8186440     0.0000000
  C        0.0000000     0.7834870     0.0000000
  C       -1.5217520     0.6842109     0.0672834
  H        0.2384130     1.3783323     0.8904254
  H        0.2939480     1.3744500    -0.8762970
  H       -2.0143880     1.6210480     0.0000000
  H       -1.8561270     0.0903230    -0.8834160
  H       -1.8561270     0.0903230     0.8834160
units angstrom
no_reorient  #important for SAPT in psi4, default
symmetry c1  #important for SAPT in psi4, default
}

set PROPERTIES_ORIGIN ["COM"]
properties('MP2/aug-cc-pvtz', properties = ['dipole'])
--------------------------------------------------------------------------

    Molecular point group: c1
  Charge       = -1
  Multiplicity = 1
  Basis Set: AUG-CC-PVTZ
    Blend: AUG-CC-PVTZ
  Basis Set: (AUG-CC-PVTZ AUX)
    Blend: AUG-CC-PVTZ-JKFIT

    Orbital Energies [Eh]
    ---------------------

    Doubly Occupied:

       1A    -91.666680     2A    -11.058605     3A    -11.054453
       4A     -8.666443     5A     -6.348026     6A     -6.346359
       7A     -6.346325     8A     -0.859393     9A     -0.700721
      10A     -0.573243    11A     -0.436783    12A     -0.410990
      13A     -0.345159    14A     -0.302663    15A     -0.229629
      16A     -0.089738    17A     -0.088379

  @DF-RHF Final Energy:  -476.21907984332188

   => Energetics <=

    Nuclear Repulsion Energy =             97.0784444691045394
    One-Electron Energy =                -855.5478679649744436
    Two-Electron Energy =                 282.2503436525480538
    Total Energy =                       -476.2190798433218788
  Basis Set: (AUG-CC-PVTZ AUX)
    Blend: AUG-CC-PVTZ-RI
    Molecular point group: c1

    Geometry (in Angstrom), charge = -1, multiplicity = 1:

       Center              X                  Y                   Z               Mass
    ------------   -----------------  -----------------  -----------------  -----------------
         S            0.809241662681    -0.753553419104    -0.013467032357    31.972071174400
         C           -0.081861337319     0.848577580896    -0.013467032357    12.000000000000
         C           -1.603613337319     0.749301480896     0.053816367643    12.000000000000
         H            0.156551662681     1.443422880896     0.876958367643     1.007825032230
         H            0.212086662681     1.439540580896    -0.889764032357     1.007825032230
         H           -2.096249337319     1.686138580896    -0.013467032357     1.007825032230
         H           -1.937988337319     0.155413580896    -0.896883032357     1.007825032230
         H           -1.937988337319     0.155413580896     0.869948967643     1.007825032230

  Basis Set: AUG-CC-PVTZ
    Blend: AUG-CC-PVTZ
  Basis Set: (AUG-CC-PVTZ AUX)
    Blend: AUG-CC-PVTZ-JKFIT
	 Reference Energy          =    -476.2190798433218788 [Eh]
	 Singles Energy            =      -0.0000000000000000 [Eh]
	 Same-Spin Energy          =      -0.1433153293921134 [Eh]
	 Opposite-Spin Energy      =      -0.4901358008894828 [Eh]
	 Correlation Energy        =      -0.6334511302815962 [Eh]
	 Total Energy              =    -476.8525309736034501 [Eh]

	 ================> DF-SCS-MP2 Energies <==================
	-----------------------------------------------------------
	 SCS Same-Spin Scale       =       0.3333333333333333 [-]
	 SCS Opposite-Spin Scale   =       1.2000000000000000 [-]
	 SCS Same-Spin Energy      =      -0.0477717764640378 [Eh]
	 SCS Opposite-Spin Energy  =      -0.5881629610673793 [Eh]
	 SCS Correlation Energy    =      -0.6359347375314172 [Eh]
	 SCS Total Energy          =    -476.8550145808533216 [Eh]
	-----------------------------------------------------------

  Dipole Moment: [D]
     X:    -3.0441      Y:     3.3732      Z:     0.1034     Total:     4.5448

*** Psi4 exiting successfully. Buy a developer a beer!
