                               Psi4 1.3.2 release

  ==> Input File <==

--------------------------------------------------------------------------
#psi4
#
memory 32 gb

molecule  {
-1 1
  S        0.8346466    -0.8487671     0.0000000
  C        0.0000000     0.7834870     0.0000000
  C       -1.5139240     0.5881768     0.0000000
  H        0.2939480     1.3744500     0.8762970
  H        0.2939480     1.3744500    -0.8762970
  H       -2.0143880     1.6210480     0.0000000
  H       -1.8561270     0.0903230    -0.8834160
  H       -1.8561270     0.0903230     0.8834160
units angstrom
no_reorient  #important for SAPT in psi4, default
symmetry c1  #important for SAPT in psi4, default
}

set PROPERTIES_ORIGIN ["COM"]
properties('MP2/aug-cc-pvtz', properties = ['dipole'])
--------------------------------------------------------------------------

    Molecular point group: c1
  Charge       = -1
  Multiplicity = 1
  Basis Set: AUG-CC-PVTZ
    Blend: AUG-CC-PVTZ
  Basis Set: (AUG-CC-PVTZ AUX)
    Blend: AUG-CC-PVTZ-JKFIT

    Orbital Energies [Eh]
    ---------------------

    Doubly Occupied:

       1A    -91.664479     2A    -11.059091     3A    -11.054605
       4A     -8.664529     5A     -6.346101     6A     -6.344454
       7A     -6.344415     8A     -0.859233     9A     -0.698547
      10A     -0.574775    11A     -0.443525    12A     -0.385163
      13A     -0.347116    14A     -0.331306    15A     -0.221903
      16A     -0.087864    17A     -0.087546

  @DF-RHF Final Energy:  -476.22319721568465

   => Energetics <=

    Nuclear Repulsion Energy =             97.6808462572063974
    One-Electron Energy =                -856.7787818587195261
    Two-Electron Energy =                 282.8747383858284365
    Total Energy =                       -476.2231972156846496
  Basis Set: (AUG-CC-PVTZ AUX)
    Blend: AUG-CC-PVTZ-RI
    Molecular point group: c1

    Geometry (in Angstrom), charge = -1, multiplicity = 1:

       Center              X                  Y                   Z               Mass
    ------------   -----------------  -----------------  -----------------  -----------------
         S            0.779913438742    -0.748938308683     0.000000000000    31.972071174400
         C           -0.054733161258     0.883315791317     0.000000000000    12.000000000000
         C           -1.568657161258     0.688005591317     0.000000000000    12.000000000000
         H            0.239214838742     1.474278791317     0.876297000000     1.007825032230
         H            0.239214838742     1.474278791317    -0.876297000000     1.007825032230
         H           -2.069121161258     1.720876791317     0.000000000000     1.007825032230
         H           -1.910860161258     0.190151791317    -0.883416000000     1.007825032230
         H           -1.910860161258     0.190151791317     0.883416000000     1.007825032230

  Basis Set: AUG-CC-PVTZ
    Blend: AUG-CC-PVTZ
  Basis Set: (AUG-CC-PVTZ AUX)
    Blend: AUG-CC-PVTZ-JKFIT
	 Reference Energy          =    -476.2231972156846496 [Eh]
	 Singles Energy            =      -0.0000000000000000 [Eh]
	 Same-Spin Energy          =      -0.1432426542146582 [Eh]
	 Opposite-Spin Energy      =      -0.4898854626488323 [Eh]
	 Correlation Energy        =      -0.6331281168634906 [Eh]
	 Total Energy              =    -476.8563253325481242 [Eh]

	 ================> DF-SCS-MP2 Energies <==================
	-----------------------------------------------------------
	 SCS Same-Spin Scale       =       0.3333333333333333 [-]
	 SCS Opposite-Spin Scale   =       1.2000000000000000 [-]
	 SCS Same-Spin Energy      =      -0.0477475514048861 [Eh]
	 SCS Opposite-Spin Energy  =      -0.5878625551785988 [Eh]
	 SCS Correlation Energy    =      -0.6356101065834848 [Eh]
	 SCS Total Energy          =    -476.8588073222681487 [Eh]
	-----------------------------------------------------------

  Dipole Moment: [D]
     X:    -2.9698      Y:     3.2364      Z:     0.0000     Total:     4.3925

*** Psi4 exiting successfully. Buy a developer a beer!
