                               Psi4 1.3.2 release

  ==> Input File <==

--------------------------------------------------------------------------
#psi4
#
memory 32 gb

molecule  {
-1 1
  S        0.9189283    -0.8028481     0.0000000
  C        0.0000000     0.7834870     0.0000000
  C       -1.5220710     0.6676772     0.0000000
  H        0.2939480     1.3744500     0.8762970
  H        0.2939480     1.3744500    -0.8762970
  H       -2.0143880     1.6210480     0.0000000
  H       -1.8561270     0.0903230    -0.8834160
  H       -1.8561270     0.0903230     0.8834160
units angstrom
no_reorient  #important for SAPT in psi4, default
symmetry c1  #important for SAPT in psi4, default
}

set PROPERTIES_ORIGIN ["COM"]
properties('MP2/aug-cc-pvtz', properties = ['dipole'])
--------------------------------------------------------------------------

    Molecular point group: c1
  Charge       = -1
  Multiplicity = 1
  Basis Set: AUG-CC-PVTZ
    Blend: AUG-CC-PVTZ
  Basis Set: (AUG-CC-PVTZ AUX)
    Blend: AUG-CC-PVTZ-JKFIT

    Orbital Energies [Eh]
    ---------------------

    Doubly Occupied:

       1A    -91.665797     2A    -11.058067     3A    -11.055032
       4A     -8.665618     5A     -6.347202     6A     -6.345539
       7A     -6.345501     8A     -0.858372     9A     -0.701842
      10A     -0.571405    11A     -0.432217    12A     -0.411926
      13A     -0.338819    14A     -0.319060    15A     -0.227403
      16A     -0.089147    17A     -0.087343

  @DF-RHF Final Energy:  -476.22546507969270

   => Energetics <=

    Nuclear Repulsion Energy =             97.0046528538432113
    One-Electron Energy =                -855.4196557643922461
    Two-Electron Energy =                 282.1895378308562954
    Total Energy =                       -476.2254650796926967
  Basis Set: (AUG-CC-PVTZ AUX)
    Blend: AUG-CC-PVTZ-RI
    Molecular point group: c1

    Geometry (in Angstrom), charge = -1, multiplicity = 1:

       Center              X                  Y                   Z               Mass
    ------------   -----------------  -----------------  -----------------  -----------------
         S            0.821630877310    -0.742719076623     0.000000000000    31.972071174400
         C           -0.097297422690     0.843616023377     0.000000000000    12.000000000000
         C           -1.619368422690     0.727806223377     0.000000000000    12.000000000000
         H            0.196650577310     1.434579023377     0.876297000000     1.007825032230
         H            0.196650577310     1.434579023377    -0.876297000000     1.007825032230
         H           -2.111685422690     1.681177023377     0.000000000000     1.007825032230
         H           -1.953424422690     0.150452023377    -0.883416000000     1.007825032230
         H           -1.953424422690     0.150452023377     0.883416000000     1.007825032230

  Basis Set: AUG-CC-PVTZ
    Blend: AUG-CC-PVTZ
  Basis Set: (AUG-CC-PVTZ AUX)
    Blend: AUG-CC-PVTZ-JKFIT
	 Reference Energy          =    -476.2254650796926967 [Eh]
	 Singles Energy            =      -0.0000000000000000 [Eh]
	 Same-Spin Energy          =      -0.1431215431299927 [Eh]
	 Opposite-Spin Energy      =      -0.4896875752286671 [Eh]
	 Correlation Energy        =      -0.6328091183586597 [Eh]
	 Total Energy              =    -476.8582741980513333 [Eh]

	 ================> DF-SCS-MP2 Energies <==================
	-----------------------------------------------------------
	 SCS Same-Spin Scale       =       0.3333333333333333 [-]
	 SCS Opposite-Spin Scale   =       1.2000000000000000 [-]
	 SCS Same-Spin Energy      =      -0.0477071810433309 [Eh]
	 SCS Opposite-Spin Energy  =      -0.5876250902744005 [Eh]
	 SCS Correlation Energy    =      -0.6353322713177314 [Eh]
	 SCS Total Energy          =    -476.8607973510104330 [Eh]
	-----------------------------------------------------------

  Dipole Moment: [D]
     X:    -3.1229      Y:     3.3553      Z:    -0.0000     Total:     4.5837

*** Psi4 exiting successfully. Buy a developer a beer!
