                               Psi4 1.3.2 release

  ==> Input File <==

--------------------------------------------------------------------------
#psi4
#
memory 32 gb

molecule  {
-1 1
  S        0.8911030    -0.8186440     0.0000000
  C        0.0011844     0.7702188     0.0000000
  C       -1.5198180     0.6411310     0.0000000
  H        0.2939480     1.3744500     0.8762970
  H        0.2939480     1.3744500    -0.8762970
  H       -2.0229204     1.6166948     0.0000000
  H       -1.8561270     0.0903230    -0.8834160
  H       -1.8561270     0.0903230     0.8834160
units angstrom
no_reorient  #important for SAPT in psi4, default
symmetry c1  #important for SAPT in psi4, default
}

set PROPERTIES_ORIGIN ["COM"]
properties('MP2/aug-cc-pvtz', properties = ['dipole'])
--------------------------------------------------------------------------

    Molecular point group: c1
  Charge       = -1
  Multiplicity = 1
  Basis Set: AUG-CC-PVTZ
    Blend: AUG-CC-PVTZ
  Basis Set: (AUG-CC-PVTZ AUX)
    Blend: AUG-CC-PVTZ-JKFIT

    Orbital Energies [Eh]
    ---------------------

    Doubly Occupied:

       1A    -91.665142     2A    -11.059219     3A    -11.054401
       4A     -8.665239     5A     -6.346854     6A     -6.345169
       7A     -6.345130     8A     -0.858530     9A     -0.701891
      10A     -0.571705    11A     -0.434185    12A     -0.403490
      13A     -0.339959    14A     -0.320974    15A     -0.228996
      16A     -0.088928    17A     -0.087372

  @DF-RHF Final Energy:  -476.22613580165722

   => Energetics <=

    Nuclear Repulsion Energy =             97.3606055200306173
    One-Electron Energy =                -856.1391178406215658
    Two-Electron Energy =                 282.5523765189337269
    Total Energy =                       -476.2261358016572217
  Basis Set: (AUG-CC-PVTZ AUX)
    Blend: AUG-CC-PVTZ-RI
    Molecular point group: c1

    Geometry (in Angstrom), charge = -1, multiplicity = 1:

       Center              X                  Y                   Z               Mass
    ------------   -----------------  -----------------  -----------------  -----------------
         S            0.807851898146    -0.742334541518     0.000000000000    31.972071174400
         C           -0.082066701854     0.846528258482     0.000000000000    12.000000000000
         C           -1.603069101854     0.717440458482     0.000000000000    12.000000000000
         H            0.210696898146     1.450759458482     0.876297000000     1.007825032230
         H            0.210696898146     1.450759458482    -0.876297000000     1.007825032230
         H           -2.106171501854     1.693004258482     0.000000000000     1.007825032230
         H           -1.939378101854     0.166632458482    -0.883416000000     1.007825032230
         H           -1.939378101854     0.166632458482     0.883416000000     1.007825032230

  Basis Set: AUG-CC-PVTZ
    Blend: AUG-CC-PVTZ
  Basis Set: (AUG-CC-PVTZ AUX)
    Blend: AUG-CC-PVTZ-JKFIT
	 Reference Energy          =    -476.2261358016572217 [Eh]
	 Singles Energy            =      -0.0000000000000000 [Eh]
	 Same-Spin Energy          =      -0.1432266144313733 [Eh]
	 Opposite-Spin Energy      =      -0.4897276732433856 [Eh]
	 Correlation Energy        =      -0.6329542876747589 [Eh]
	 Total Energy              =    -476.8590900893319713 [Eh]

	 ================> DF-SCS-MP2 Energies <==================
	-----------------------------------------------------------
	 SCS Same-Spin Scale       =       0.3333333333333333 [-]
	 SCS Opposite-Spin Scale   =       1.2000000000000000 [-]
	 SCS Same-Spin Energy      =      -0.0477422048104578 [Eh]
	 SCS Opposite-Spin Energy  =      -0.5876732078920627 [Eh]
	 SCS Correlation Energy    =      -0.6354154127025204 [Eh]
	 SCS Total Energy          =    -476.8615512143597357 [Eh]
	-----------------------------------------------------------

  Dipole Moment: [D]
     X:    -3.0572      Y:     3.2873      Z:    -0.0000     Total:     4.4891

*** Psi4 exiting successfully. Buy a developer a beer!
