                               Psi4 1.3.2 release

  ==> Input File <==

--------------------------------------------------------------------------
#psi4
#
memory 32 gb

molecule  {
-1 1
  S        0.8911030    -0.8186440     0.0000000
  C        0.0000000     0.7834870     0.0000000
  C       -1.5198180     0.6411310     0.0000000
  H        0.2939480     1.3744500     0.8762970
  H        0.2939480     1.3744500    -0.8762970
  H       -2.0143880     1.6210480     0.0000000
  H       -1.8561270     0.0903230    -0.8834160
  H       -1.8561270     0.0903230     0.8834160
units angstrom
no_reorient  #important for SAPT in psi4, default
symmetry c1  #important for SAPT in psi4, default
}

set PROPERTIES_ORIGIN ["COM"]
properties('MP2/aug-cc-pvtz', properties = ['dipole'])
--------------------------------------------------------------------------

    Molecular point group: c1
  Charge       = -1
  Multiplicity = 1
  Basis Set: AUG-CC-PVTZ
    Blend: AUG-CC-PVTZ
  Basis Set: (AUG-CC-PVTZ AUX)
    Blend: AUG-CC-PVTZ-JKFIT

    Orbital Energies [Eh]
    ---------------------

    Doubly Occupied:

       1A    -91.665243     2A    -11.058297     3A    -11.054589
       4A     -8.665135     5A     -6.346716     6A     -6.345061
       7A     -6.345023     8A     -0.858454     9A     -0.700510
      10A     -0.572409    11A     -0.435718    12A     -0.402954
      13A     -0.341635    14A     -0.323369    15A     -0.225679
      16A     -0.088621    17A     -0.087408

  @DF-RHF Final Energy:  -476.22637893368818

   => Energetics <=

    Nuclear Repulsion Energy =             97.2180574934623252
    One-Electron Energy =                -855.8552284992808836
    Two-Electron Energy =                 282.4107920721303913
    Total Energy =                       -476.2263789336881814
  Basis Set: (AUG-CC-PVTZ AUX)
    Blend: AUG-CC-PVTZ-RI
    Molecular point group: c1

    Geometry (in Angstrom), charge = -1, multiplicity = 1:

       Center              X                  Y                   Z               Mass
    ------------   -----------------  -----------------  -----------------  -----------------
         S            0.807943908040    -0.745016109390     0.000000000000    31.972071174400
         C           -0.083159091960     0.857114890610     0.000000000000    12.000000000000
         C           -1.602977091960     0.714758890610     0.000000000000    12.000000000000
         H            0.210788908040     1.448077890610     0.876297000000     1.007825032230
         H            0.210788908040     1.448077890610    -0.876297000000     1.007825032230
         H           -2.097547091960     1.694675890610     0.000000000000     1.007825032230
         H           -1.939286091960     0.163950890610    -0.883416000000     1.007825032230
         H           -1.939286091960     0.163950890610     0.883416000000     1.007825032230

  Basis Set: AUG-CC-PVTZ
    Blend: AUG-CC-PVTZ
  Basis Set: (AUG-CC-PVTZ AUX)
    Blend: AUG-CC-PVTZ-JKFIT
	 Reference Energy          =    -476.2263789336881814 [Eh]
	 Singles Energy            =      -0.0000000000000000 [Eh]
	 Same-Spin Energy          =      -0.1431281769650918 [Eh]
	 Opposite-Spin Energy      =      -0.4896688292134894 [Eh]
	 Correlation Energy        =      -0.6327970061785813 [Eh]
	 Total Energy              =    -476.8591759398667591 [Eh]

	 ================> DF-SCS-MP2 Energies <==================
	-----------------------------------------------------------
	 SCS Same-Spin Scale       =       0.3333333333333333 [-]
	 SCS Opposite-Spin Scale   =       1.2000000000000000 [-]
	 SCS Same-Spin Energy      =      -0.0477093923216973 [Eh]
	 SCS Opposite-Spin Energy  =      -0.5876025950561873 [Eh]
	 SCS Correlation Energy    =      -0.6353119873778845 [Eh]
	 SCS Total Energy          =    -476.8616909210660424 [Eh]
	-----------------------------------------------------------

  Dipole Moment: [D]
     X:    -3.0826      Y:     3.3237      Z:     0.0000     Total:     4.5332

*** Psi4 exiting successfully. Buy a developer a beer!
