                               Psi4 1.3.2 release

  ==> Input File <==

--------------------------------------------------------------------------
#psi4
#
memory 32 gb

molecule  {
-1 1
  S        0.8610645    -0.8340735    -0.0543539
  C        0.0000000     0.7834870     0.0000000
  C       -1.5198180     0.6411310     0.0000000
  H        0.2702605     1.4022069     0.8646873
  H        0.2939480     1.3744500    -0.8762970
  H       -2.0143880     1.6210480     0.0000000
  H       -1.8561270     0.0903230    -0.8834160
  H       -1.8561270     0.0903230     0.8834160
units angstrom
no_reorient  #important for SAPT in psi4, default
symmetry c1  #important for SAPT in psi4, default
}

set PROPERTIES_ORIGIN ["COM"]
properties('MP2/aug-cc-pvtz', properties = ['dipole'])
--------------------------------------------------------------------------

    Molecular point group: c1
  Charge       = -1
  Multiplicity = 1
  Basis Set: AUG-CC-PVTZ
    Blend: AUG-CC-PVTZ
  Basis Set: (AUG-CC-PVTZ AUX)
    Blend: AUG-CC-PVTZ-JKFIT

    Orbital Energies [Eh]
    ---------------------

    Doubly Occupied:

       1A    -91.665756     2A    -11.058299     3A    -11.053458
       4A     -8.665616     5A     -6.347196     6A     -6.345538
       7A     -6.345501     8A     -0.858509     9A     -0.698871
      10A     -0.574545    11A     -0.434540    12A     -0.402191
      13A     -0.340336    14A     -0.321359    15A     -0.227093
      16A     -0.089003    17A     -0.087895

  @DF-RHF Final Energy:  -476.22581868443001

   => Energetics <=

    Nuclear Repulsion Energy =             97.3360359914440778
    One-Electron Energy =                -856.0922951720597212
    Two-Electron Energy =                 282.5304404961856335
    Total Energy =                       -476.2258186844300099
  Basis Set: (AUG-CC-PVTZ AUX)
    Blend: AUG-CC-PVTZ-RI
    Molecular point group: c1

    Geometry (in Angstrom), charge = -1, multiplicity = 1:

       Center              X                  Y                   Z               Mass
    ------------   -----------------  -----------------  -----------------  -----------------
         S            0.794037953778    -0.752818501556    -0.025678715595    31.972071174400
         C           -0.067026546222     0.864741998444     0.028675184405    12.000000000000
         C           -1.586844546222     0.722385998444     0.028675184405    12.000000000000
         H            0.203233953778     1.483461898444     0.893362484405     1.007825032230
         H            0.226921453778     1.455704998444    -0.847621815595     1.007825032230
         H           -2.081414546222     1.702302998444     0.028675184405     1.007825032230
         H           -1.923153546222     0.171577998444    -0.854740815595     1.007825032230
         H           -1.923153546222     0.171577998444     0.912091184405     1.007825032230

  Basis Set: AUG-CC-PVTZ
    Blend: AUG-CC-PVTZ
  Basis Set: (AUG-CC-PVTZ AUX)
    Blend: AUG-CC-PVTZ-JKFIT
	 Reference Energy          =    -476.2258186844300099 [Eh]
	 Singles Energy            =      -0.0000000000000000 [Eh]
	 Same-Spin Energy          =      -0.1431928371169060 [Eh]
	 Opposite-Spin Energy      =      -0.4897828011240421 [Eh]
	 Correlation Energy        =      -0.6329756382409482 [Eh]
	 Total Energy              =    -476.8587943226709740 [Eh]

	 ================> DF-SCS-MP2 Energies <==================
	-----------------------------------------------------------
	 SCS Same-Spin Scale       =       0.3333333333333333 [-]
	 SCS Opposite-Spin Scale   =       1.2000000000000000 [-]
	 SCS Same-Spin Energy      =      -0.0477309457056353 [Eh]
	 SCS Opposite-Spin Energy  =      -0.5877393613488505 [Eh]
	 SCS Correlation Energy    =      -0.6354703070544858 [Eh]
	 SCS Total Energy          =    -476.8612889914845141 [Eh]
	-----------------------------------------------------------

  Dipole Moment: [D]
     X:    -3.0252      Y:     3.3166      Z:     0.0681     Total:     4.4896

*** Psi4 exiting successfully. Buy a developer a beer!
