                               Psi4 1.3.2 release

  ==> Input File <==

--------------------------------------------------------------------------
#psi4
#
memory 32 gb

molecule  {
-1 1
  S        0.8911030    -0.8186440     0.0000000
  C        0.0000000     0.7834870     0.0000000
  C       -1.5198180     0.6411310     0.0000000
  H        0.2939480     1.3744500     0.8762970
  H        0.2939480     1.3744500    -0.8762970
  H       -1.9960496     1.6295545     0.0325461
  H       -1.8339813     0.0610838    -0.8727908
  H       -1.8561270     0.0903230     0.8834160
units angstrom
no_reorient  #important for SAPT in psi4, default
symmetry c1  #important for SAPT in psi4, default
}

set PROPERTIES_ORIGIN ["COM"]
properties('MP2/aug-cc-pvtz', properties = ['dipole'])
--------------------------------------------------------------------------

    Molecular point group: c1
  Charge       = -1
  Multiplicity = 1
  Basis Set: AUG-CC-PVTZ
    Blend: AUG-CC-PVTZ
  Basis Set: (AUG-CC-PVTZ AUX)
    Blend: AUG-CC-PVTZ-JKFIT

    Orbital Energies [Eh]
    ---------------------

    Doubly Occupied:

       1A    -91.665190     2A    -11.057916     3A    -11.054394
       4A     -8.665085     5A     -6.346665     6A     -6.345015
       7A     -6.344977     8A     -0.858827     9A     -0.699661
      10A     -0.572340    11A     -0.435483    12A     -0.405089
      13A     -0.341430    14A     -0.321869    15A     -0.225465
      16A     -0.088575    17A     -0.087405

  @DF-RHF Final Energy:  -476.22596329463380

   => Energetics <=

    Nuclear Repulsion Energy =             97.2709651917207623
    One-Electron Energy =                -855.9630827569914118
    Two-Electron Energy =                 282.4661542706368778
    Total Energy =                       -476.2259632946338002
  Basis Set: (AUG-CC-PVTZ AUX)
    Blend: AUG-CC-PVTZ-RI
    Molecular point group: c1

    Geometry (in Angstrom), charge = -1, multiplicity = 1:

       Center              X                  Y                   Z               Mass
    ------------   -----------------  -----------------  -----------------  -----------------
         S            0.807275163747    -0.744673632348    -0.000713133317    31.972071174400
         C           -0.083827836253     0.857457367652    -0.000713133317    12.000000000000
         C           -1.603645836253     0.715101367652    -0.000713133317    12.000000000000
         H            0.210120163747     1.448420367652     0.875583866683     1.007825032230
         H            0.210120163747     1.448420367652    -0.877010133317     1.007825032230
         H           -2.079877436253     1.703524867652     0.031832966683     1.007825032230
         H           -1.917809136253     0.135054167652    -0.873503933317     1.007825032230
         H           -1.939954836253     0.164293367652     0.882702866683     1.007825032230

  Basis Set: AUG-CC-PVTZ
    Blend: AUG-CC-PVTZ
  Basis Set: (AUG-CC-PVTZ AUX)
    Blend: AUG-CC-PVTZ-JKFIT
	 Reference Energy          =    -476.2259632946338002 [Eh]
	 Singles Energy            =      -0.0000000000000000 [Eh]
	 Same-Spin Energy          =      -0.1431988266756797 [Eh]
	 Opposite-Spin Energy      =      -0.4897552789195718 [Eh]
	 Correlation Energy        =      -0.6329541055952516 [Eh]
	 Total Energy              =    -476.8589174002290747 [Eh]

	 ================> DF-SCS-MP2 Energies <==================
	-----------------------------------------------------------
	 SCS Same-Spin Scale       =       0.3333333333333333 [-]
	 SCS Opposite-Spin Scale   =       1.2000000000000000 [-]
	 SCS Same-Spin Energy      =      -0.0477329422252266 [Eh]
	 SCS Opposite-Spin Energy  =      -0.5877063347034862 [Eh]
	 SCS Correlation Energy    =      -0.6354392769287128 [Eh]
	 SCS Total Energy          =    -476.8614025715625075 [Eh]
	-----------------------------------------------------------

  Dipole Moment: [D]
     X:    -3.0713      Y:     3.3199      Z:     0.0206     Total:     4.5227

*** Psi4 exiting successfully. Buy a developer a beer!
