                               Psi4 1.3.2 release

  ==> Input File <==

--------------------------------------------------------------------------
#psi4
#
memory 32 gb

molecule  {
-1 1
  S        0.8911030    -0.8186440     0.0000000
  C       -0.0027159     0.8099898     0.0000000
  C       -1.5198180     0.6411310     0.0000000
  H        0.2939480     1.3744500     0.8762970
  H        0.2939480     1.3744500    -0.8762970
  H       -1.9972108     1.6295302     0.0000000
  H       -1.8561270     0.0903230    -0.8834160
  H       -1.8561270     0.0903230     0.8834160
units angstrom
no_reorient  #important for SAPT in psi4, default
symmetry c1  #important for SAPT in psi4, default
}

set PROPERTIES_ORIGIN ["COM"]
properties('MP2/aug-cc-pvtz', properties = ['dipole'])
--------------------------------------------------------------------------

    Molecular point group: c1
  Charge       = -1
  Multiplicity = 1
  Basis Set: AUG-CC-PVTZ
    Blend: AUG-CC-PVTZ
  Basis Set: (AUG-CC-PVTZ AUX)
    Blend: AUG-CC-PVTZ-JKFIT

    Orbital Energies [Eh]
    ---------------------

    Doubly Occupied:

       1A    -91.665451     2A    -11.056670     3A    -11.055005
       4A     -8.664962     5A     -6.346478     6A     -6.344875
       7A     -6.344841     8A     -0.858464     9A     -0.698036
      10A     -0.573662    11A     -0.439012    12A     -0.402034
      13A     -0.344835    14A     -0.328051    15A     -0.218935
      16A     -0.088025    17A     -0.087444

  @DF-RHF Final Energy:  -476.22589309365253

   => Energetics <=

    Nuclear Repulsion Energy =             96.9372562064122292
    One-Electron Energy =                -855.2927338702040743
    Two-Electron Energy =                 282.1295845701392864
    Total Energy =                       -476.2258930936525303
  Basis Set: (AUG-CC-PVTZ AUX)
    Blend: AUG-CC-PVTZ-RI
    Molecular point group: c1

    Geometry (in Angstrom), charge = -1, multiplicity = 1:

       Center              X                  Y                   Z               Mass
    ------------   -----------------  -----------------  -----------------  -----------------
         S            0.808194340564    -0.750368933021     0.000000000000    31.972071174400
         C           -0.085624559436     0.878264866979     0.000000000000    12.000000000000
         C           -1.602726659436     0.709406066979     0.000000000000    12.000000000000
         H            0.211039340564     1.442725066979     0.876297000000     1.007825032230
         H            0.211039340564     1.442725066979    -0.876297000000     1.007825032230
         H           -2.080119459436     1.697805266979     0.000000000000     1.007825032230
         H           -1.939035659436     0.158598066979    -0.883416000000     1.007825032230
         H           -1.939035659436     0.158598066979     0.883416000000     1.007825032230

  Basis Set: AUG-CC-PVTZ
    Blend: AUG-CC-PVTZ
  Basis Set: (AUG-CC-PVTZ AUX)
    Blend: AUG-CC-PVTZ-JKFIT
	 Reference Energy          =    -476.2258930936525303 [Eh]
	 Singles Energy            =      -0.0000000000000000 [Eh]
	 Same-Spin Energy          =      -0.1429749583769220 [Eh]
	 Opposite-Spin Energy      =      -0.4896208639964783 [Eh]
	 Correlation Energy        =      -0.6325958223734003 [Eh]
	 Total Energy              =    -476.8584889160259195 [Eh]

	 ================> DF-SCS-MP2 Energies <==================
	-----------------------------------------------------------
	 SCS Same-Spin Scale       =       0.3333333333333333 [-]
	 SCS Opposite-Spin Scale   =       1.2000000000000000 [-]
	 SCS Same-Spin Energy      =      -0.0476583194589740 [Eh]
	 SCS Opposite-Spin Energy  =      -0.5875450367957740 [Eh]
	 SCS Correlation Energy    =      -0.6352033562547480 [Eh]
	 SCS Total Energy          =    -476.8610964499072793 [Eh]
	-----------------------------------------------------------

  Dipole Moment: [D]
     X:    -3.1318      Y:     3.3911      Z:     0.0000     Total:     4.6160

*** Psi4 exiting successfully. Buy a developer a beer!
