                               Psi4 1.3.2 release

  ==> Input File <==

--------------------------------------------------------------------------
#psi4
#
memory 32 gb

molecule  {
-1 1
  S        0.8911030    -0.8186440     0.0000000
  C        0.0000000     0.7834870     0.0000000
  C       -1.5198180     0.6411310     0.0000000
  H        0.2939480     1.3744500     0.8762970
  H        0.2939480     1.3744500    -0.8762970
  H       -2.0407591     1.6060533    -0.0488068
  H       -1.8885690     0.1354287    -0.8973321
  H       -1.8561270     0.0903230     0.8834160
units angstrom
no_reorient  #important for SAPT in psi4, default
symmetry c1  #important for SAPT in psi4, default
}

set PROPERTIES_ORIGIN ["COM"]
properties('MP2/aug-cc-pvtz', properties = ['dipole'])
--------------------------------------------------------------------------

    Molecular point group: c1
  Charge       = -1
  Multiplicity = 1
  Basis Set: AUG-CC-PVTZ
    Blend: AUG-CC-PVTZ
  Basis Set: (AUG-CC-PVTZ AUX)
    Blend: AUG-CC-PVTZ-JKFIT

    Orbital Energies [Eh]
    ---------------------

    Doubly Occupied:

       1A    -91.665337     2A    -11.058919     3A    -11.054923
       4A     -8.665228     5A     -6.346810     6A     -6.345147
       7A     -6.345109     8A     -0.858087     9A     -0.702011
      10A     -0.572621    11A     -0.438018    12A     -0.398594
      13A     -0.341342    14A     -0.324806    15A     -0.225801
      16A     -0.088719    17A     -0.087432

  @DF-RHF Final Energy:  -476.22530460889720

   => Energetics <=

    Nuclear Repulsion Energy =             97.1448440790365595
    One-Electron Energy =                -855.7024878679389985
    Two-Electron Energy =                 282.3323391800051922
    Total Energy =                       -476.2253046088972042
  Basis Set: (AUG-CC-PVTZ AUX)
    Blend: AUG-CC-PVTZ-RI
    Molecular point group: c1

    Geometry (in Angstrom), charge = -1, multiplicity = 1:

       Center              X                  Y                   Z               Mass
    ------------   -----------------  -----------------  -----------------  -----------------
         S            0.808915423401    -0.745513503661     0.001036100134    31.972071174400
         C           -0.082187576599     0.856617496339     0.001036100134    12.000000000000
         C           -1.602005576599     0.714261496339     0.001036100134    12.000000000000
         H            0.211760423401     1.447580496339     0.877333100134     1.007825032230
         H            0.211760423401     1.447580496339    -0.875260899866     1.007825032230
         H           -2.122946676599     1.679183796339    -0.047770699866     1.007825032230
         H           -1.970756576599     0.208559196339    -0.896295999866     1.007825032230
         H           -1.938314576599     0.163453496339     0.884452100134     1.007825032230

  Basis Set: AUG-CC-PVTZ
    Blend: AUG-CC-PVTZ
  Basis Set: (AUG-CC-PVTZ AUX)
    Blend: AUG-CC-PVTZ-JKFIT
	 Reference Energy          =    -476.2253046088972042 [Eh]
	 Singles Energy            =      -0.0000000000000000 [Eh]
	 Same-Spin Energy          =      -0.1431054424764055 [Eh]
	 Opposite-Spin Energy      =      -0.4896514888479261 [Eh]
	 Correlation Energy        =      -0.6327569313243315 [Eh]
	 Total Energy              =    -476.8580615402215130 [Eh]

	 ================> DF-SCS-MP2 Energies <==================
	-----------------------------------------------------------
	 SCS Same-Spin Scale       =       0.3333333333333333 [-]
	 SCS Opposite-Spin Scale   =       1.2000000000000000 [-]
	 SCS Same-Spin Energy      =      -0.0477018141588018 [Eh]
	 SCS Opposite-Spin Energy  =      -0.5875817866175113 [Eh]
	 SCS Correlation Energy    =      -0.6352836007763131 [Eh]
	 SCS Total Energy          =    -476.8605882096734945 [Eh]
	-----------------------------------------------------------

  Dipole Moment: [D]
     X:    -3.0971      Y:     3.3277      Z:    -0.0308     Total:     4.5460

*** Psi4 exiting successfully. Buy a developer a beer!
