                               Psi4 1.3.2 release

  ==> Input File <==

--------------------------------------------------------------------------
#psi4
#
memory 32 gb

molecule  {
-1 1
  S        0.8911030    -0.8186440     0.0000000
  C        0.0000000     0.7834870     0.0000000
  C       -1.5198180     0.6411310     0.0000000
  H        0.2939480     1.3744500     0.8762970
  H        0.2939480     1.3744500    -0.8762970
  H       -2.0052927     1.6254512     0.0162755
  H       -1.8451037     0.0756173    -0.8782371
  H       -1.8561270     0.0903230     0.8834160
units angstrom
no_reorient  #important for SAPT in psi4, default
symmetry c1  #important for SAPT in psi4, default
}

set PROPERTIES_ORIGIN ["COM"]
properties('MP2/aug-cc-pvtz', properties = ['dipole'])
--------------------------------------------------------------------------

    Molecular point group: c1
  Charge       = -1
  Multiplicity = 1
  Basis Set: AUG-CC-PVTZ
    Blend: AUG-CC-PVTZ
  Basis Set: (AUG-CC-PVTZ AUX)
    Blend: AUG-CC-PVTZ-JKFIT

    Orbital Energies [Eh]
    ---------------------

    Doubly Occupied:

       1A    -91.665215     2A    -11.058103     3A    -11.054489
       4A     -8.665109     5A     -6.346689     6A     -6.345037
       7A     -6.344999     8A     -0.858628     9A     -0.700072
      10A     -0.572367    11A     -0.435454    12A     -0.404128
      13A     -0.341563    14A     -0.322671    15A     -0.225584
      16A     -0.088595    17A     -0.087405

  @DF-RHF Final Energy:  -476.22628192006283

   => Energetics <=

    Nuclear Repulsion Energy =             97.2441050775303921
    One-Electron Energy =                -855.9085582191373760
    Two-Electron Energy =                 282.4381712215441098
    Total Energy =                       -476.2262819200628314
  Basis Set: (AUG-CC-PVTZ AUX)
    Blend: AUG-CC-PVTZ-RI
    Molecular point group: c1

    Geometry (in Angstrom), charge = -1, multiplicity = 1:

       Center              X                  Y                   Z               Mass
    ------------   -----------------  -----------------  -----------------  -----------------
         S            0.807611575126    -0.744845925587    -0.000354398580    31.972071174400
         C           -0.083491424874     0.857285074413    -0.000354398580    12.000000000000
         C           -1.603309424874     0.714929074413    -0.000354398580    12.000000000000
         H            0.210456575126     1.448248074413     0.875942601420     1.007825032230
         H            0.210456575126     1.448248074413    -0.876651398580     1.007825032230
         H           -2.088784124874     1.699249274413     0.015921101420     1.007825032230
         H           -1.928595124874     0.149415374413    -0.878591498580     1.007825032230
         H           -1.939618424874     0.164121074413     0.883061601420     1.007825032230

  Basis Set: AUG-CC-PVTZ
    Blend: AUG-CC-PVTZ
  Basis Set: (AUG-CC-PVTZ AUX)
    Blend: AUG-CC-PVTZ-JKFIT
	 Reference Energy          =    -476.2262819200628314 [Eh]
	 Singles Energy            =      -0.0000000000000000 [Eh]
	 Same-Spin Energy          =      -0.1431580979639265 [Eh]
	 Opposite-Spin Energy      =      -0.4897049840838678 [Eh]
	 Correlation Energy        =      -0.6328630820477943 [Eh]
	 Total Energy              =    -476.8591450021106084 [Eh]

	 ================> DF-SCS-MP2 Energies <==================
	-----------------------------------------------------------
	 SCS Same-Spin Scale       =       0.3333333333333333 [-]
	 SCS Opposite-Spin Scale   =       1.2000000000000000 [-]
	 SCS Same-Spin Energy      =      -0.0477193659879755 [Eh]
	 SCS Opposite-Spin Energy  =      -0.5876459809006412 [Eh]
	 SCS Correlation Energy    =      -0.6353653468886167 [Eh]
	 SCS Total Energy          =    -476.8616472669514224 [Eh]
	-----------------------------------------------------------

  Dipole Moment: [D]
     X:    -3.0772      Y:     3.3220      Z:     0.0103     Total:     4.5282

*** Psi4 exiting successfully. Buy a developer a beer!
