                               Psi4 1.4a3.dev225

  ==> Input File <==

--------------------------------------------------------------------------
#psi4
#
memory 32 gb

molecule  {
-1 1
  S        1.1996750    -0.1541640    -0.0000130
  C       -0.4711795     0.6494900     0.0000072
  C       -1.6097280    -0.3542770     0.0000150
  H       -0.5544580     1.2923370     0.8763950
  H       -0.5544760     1.2923430    -0.8763740
  H       -2.5798990     0.1588220     0.0000240
  H       -1.5643380    -0.9980720    -0.8832230
  H       -1.5643230    -0.9980760     0.8832490
units angstrom
no_reorient  #important for SAPT in psi4, default
symmetry c1  #important for SAPT in psi4, default
}

set PROPERTIES_ORIGIN ["COM"]
properties('MP2/aug-cc-pvtz', properties = ['dipole'])
--------------------------------------------------------------------------

    Molecular point group: c1
  Charge       = -1
  Multiplicity = 1
  Basis Set: AUG-CC-PVTZ
    Blend: AUG-CC-PVTZ
  Basis Set: (AUG-CC-PVTZ AUX)
    Blend: AUG-CC-PVTZ-JKFIT

    Orbital Energies [Eh]
    ---------------------

    Doubly Occupied:

       1A    -91.665547     2A    -11.057195     3A    -11.054529
       4A     -8.665113     5A     -6.346638     6A     -6.345024
       7A     -6.344990     8A     -0.859829     9A     -0.698171
      10A     -0.573053    11A     -0.438227    12A     -0.403115
      13A     -0.345723    14A     -0.325253    15A     -0.220077
      16A     -0.088435    17A     -0.087382

  @DF-RHF Final Energy:  -476.22613583410441

   => Energetics <=

    Nuclear Repulsion Energy =             97.0513385609782659
    One-Electron Energy =                -855.5183498622376419
    Two-Electron Energy =                 282.2408754671549787
    Total Energy =                       -476.2261358341044115
  Basis Set: (AUG-CC-PVTZ AUX)
    Blend: AUG-CC-PVTZ-RI
    Molecular point group: c1

    Geometry (in Angstrom), charge = -1, multiplicity = 1:

       Center              X                  Y                   Z               Mass
    ------------   -----------------  -----------------  -----------------  -----------------
         S            1.092901755626    -0.143785834197    -0.000011726769    31.972071174400
         C           -0.577952744374     0.659868165803     0.000008473231    12.000000000000
         C           -1.716501244374    -0.343898834197     0.000016273231    12.000000000000
         H           -0.661231244374     1.302715165803     0.876396273231     1.007825032230
         H           -0.661249244374     1.302721165803    -0.876372726769     1.007825032230
         H           -2.686672244374     0.169200165803     0.000025273231     1.007825032230
         H           -1.671111244374    -0.987693834197    -0.883221726769     1.007825032230
         H           -1.671096244374    -0.987697834197     0.883250273231     1.007825032230

  Basis Set: AUG-CC-PVTZ
    Blend: AUG-CC-PVTZ
  Basis Set: (AUG-CC-PVTZ AUX)
    Blend: AUG-CC-PVTZ-JKFIT
	 Reference Energy          =    -476.2261358341044115 [Eh]
	 Singles Energy            =      -0.0000000000000000 [Eh]
	 Same-Spin Energy          =      -0.1430401773638605 [Eh]
	 Opposite-Spin Energy      =      -0.4896468943414223 [Eh]
	 Correlation Energy        =      -0.6326870717052828 [Eh]
	 Total Energy              =    -476.8588229058096886 [Eh]

	 ================> DF-SCS-MP2 Energies <==================
	-----------------------------------------------------------
	 SCS Same-Spin Scale       =       0.3333333333333333 [-]
	 SCS Opposite-Spin Scale   =       1.2000000000000000 [-]
	 SCS Same-Spin Energy      =      -0.0476800591212868 [Eh]
	 SCS Opposite-Spin Energy  =      -0.5875762732097067 [Eh]
	 SCS Correlation Energy    =      -0.6352563323309935 [Eh]
	 SCS Total Energy          =    -476.8613921664353938 [Eh]
	-----------------------------------------------------------

  Dipole Moment: [D]
     X:    -4.5055      Y:     0.9443      Z:     0.0000     Total:     4.6034

*** Psi4 exiting successfully. Buy a developer a beer!
