                               Psi4 1.3.2 release

  ==> Input File <==

--------------------------------------------------------------------------
#psi4
#
memory 32 gb

molecule  {
-1 1
  S        0.8911030    -0.8186440     0.0000000
  C        0.0000000     0.7834870     0.0000000
  C       -1.5198180     0.6411310     0.0000000
  H        0.3475364     1.4821858     1.0360508
  H        0.2939480     1.3744500    -0.8762970
  H       -2.0143880     1.6210480     0.0000000
  H       -1.8561270     0.0903230    -0.8834160
  H       -1.8561270     0.0903230     0.8834160
units angstrom
no_reorient  #important for SAPT in psi4, default
symmetry c1  #important for SAPT in psi4, default
}

set PROPERTIES_ORIGIN ["COM"]
properties('MP2/aug-cc-pvtz', properties = ['dipole'])
--------------------------------------------------------------------------

    Molecular point group: c1
  Charge       = -1
  Multiplicity = 1
  Basis Set: AUG-CC-PVTZ
    Blend: AUG-CC-PVTZ
  Basis Set: (AUG-CC-PVTZ AUX)
    Blend: AUG-CC-PVTZ-JKFIT

    Orbital Energies [Eh]
    ---------------------

    Doubly Occupied:

       1A    -91.668843     2A    -11.083677     3A    -11.057730
       4A     -8.668695     5A     -6.350260     6A     -6.348585
       7A     -6.348551     8A     -0.854991     9A     -0.698103
      10A     -0.563734    11A     -0.426377    12A     -0.404692
      13A     -0.342440    14A     -0.303320    15A     -0.228053
      16A     -0.091554    17A     -0.089002

  @DF-RHF Final Energy:  -476.20824149664156

   => Energetics <=

    Nuclear Repulsion Energy =             96.4263333942367495
    One-Electron Energy =                -854.2119328870711570
    Two-Electron Energy =                 281.5773579961928590
    Total Energy =                       -476.2082414966415627
  Basis Set: (AUG-CC-PVTZ AUX)
    Blend: AUG-CC-PVTZ-RI
    Molecular point group: c1

    Geometry (in Angstrom), charge = -1, multiplicity = 1:

       Center              X                  Y                   Z               Mass
    ------------   -----------------  -----------------  -----------------  -----------------
         S            0.807058697879    -0.746795763660    -0.002638923481    31.972071174400
         C           -0.084044302121     0.855335236340    -0.002638923481    12.000000000000
         C           -1.603862302121     0.712979236340    -0.002638923481    12.000000000000
         H            0.263492097879     1.554034036340     1.033411876519     1.007825032230
         H            0.209903697879     1.446298236340    -0.878935923481     1.007825032230
         H           -2.098432302121     1.692896236340    -0.002638923481     1.007825032230
         H           -1.940171302121     0.162171236340    -0.886054923481     1.007825032230
         H           -1.940171302121     0.162171236340     0.880777076519     1.007825032230

  Basis Set: AUG-CC-PVTZ
    Blend: AUG-CC-PVTZ
  Basis Set: (AUG-CC-PVTZ AUX)
    Blend: AUG-CC-PVTZ-JKFIT
	 Reference Energy          =    -476.2082414966415627 [Eh]
	 Singles Energy            =      -0.0000000000000000 [Eh]
	 Same-Spin Energy          =      -0.1431572341294881 [Eh]
	 Opposite-Spin Energy      =      -0.4911069145007188 [Eh]
	 Correlation Energy        =      -0.6342641486302069 [Eh]
	 Total Energy              =    -476.8425056452717854 [Eh]

	 ================> DF-SCS-MP2 Energies <==================
	-----------------------------------------------------------
	 SCS Same-Spin Scale       =       0.3333333333333333 [-]
	 SCS Opposite-Spin Scale   =       1.2000000000000000 [-]
	 SCS Same-Spin Energy      =      -0.0477190780431627 [Eh]
	 SCS Opposite-Spin Energy  =      -0.5893282974008626 [Eh]
	 SCS Correlation Energy    =      -0.6370473754440252 [Eh]
	 SCS Total Energy          =    -476.8452888720855753 [Eh]
	-----------------------------------------------------------

  Dipole Moment: [D]
     X:    -3.0778      Y:     2.9732      Z:    -0.1844     Total:     4.2833

*** Psi4 exiting successfully. Buy a developer a beer!
