                               Psi4 1.3.2 release

  ==> Input File <==

--------------------------------------------------------------------------
#psi4
#
memory 32 gb

molecule  {
-1 1
  S        0.8911030    -0.8186440     0.0000000
  C        0.0053675     0.7037508     0.0000000
  C       -1.5198180     0.6411310     0.0000000
  H        0.2939480     1.3744500     0.8762970
  H        0.2939480     1.3744500    -0.8762970
  H       -2.0649951     1.5938213     0.0000000
  H       -1.8561270     0.0903230    -0.8834160
  H       -1.8561270     0.0903230     0.8834160
units angstrom
no_reorient  #important for SAPT in psi4, default
symmetry c1  #important for SAPT in psi4, default
}

set PROPERTIES_ORIGIN ["COM"]
properties('MP2/aug-cc-pvtz', properties = ['dipole'])
--------------------------------------------------------------------------

    Molecular point group: c1
  Charge       = -1
  Multiplicity = 1
  Basis Set: AUG-CC-PVTZ
    Blend: AUG-CC-PVTZ
  Basis Set: (AUG-CC-PVTZ AUX)
    Blend: AUG-CC-PVTZ-JKFIT

    Orbital Energies [Eh]
    ---------------------

    Doubly Occupied:

       1A    -91.664713     2A    -11.064744     3A    -11.053754
       4A     -8.665980     5A     -6.347783     6A     -6.345916
       7A     -6.345869     8A     -0.859764     9A     -0.710215
      10A     -0.567457    11A     -0.427646    12A     -0.406606
      13A     -0.331239    14A     -0.308713    15A     -0.244868
      16A     -0.090545    17A     -0.086957

  @DF-RHF Final Energy:  -476.21989029286135

   => Energetics <=

    Nuclear Repulsion Energy =             98.0952071902677574
    One-Electron Energy =                -857.5846549677847861
    Two-Electron Energy =                 283.2695574846557065
    Total Energy =                       -476.2198902928613506
  Basis Set: (AUG-CC-PVTZ AUX)
    Blend: AUG-CC-PVTZ-RI
    Molecular point group: c1

    Geometry (in Angstrom), charge = -1, multiplicity = 1:

       Center              X                  Y                   Z               Mass
    ------------   -----------------  -----------------  -----------------  -----------------
         S            0.807724163164    -0.728883428687     0.000000000000    31.972071174400
         C           -0.078011336836     0.793511371313     0.000000000000    12.000000000000
         C           -1.603196836836     0.730891571313     0.000000000000    12.000000000000
         H            0.210569163164     1.464210571313     0.876297000000     1.007825032230
         H            0.210569163164     1.464210571313    -0.876297000000     1.007825032230
         H           -2.148373936836     1.683581871313     0.000000000000     1.007825032230
         H           -1.939505836836     0.180083571313    -0.883416000000     1.007825032230
         H           -1.939505836836     0.180083571313     0.883416000000     1.007825032230

  Basis Set: AUG-CC-PVTZ
    Blend: AUG-CC-PVTZ
  Basis Set: (AUG-CC-PVTZ AUX)
    Blend: AUG-CC-PVTZ-JKFIT
	 Reference Energy          =    -476.2198902928613506 [Eh]
	 Singles Energy            =      -0.0000000000000000 [Eh]
	 Same-Spin Energy          =      -0.1439384419158666 [Eh]
	 Opposite-Spin Energy      =      -0.4903712284893665 [Eh]
	 Correlation Energy        =      -0.6343096704052331 [Eh]
	 Total Energy              =    -476.8541999632665807 [Eh]

	 ================> DF-SCS-MP2 Energies <==================
	-----------------------------------------------------------
	 SCS Same-Spin Scale       =       0.3333333333333333 [-]
	 SCS Opposite-Spin Scale   =       1.2000000000000000 [-]
	 SCS Same-Spin Energy      =      -0.0479794806386222 [Eh]
	 SCS Opposite-Spin Energy  =      -0.5884454741872398 [Eh]
	 SCS Correlation Energy    =      -0.6364249548258620 [Eh]
	 SCS Total Energy          =    -476.8563152476872347 [Eh]
	-----------------------------------------------------------

  Dipole Moment: [D]
     X:    -2.9207      Y:     3.0737      Z:    -0.0000     Total:     4.2401

*** Psi4 exiting successfully. Buy a developer a beer!
