                               Psi4 1.3.2 release

  ==> Input File <==

--------------------------------------------------------------------------
#psi4
#
memory 32 gb

molecule  {
-1 1
  S        0.8911030    -0.8186440     0.0000000
  C        0.0000000     0.7834870     0.0000000
  C       -1.5209260     0.6554534     0.0224369
  H        0.2755184     1.3759247     0.8812754
  H        0.2939480     1.3744500    -0.8762970
  H       -2.0143880     1.6210480     0.0000000
  H       -1.8561270     0.0903230    -0.8834160
  H       -1.8561270     0.0903230     0.8834160
units angstrom
no_reorient  #important for SAPT in psi4, default
symmetry c1  #important for SAPT in psi4, default
}

set PROPERTIES_ORIGIN ["COM"]
properties('MP2/aug-cc-pvtz', properties = ['dipole'])
--------------------------------------------------------------------------

    Molecular point group: c1
  Charge       = -1
  Multiplicity = 1
  Basis Set: AUG-CC-PVTZ
    Blend: AUG-CC-PVTZ
  Basis Set: (AUG-CC-PVTZ AUX)
    Blend: AUG-CC-PVTZ-JKFIT

    Orbital Energies [Eh]
    ---------------------

    Doubly Occupied:

       1A    -91.665676     2A    -11.058275     3A    -11.054229
       4A     -8.665524     5A     -6.347106     6A     -6.345447
       7A     -6.345411     8A     -0.858574     9A     -0.700366
      10A     -0.572506    11A     -0.434611    12A     -0.406891
      13A     -0.340825    14A     -0.318780    15A     -0.227042
      16A     -0.088930    17A     -0.087723

  @DF-RHF Final Energy:  -476.22549962281136

   => Energetics <=

    Nuclear Repulsion Energy =             97.1692174594812883
    One-Electron Energy =                -855.7536010369190080
    Two-Electron Energy =                 282.3588839546263785
    Total Energy =                       -476.2254996228113555
  Basis Set: (AUG-CC-PVTZ AUX)
    Blend: AUG-CC-PVTZ-RI
    Molecular point group: c1

    Geometry (in Angstrom), charge = -1, multiplicity = 1:

       Center              X                  Y                   Z               Mass
    ------------   -----------------  -----------------  -----------------  -----------------
         S            0.808466268101    -0.747857473762    -0.004495243047    31.972071174400
         C           -0.082636731899     0.854273526238    -0.004495243047    12.000000000000
         C           -1.603562731899     0.726239926238     0.017941656953    12.000000000000
         H            0.192881668101     1.446711226238     0.876780156953     1.007825032230
         H            0.211311268101     1.445236526238    -0.880792243047     1.007825032230
         H           -2.097024731899     1.691834526238    -0.004495243047     1.007825032230
         H           -1.938763731899     0.161109526238    -0.887911243047     1.007825032230
         H           -1.938763731899     0.161109526238     0.878920756953     1.007825032230

  Basis Set: AUG-CC-PVTZ
    Blend: AUG-CC-PVTZ
  Basis Set: (AUG-CC-PVTZ AUX)
    Blend: AUG-CC-PVTZ-JKFIT
	 Reference Energy          =    -476.2254996228113555 [Eh]
	 Singles Energy            =      -0.0000000000000000 [Eh]
	 Same-Spin Energy          =      -0.1431584799310531 [Eh]
	 Opposite-Spin Energy      =      -0.4897437220578323 [Eh]
	 Correlation Energy        =      -0.6329022019888855 [Eh]
	 Total Energy              =    -476.8584018248002394 [Eh]

	 ================> DF-SCS-MP2 Energies <==================
	-----------------------------------------------------------
	 SCS Same-Spin Scale       =       0.3333333333333333 [-]
	 SCS Opposite-Spin Scale   =       1.2000000000000000 [-]
	 SCS Same-Spin Energy      =      -0.0477194933103510 [Eh]
	 SCS Opposite-Spin Energy  =      -0.5876924664693988 [Eh]
	 SCS Correlation Energy    =      -0.6354119597797498 [Eh]
	 SCS Total Energy          =    -476.8609115825910862 [Eh]
	-----------------------------------------------------------

  Dipole Moment: [D]
     X:    -3.0752      Y:     3.3414      Z:     0.0329     Total:     4.5412

*** Psi4 exiting successfully. Buy a developer a beer!
