                               Psi4 1.3.2 release

  ==> Input File <==

--------------------------------------------------------------------------
#psi4
#
memory 32 gb

molecule  {
-1 1
  S        0.8456495    -0.8410503    -0.0815101
  C        0.0000000     0.7834870     0.0000000
  C       -1.5198180     0.6411310     0.0000000
  H        0.2582915     1.4158047     0.8584864
  H        0.2939480     1.3744500    -0.8762970
  H       -2.0143880     1.6210480     0.0000000
  H       -1.8561270     0.0903230    -0.8834160
  H       -1.8561270     0.0903230     0.8834160
units angstrom
no_reorient  #important for SAPT in psi4, default
symmetry c1  #important for SAPT in psi4, default
}

set PROPERTIES_ORIGIN ["COM"]
properties('MP2/aug-cc-pvtz', properties = ['dipole'])
--------------------------------------------------------------------------

    Molecular point group: c1
  Charge       = -1
  Multiplicity = 1
  Basis Set: AUG-CC-PVTZ
    Blend: AUG-CC-PVTZ
  Basis Set: (AUG-CC-PVTZ AUX)
    Blend: AUG-CC-PVTZ-JKFIT

    Orbital Energies [Eh]
    ---------------------

    Doubly Occupied:

       1A    -91.666053     2A    -11.058259     3A    -11.052878
       4A     -8.665898     5A     -6.347477     6A     -6.345815
       7A     -6.345778     8A     -0.858559     9A     -0.698089
      10A     -0.575618    11A     -0.433909    12A     -0.401808
      13A     -0.339717    14A     -0.320295    15A     -0.227711
      16A     -0.089280    17A     -0.088026

  @DF-RHF Final Energy:  -476.22517674133729

   => Energetics <=

    Nuclear Repulsion Energy =             97.4008815268271775
    One-Electron Energy =                -856.2217729121882712
    Two-Electron Energy =                 282.5957146440237580
    Total Energy =                       -476.2251767413372932
  Basis Set: (AUG-CC-PVTZ AUX)
    Blend: AUG-CC-PVTZ-RI
    Molecular point group: c1

    Geometry (in Angstrom), charge = -1, multiplicity = 1:

       Center              X                  Y                   Z               Mass
    ------------   -----------------  -----------------  -----------------  -----------------
         S            0.786898682911    -0.756363824130    -0.038501654915    31.972071174400
         C           -0.058750817089     0.868173475870     0.043008445085    12.000000000000
         C           -1.578568817089     0.725817475870     0.043008445085    12.000000000000
         H            0.199540682911     1.500491175870     0.901494845085     1.007825032230
         H            0.235197182911     1.459136475870    -0.833288554915     1.007825032230
         H           -2.073138817089     1.705734475870     0.043008445085     1.007825032230
         H           -1.914877817089     0.175009475870    -0.840407554915     1.007825032230
         H           -1.914877817089     0.175009475870     0.926424445085     1.007825032230

  Basis Set: AUG-CC-PVTZ
    Blend: AUG-CC-PVTZ
  Basis Set: (AUG-CC-PVTZ AUX)
    Blend: AUG-CC-PVTZ-JKFIT
	 Reference Energy          =    -476.2251767413372932 [Eh]
	 Singles Energy            =      -0.0000000000000000 [Eh]
	 Same-Spin Energy          =      -0.1432439434530383 [Eh]
	 Opposite-Spin Energy      =      -0.4898714659198202 [Eh]
	 Correlation Energy        =      -0.6331154093728586 [Eh]
	 Total Energy              =    -476.8582921507101560 [Eh]

	 ================> DF-SCS-MP2 Energies <==================
	-----------------------------------------------------------
	 SCS Same-Spin Scale       =       0.3333333333333333 [-]
	 SCS Opposite-Spin Scale   =       1.2000000000000000 [-]
	 SCS Same-Spin Energy      =      -0.0477479811510128 [Eh]
	 SCS Opposite-Spin Energy  =      -0.5878457591037842 [Eh]
	 SCS Correlation Energy    =      -0.6355937402547970 [Eh]
	 SCS Total Energy          =    -476.8607704815921124 [Eh]
	-----------------------------------------------------------

  Dipole Moment: [D]
     X:    -2.9962      Y:     3.3111      Z:     0.1008     Total:     4.4666

*** Psi4 exiting successfully. Buy a developer a beer!
