                               Psi4 1.3.2 release

  ==> Input File <==

--------------------------------------------------------------------------
#psi4
#
memory 32 gb

molecule  {
-1 1
  S        0.8836937    -0.8226851    -0.0135911
  C        0.0000000     0.7834870     0.0000000
  C       -1.5198180     0.6411310     0.0000000
  H        0.2880586     1.3814581     0.8734941
  H        0.2939480     1.3744500    -0.8762970
  H       -2.0143880     1.6210480     0.0000000
  H       -1.8561270     0.0903230    -0.8834160
  H       -1.8561270     0.0903230     0.8834160
units angstrom
no_reorient  #important for SAPT in psi4, default
symmetry c1  #important for SAPT in psi4, default
}

set PROPERTIES_ORIGIN ["COM"]
properties('MP2/aug-cc-pvtz', properties = ['dipole'])
--------------------------------------------------------------------------

    Molecular point group: c1
  Charge       = -1
  Multiplicity = 1
  Basis Set: AUG-CC-PVTZ
    Blend: AUG-CC-PVTZ
  Basis Set: (AUG-CC-PVTZ AUX)
    Blend: AUG-CC-PVTZ-JKFIT

    Orbital Energies [Eh]
    ---------------------

    Doubly Occupied:

       1A    -91.665361     2A    -11.058308     3A    -11.054310
       4A     -8.665245     5A     -6.346825     6A     -6.345170
       7A     -6.345133     8A     -0.858463     9A     -0.700090
      10A     -0.572941    11A     -0.435435    12A     -0.402764
      13A     -0.341303    14A     -0.322882    15A     -0.226054
      16A     -0.088685    17A     -0.087568

  @DF-RHF Final Energy:  -476.22633022756111

   => Energetics <=

    Nuclear Repulsion Energy =             97.2460759970708040
    One-Electron Energy =                -855.9117422128143744
    Two-Electron Energy =                 282.4393359881825063
    Total Energy =                       -476.2263302275611068
  Basis Set: (AUG-CC-PVTZ AUX)
    Blend: AUG-CC-PVTZ-RI
    Molecular point group: c1

    Geometry (in Angstrom), charge = -1, multiplicity = 1:

       Center              X                  Y                   Z               Mass
    ------------   -----------------  -----------------  -----------------  -----------------
         S            0.804514634106    -0.747055291618    -0.006422572327    31.972071174400
         C           -0.079179065894     0.859116808382     0.007168527673    12.000000000000
         C           -1.598997065894     0.716760808382     0.007168527673    12.000000000000
         H            0.208879534106     1.457087908382     0.880662627673     1.007825032230
         H            0.214768934106     1.450079808382    -0.869128472327     1.007825032230
         H           -2.093567065894     1.696677808382     0.007168527673     1.007825032230
         H           -1.935306065894     0.165952808382    -0.876247472327     1.007825032230
         H           -1.935306065894     0.165952808382     0.890584527673     1.007825032230

  Basis Set: AUG-CC-PVTZ
    Blend: AUG-CC-PVTZ
  Basis Set: (AUG-CC-PVTZ AUX)
    Blend: AUG-CC-PVTZ-JKFIT
	 Reference Energy          =    -476.2263302275611068 [Eh]
	 Singles Energy            =      -0.0000000000000000 [Eh]
	 Same-Spin Energy          =      -0.1431395242321927 [Eh]
	 Opposite-Spin Energy      =      -0.4896893027073499 [Eh]
	 Correlation Energy        =      -0.6328288269395426 [Eh]
	 Total Energy              =    -476.8591590545006511 [Eh]

	 ================> DF-SCS-MP2 Energies <==================
	-----------------------------------------------------------
	 SCS Same-Spin Scale       =       0.3333333333333333 [-]
	 SCS Opposite-Spin Scale   =       1.2000000000000000 [-]
	 SCS Same-Spin Energy      =      -0.0477131747440642 [Eh]
	 SCS Opposite-Spin Energy  =      -0.5876271632488198 [Eh]
	 SCS Correlation Energy    =      -0.6353403379928840 [Eh]
	 SCS Total Energy          =    -476.8616705655539931 [Eh]
	-----------------------------------------------------------

  Dipole Moment: [D]
     X:    -3.0684      Y:     3.3224      Z:     0.0173     Total:     4.5226

*** Psi4 exiting successfully. Buy a developer a beer!
