                               Psi4 1.4a3.dev225

  ==> Input File <==

--------------------------------------------------------------------------
#psi4
#
memory 32 gb

molecule  {
-1 1
  S        1.1996750    -0.1541640    -0.0000130
  C       -0.4531560     0.6408210     0.0000070
  C       -1.6097280    -0.3542770     0.0000150
  H       -0.5590764     1.3220400     0.9163500
  H       -0.5544760     1.2923430    -0.8763740
  H       -2.5798990     0.1588220     0.0000240
  H       -1.5643380    -0.9980720    -0.8832230
  H       -1.5643230    -0.9980760     0.8832490
units angstrom
no_reorient  #important for SAPT in psi4, default
symmetry c1  #important for SAPT in psi4, default
}

set PROPERTIES_ORIGIN ["COM"]
properties('MP2/aug-cc-pvtz', properties = ['dipole'])
--------------------------------------------------------------------------

    Molecular point group: c1
  Charge       = -1
  Multiplicity = 1
  Basis Set: AUG-CC-PVTZ
    Blend: AUG-CC-PVTZ
  Basis Set: (AUG-CC-PVTZ AUX)
    Blend: AUG-CC-PVTZ-JKFIT

    Orbital Energies [Eh]
    ---------------------

    Doubly Occupied:

       1A    -91.665929     2A    -11.064735     3A    -11.055059
       4A     -8.665805     5A     -6.347381     6A     -6.345722
       7A     -6.345686     8A     -0.857105     9A     -0.699106
      10A     -0.569459    11A     -0.432972    12A     -0.403425
      13A     -0.341161    14A     -0.319289    15A     -0.225983
      16A     -0.089128    17A     -0.087725

  @DF-RHF Final Energy:  -476.22451695466316

   => Energetics <=

    Nuclear Repulsion Energy =             97.0208975479790325
    One-Electron Energy =                -855.4594901176003532
    Two-Electron Energy =                 282.2140756149581193
    Total Energy =                       -476.2245169546631587
  Basis Set: (AUG-CC-PVTZ AUX)
    Blend: AUG-CC-PVTZ-RI
    Molecular point group: c1

    Geometry (in Angstrom), charge = -1, multiplicity = 1:

       Center              X                  Y                   Z               Mass
    ------------   -----------------  -----------------  -----------------  -----------------
         S            1.089433089650    -0.142571424752    -0.000671691687    31.972071174400
         C           -0.563397910350     0.652413575248    -0.000651691687    12.000000000000
         C           -1.719969910350    -0.342684424752    -0.000643691687    12.000000000000
         H           -0.669318310350     1.333632575248     0.915691308313     1.007825032230
         H           -0.664717910350     1.303935575248    -0.877032691687     1.007825032230
         H           -2.690140910350     0.170414575248    -0.000634691687     1.007825032230
         H           -1.674579910350    -0.986479424752    -0.883881691687     1.007825032230
         H           -1.674564910350    -0.986483424752     0.882590308313     1.007825032230

  Basis Set: AUG-CC-PVTZ
    Blend: AUG-CC-PVTZ
  Basis Set: (AUG-CC-PVTZ AUX)
    Blend: AUG-CC-PVTZ-JKFIT
	 Reference Energy          =    -476.2245169546631587 [Eh]
	 Singles Energy            =      -0.0000000000000000 [Eh]
	 Same-Spin Energy          =      -0.1431448796980111 [Eh]
	 Opposite-Spin Energy      =      -0.4899791880637260 [Eh]
	 Correlation Energy        =      -0.6331240677617370 [Eh]
	 Total Energy              =    -476.8576410224249003 [Eh]

	 ================> DF-SCS-MP2 Energies <==================
	-----------------------------------------------------------
	 SCS Same-Spin Scale       =       0.3333333333333333 [-]
	 SCS Opposite-Spin Scale   =       1.2000000000000000 [-]
	 SCS Same-Spin Energy      =      -0.0477149598993370 [Eh]
	 SCS Opposite-Spin Energy  =      -0.5879750256764712 [Eh]
	 SCS Correlation Energy    =      -0.6356899855758082 [Eh]
	 SCS Total Energy          =    -476.8602069402389816 [Eh]
	-----------------------------------------------------------

  Dipole Moment: [D]
     X:    -4.3937      Y:     0.8792      Z:    -0.0323     Total:     4.4809

*** Psi4 exiting successfully. Buy a developer a beer!
