                               Psi4 1.3.2 release

  ==> Input File <==

--------------------------------------------------------------------------
#psi4
#
memory 32 gb

molecule  {
-1 1
  S        0.8911030    -0.8186440     0.0000000
  C       -0.0013001     0.7967443     0.0000000
  C       -1.5198180     0.6411310     0.0000000
  H        0.2939480     1.3744500     0.8762970
  H        0.2939480     1.3744500    -0.8762970
  H       -2.0058179     1.6253266     0.0000000
  H       -1.8561270     0.0903230    -0.8834160
  H       -1.8561270     0.0903230     0.8834160
units angstrom
no_reorient  #important for SAPT in psi4, default
symmetry c1  #important for SAPT in psi4, default
}

set PROPERTIES_ORIGIN ["COM"]
properties('MP2/aug-cc-pvtz', properties = ['dipole'])
--------------------------------------------------------------------------

    Molecular point group: c1
  Charge       = -1
  Multiplicity = 1
  Basis Set: AUG-CC-PVTZ
    Blend: AUG-CC-PVTZ
  Basis Set: (AUG-CC-PVTZ AUX)
    Blend: AUG-CC-PVTZ-JKFIT

    Orbital Energies [Eh]
    ---------------------

    Doubly Occupied:

       1A    -91.665346     2A    -11.057444     3A    -11.054793
       4A     -8.665044     5A     -6.346591     6A     -6.344963
       7A     -6.344928     8A     -0.858433     9A     -0.699225
      10A     -0.573061    11A     -0.437327    12A     -0.402465
      13A     -0.343264    14A     -0.325731    15A     -0.222324
      16A     -0.088320    17A     -0.087432

  @DF-RHF Final Energy:  -476.22629629020747

   => Energetics <=

    Nuclear Repulsion Energy =             97.0769467209052834
    One-Electron Energy =                -855.5731026218370516
    Two-Electron Energy =                 282.2698596107242679
    Total Energy =                       -476.2262962902074719
  Basis Set: (AUG-CC-PVTZ AUX)
    Blend: AUG-CC-PVTZ-RI
    Molecular point group: c1

    Geometry (in Angstrom), charge = -1, multiplicity = 1:

       Center              X                  Y                   Z               Mass
    ------------   -----------------  -----------------  -----------------  -----------------
         S            0.808058051658    -0.747694301099     0.000000000000    31.972071174400
         C           -0.084345048342     0.867693998901     0.000000000000    12.000000000000
         C           -1.602862948342     0.712080698901     0.000000000000    12.000000000000
         H            0.210903051658     1.445399698901     0.876297000000     1.007825032230
         H            0.210903051658     1.445399698901    -0.876297000000     1.007825032230
         H           -2.088862848342     1.696276298901     0.000000000000     1.007825032230
         H           -1.939171948342     0.161272698901    -0.883416000000     1.007825032230
         H           -1.939171948342     0.161272698901     0.883416000000     1.007825032230

  Basis Set: AUG-CC-PVTZ
    Blend: AUG-CC-PVTZ
  Basis Set: (AUG-CC-PVTZ AUX)
    Blend: AUG-CC-PVTZ-JKFIT
	 Reference Energy          =    -476.2262962902074719 [Eh]
	 Singles Energy            =      -0.0000000000000000 [Eh]
	 Same-Spin Energy          =      -0.1430443064814706 [Eh]
	 Opposite-Spin Energy      =      -0.4896332074908527 [Eh]
	 Correlation Energy        =      -0.6326775139723232 [Eh]
	 Total Energy              =    -476.8589738041798114 [Eh]

	 ================> DF-SCS-MP2 Energies <==================
	-----------------------------------------------------------
	 SCS Same-Spin Scale       =       0.3333333333333333 [-]
	 SCS Opposite-Spin Scale   =       1.2000000000000000 [-]
	 SCS Same-Spin Energy      =      -0.0476814354938235 [Eh]
	 SCS Opposite-Spin Energy  =      -0.5875598489890231 [Eh]
	 SCS Correlation Energy    =      -0.6352412844828467 [Eh]
	 SCS Total Energy          =    -476.8615375746903169 [Eh]
	-----------------------------------------------------------

  Dipole Moment: [D]
     X:    -3.1075      Y:     3.3583      Z:     0.0000     Total:     4.5754

*** Psi4 exiting successfully. Buy a developer a beer!
