                               Psi4 1.3.2 release

  ==> Input File <==

--------------------------------------------------------------------------
#psi4
#
memory 32 gb

molecule  {
-1 1
  S        0.8911030    -0.8186440     0.0000000
  C        0.0000000     0.7834870     0.0000000
  C       -1.5198180     0.6411310     0.0000000
  H        0.2671538     1.3205821     0.7964201
  H        0.2939480     1.3744500    -0.8762970
  H       -2.0143880     1.6210480     0.0000000
  H       -1.8561270     0.0903230    -0.8834160
  H       -1.8561270     0.0903230     0.8834160
units angstrom
no_reorient  #important for SAPT in psi4, default
symmetry c1  #important for SAPT in psi4, default
}

set PROPERTIES_ORIGIN ["COM"]
properties('MP2/aug-cc-pvtz', properties = ['dipole'])
--------------------------------------------------------------------------

    Molecular point group: c1
  Charge       = -1
  Multiplicity = 1
  Basis Set: AUG-CC-PVTZ
    Blend: AUG-CC-PVTZ
  Basis Set: (AUG-CC-PVTZ AUX)
    Blend: AUG-CC-PVTZ-JKFIT

    Orbital Energies [Eh]
    ---------------------

    Doubly Occupied:

       1A    -91.664237     2A    -11.053622     3A    -11.044838
       4A     -8.664129     5A     -6.345712     6A     -6.344069
       7A     -6.344030     8A     -0.863166     9A     -0.704167
      10A     -0.580259    11A     -0.442197    12A     -0.402403
      13A     -0.344921    14A     -0.328486    15A     -0.224897
      16A     -0.088004    17A     -0.086943

  @DF-RHF Final Energy:  -476.22043340408027

   => Energetics <=

    Nuclear Repulsion Energy =             97.6900339505895516
    One-Electron Energy =                -856.7687720344080162
    Two-Electron Energy =                 282.8583046797382394
    Total Energy =                       -476.2204334040802678
  Basis Set: (AUG-CC-PVTZ AUX)
    Blend: AUG-CC-PVTZ-RI
    Molecular point group: c1

    Geometry (in Angstrom), charge = -1, multiplicity = 1:

       Center              X                  Y                   Z               Mass
    ------------   -----------------  -----------------  -----------------  -----------------
         S            0.808386513121    -0.744126282255     0.001319461741    31.972071174400
         C           -0.082716486879     0.858004717745     0.001319461741    12.000000000000
         C           -1.602534486879     0.715648717745     0.001319461741    12.000000000000
         H            0.184437313121     1.395099817745     0.797739561741     1.007825032230
         H            0.211231513121     1.448967717745    -0.874977538259     1.007825032230
         H           -2.097104486879     1.695565717745     0.001319461741     1.007825032230
         H           -1.938843486879     0.164840717745    -0.882096538259     1.007825032230
         H           -1.938843486879     0.164840717745     0.884735461741     1.007825032230

  Basis Set: AUG-CC-PVTZ
    Blend: AUG-CC-PVTZ
  Basis Set: (AUG-CC-PVTZ AUX)
    Blend: AUG-CC-PVTZ-JKFIT
	 Reference Energy          =    -476.2204334040802678 [Eh]
	 Singles Energy            =      -0.0000000000000000 [Eh]
	 Same-Spin Energy          =      -0.1431231204234046 [Eh]
	 Opposite-Spin Energy      =      -0.4892450086380458 [Eh]
	 Correlation Energy        =      -0.6323681290614505 [Eh]
	 Total Energy              =    -476.8528015331417009 [Eh]

	 ================> DF-SCS-MP2 Energies <==================
	-----------------------------------------------------------
	 SCS Same-Spin Scale       =       0.3333333333333333 [-]
	 SCS Opposite-Spin Scale   =       1.2000000000000000 [-]
	 SCS Same-Spin Energy      =      -0.0477077068078015 [Eh]
	 SCS Opposite-Spin Energy  =      -0.5870940103656549 [Eh]
	 SCS Correlation Energy    =      -0.6348017171734565 [Eh]
	 SCS Total Energy          =    -476.8552351212537133 [Eh]
	-----------------------------------------------------------

  Dipole Moment: [D]
     X:    -3.0934      Y:     3.4285      Z:     0.0406     Total:     4.6180

*** Psi4 exiting successfully. Buy a developer a beer!
