                               Psi4 1.3.2 release

  ==> Input File <==

--------------------------------------------------------------------------
#psi4
#
memory 32 gb

molecule  {
-1 1
  S        0.8911030    -0.8186440     0.0000000
  C        0.0000000     0.7834870     0.0000000
  C       -1.5182470     0.6268520    -0.0224369
  H        0.3122881     1.3727953     0.8710517
  H        0.2939480     1.3744500    -0.8762970
  H       -2.0143880     1.6210480     0.0000000
  H       -1.8561270     0.0903230    -0.8834160
  H       -1.8561270     0.0903230     0.8834160
units angstrom
no_reorient  #important for SAPT in psi4, default
symmetry c1  #important for SAPT in psi4, default
}

set PROPERTIES_ORIGIN ["COM"]
properties('MP2/aug-cc-pvtz', properties = ['dipole'])
--------------------------------------------------------------------------

    Molecular point group: c1
  Charge       = -1
  Multiplicity = 1
  Basis Set: AUG-CC-PVTZ
    Blend: AUG-CC-PVTZ
  Basis Set: (AUG-CC-PVTZ AUX)
    Blend: AUG-CC-PVTZ-JKFIT

    Orbital Energies [Eh]
    ---------------------

    Doubly Occupied:

       1A    -91.664857     2A    -11.058446     3A    -11.055252
       4A     -8.664795     5A     -6.346375     6A     -6.344722
       7A     -6.344683     8A     -0.858529     9A     -0.700913
      10A     -0.572506    11A     -0.437666    12A     -0.398380
      13A     -0.346497    14A     -0.323513    15A     -0.224282
      16A     -0.088369    17A     -0.087111

  @DF-RHF Final Energy:  -476.22554827275377

   => Energetics <=

    Nuclear Repulsion Energy =             97.2696881877630375
    One-Electron Energy =                -855.9566804075351456
    Two-Electron Energy =                 282.4614439470183811
    Total Energy =                       -476.2255482727537697
  Basis Set: (AUG-CC-PVTZ AUX)
    Blend: AUG-CC-PVTZ-RI
    Molecular point group: c1

    Geometry (in Angstrom), charge = -1, multiplicity = 1:

       Center              X                  Y                   Z               Mass
    ------------   -----------------  -----------------  -----------------  -----------------
         S            0.807331961150    -0.742180307792     0.004499651886    31.972071174400
         C           -0.083771038850     0.859950692208     0.004499651886    12.000000000000
         C           -1.602018038850     0.703315692208    -0.017937248114    12.000000000000
         H            0.228517061150     1.449258992208     0.875551351886     1.007825032230
         H            0.210176961150     1.450913692208    -0.871797348114     1.007825032230
         H           -2.098159038850     1.697511692208     0.004499651886     1.007825032230
         H           -1.939898038850     0.166786692208    -0.878916348114     1.007825032230
         H           -1.939898038850     0.166786692208     0.887915651886     1.007825032230

  Basis Set: AUG-CC-PVTZ
    Blend: AUG-CC-PVTZ
  Basis Set: (AUG-CC-PVTZ AUX)
    Blend: AUG-CC-PVTZ-JKFIT
	 Reference Energy          =    -476.2255482727537697 [Eh]
	 Singles Energy            =      -0.0000000000000000 [Eh]
	 Same-Spin Energy          =      -0.1431302129973251 [Eh]
	 Opposite-Spin Energy      =      -0.4896768385712247 [Eh]
	 Correlation Energy        =      -0.6328070515685498 [Eh]
	 Total Energy              =    -476.8583553243223037 [Eh]

	 ================> DF-SCS-MP2 Energies <==================
	-----------------------------------------------------------
	 SCS Same-Spin Scale       =       0.3333333333333333 [-]
	 SCS Opposite-Spin Scale   =       1.2000000000000000 [-]
	 SCS Same-Spin Energy      =      -0.0477100709991084 [Eh]
	 SCS Opposite-Spin Energy  =      -0.5876122062854696 [Eh]
	 SCS Correlation Energy    =      -0.6353222772845780 [Eh]
	 SCS Total Energy          =    -476.8608705500383280 [Eh]
	-----------------------------------------------------------

  Dipole Moment: [D]
     X:    -3.0846      Y:     3.3049      Z:    -0.0314     Total:     4.5208

*** Psi4 exiting successfully. Buy a developer a beer!
