                               Psi4 1.4a3.dev225

  ==> Input File <==

--------------------------------------------------------------------------
#psi4
#
memory 32 gb

molecule  {
-1 1
  S        1.1996750    -0.1541640    -0.0000130
  C       -0.4351325     0.6321520     0.0000068
  C       -1.6097280    -0.3542770     0.0000150
  H       -0.5544580     1.2923370     0.8763950
  H       -0.5544760     1.2923430    -0.8763740
  H       -2.5798990     0.1588220     0.0000240
  H       -1.5643380    -0.9980720    -0.8832230
  H       -1.5643230    -0.9980760     0.8832490
units angstrom
no_reorient  #important for SAPT in psi4, default
symmetry c1  #important for SAPT in psi4, default
}

set PROPERTIES_ORIGIN ["COM"]
properties('MP2/aug-cc-pvtz', properties = ['dipole'])
--------------------------------------------------------------------------

    Molecular point group: c1
  Charge       = -1
  Multiplicity = 1
  Basis Set: AUG-CC-PVTZ
    Blend: AUG-CC-PVTZ
  Basis Set: (AUG-CC-PVTZ AUX)
    Blend: AUG-CC-PVTZ-JKFIT

    Orbital Energies [Eh]
    ---------------------

    Doubly Occupied:

       1A    -91.664938     2A    -11.059289     3A    -11.054299
       4A     -8.665163     5A     -6.346798     6A     -6.345100
       7A     -6.345060     8A     -0.857516     9A     -0.702563
      10A     -0.571845    11A     -0.433549    12A     -0.403007
      13A     -0.337701    14A     -0.321407    15A     -0.230816
      16A     -0.088777    17A     -0.087480

  @DF-RHF Final Energy:  -476.22606623242217

   => Energetics <=

    Nuclear Repulsion Energy =             97.4243436299231149
    One-Electron Energy =                -856.2702016648687504
    Two-Electron Energy =                 282.6197918025234799
    Total Energy =                       -476.2260662324221698
  Basis Set: (AUG-CC-PVTZ AUX)
    Blend: AUG-CC-PVTZ-RI
    Molecular point group: c1

    Geometry (in Angstrom), charge = -1, multiplicity = 1:

       Center              X                  Y                   Z               Mass
    ------------   -----------------  -----------------  -----------------  -----------------
         S            1.085811843840    -0.140375706016    -0.000011648095    31.972071174400
         C           -0.548995656160     0.645940293984     0.000008151905    12.000000000000
         C           -1.723591156160    -0.340488706016     0.000016351905    12.000000000000
         H           -0.668321156160     1.306125293984     0.876396351905     1.007825032230
         H           -0.668339156160     1.306131293984    -0.876372648095     1.007825032230
         H           -2.693762156160     0.172610293984     0.000025351905     1.007825032230
         H           -1.678201156160    -0.984283706016    -0.883221648095     1.007825032230
         H           -1.678186156160    -0.984287706016     0.883250351905     1.007825032230

  Basis Set: AUG-CC-PVTZ
    Blend: AUG-CC-PVTZ
  Basis Set: (AUG-CC-PVTZ AUX)
    Blend: AUG-CC-PVTZ-JKFIT
	 Reference Energy          =    -476.2260662324221698 [Eh]
	 Singles Energy            =      -0.0000000000000000 [Eh]
	 Same-Spin Energy          =      -0.1432627127235488 [Eh]
	 Opposite-Spin Energy      =      -0.4897493889325136 [Eh]
	 Correlation Energy        =      -0.6330121016560624 [Eh]
	 Total Energy              =    -476.8590783340782195 [Eh]

	 ================> DF-SCS-MP2 Energies <==================
	-----------------------------------------------------------
	 SCS Same-Spin Scale       =       0.3333333333333333 [-]
	 SCS Opposite-Spin Scale   =       1.2000000000000000 [-]
	 SCS Same-Spin Energy      =      -0.0477542375745163 [Eh]
	 SCS Opposite-Spin Energy  =      -0.5876992667190163 [Eh]
	 SCS Correlation Energy    =      -0.6354535042935325 [Eh]
	 SCS Total Energy          =    -476.8615197367157066 [Eh]
	-----------------------------------------------------------

  Dipole Moment: [D]
     X:    -4.3620      Y:     0.9208      Z:     0.0000     Total:     4.4581

*** Psi4 exiting successfully. Buy a developer a beer!
