                               Psi4 1.3.2 release

  ==> Input File <==

--------------------------------------------------------------------------
#psi4
#
memory 32 gb

molecule  {
-1 1
  S        0.8911030    -0.8186440     0.0000000
  C        0.0000000     0.7834870     0.0000000
  C       -1.5198180     0.6411310     0.0000000
  H        0.2939480     1.3744500     0.8762970
  H        0.2939480     1.3744500    -0.8762970
  H       -2.0188793     1.6187344    -0.0081381
  H       -1.8616005     0.0977391    -0.8859046
  H       -1.8561270     0.0903230     0.8834160
units angstrom
no_reorient  #important for SAPT in psi4, default
symmetry c1  #important for SAPT in psi4, default
}

set PROPERTIES_ORIGIN ["COM"]
properties('MP2/aug-cc-pvtz', properties = ['dipole'])
--------------------------------------------------------------------------

    Molecular point group: c1
  Charge       = -1
  Multiplicity = 1
  Basis Set: AUG-CC-PVTZ
    Blend: AUG-CC-PVTZ
  Basis Set: (AUG-CC-PVTZ AUX)
    Blend: AUG-CC-PVTZ-JKFIT

    Orbital Energies [Eh]
    ---------------------

    Doubly Occupied:

       1A    -91.665258     2A    -11.058396     3A    -11.054641
       4A     -8.665150     5A     -6.346731     6A     -6.345074
       7A     -6.345037     8A     -0.858377     9A     -0.700740
      10A     -0.572435    11A     -0.435954    12A     -0.402299
      13A     -0.341643    14A     -0.323679    15A     -0.225717
      16A     -0.088635    17A     -0.087411

  @DF-RHF Final Energy:  -476.22634322832522

   => Energetics <=

    Nuclear Repulsion Energy =             97.2053400438696258
    One-Electron Energy =                -855.8290142108251075
    Two-Electron Energy =                 282.3973309386302049
    Total Energy =                       -476.2263432283252200
  Basis Set: (AUG-CC-PVTZ AUX)
    Blend: AUG-CC-PVTZ-RI
    Molecular point group: c1

    Geometry (in Angstrom), charge = -1, multiplicity = 1:

       Center              X                  Y                   Z               Mass
    ------------   -----------------  -----------------  -----------------  -----------------
         S            0.808108513481    -0.745100396005     0.000175539162    31.972071174400
         C           -0.082994486519     0.857030603995     0.000175539162    12.000000000000
         C           -1.602812486519     0.714674603995     0.000175539162    12.000000000000
         H            0.210953513481     1.447993603995     0.876472539162     1.007825032230
         H            0.210953513481     1.447993603995    -0.876121460838     1.007825032230
         H           -2.101873786519     1.692278003995    -0.007962560838     1.007825032230
         H           -1.944594986519     0.171282703995    -0.885729060838     1.007825032230
         H           -1.939121486519     0.163866603995     0.883591539162     1.007825032230

  Basis Set: AUG-CC-PVTZ
    Blend: AUG-CC-PVTZ
  Basis Set: (AUG-CC-PVTZ AUX)
    Blend: AUG-CC-PVTZ-JKFIT
	 Reference Energy          =    -476.2263432283252200 [Eh]
	 Singles Energy            =      -0.0000000000000000 [Eh]
	 Same-Spin Energy          =      -0.1431173319960675 [Eh]
	 Opposite-Spin Energy      =      -0.4896562264941009 [Eh]
	 Correlation Energy        =      -0.6327735584901684 [Eh]
	 Total Energy              =    -476.8591167868153775 [Eh]

	 ================> DF-SCS-MP2 Energies <==================
	-----------------------------------------------------------
	 SCS Same-Spin Scale       =       0.3333333333333333 [-]
	 SCS Opposite-Spin Scale   =       1.2000000000000000 [-]
	 SCS Same-Spin Energy      =      -0.0477057773320225 [Eh]
	 SCS Opposite-Spin Energy  =      -0.5875874717929210 [Eh]
	 SCS Correlation Energy    =      -0.6352932491249436 [Eh]
	 SCS Total Energy          =    -476.8616364774501903 [Eh]
	-----------------------------------------------------------

  Dipole Moment: [D]
     X:    -3.0852      Y:     3.3245      Z:    -0.0051     Total:     4.5355

*** Psi4 exiting successfully. Buy a developer a beer!
