                               Psi4 1.3.2 release

  ==> Input File <==

--------------------------------------------------------------------------
#psi4
#
memory 32 gb

molecule  {
-1 1
  S        0.8911030    -0.8186440     0.0000000
  C        0.0000000     0.7834870     0.0000000
  C       -1.5198180     0.6411310     0.0000000
  H        0.2973424     1.3812743     0.8705038
  H        0.2973424     1.3812743    -0.8705038
  H       -2.0143880     1.6210480     0.0000000
  H       -1.8561270     0.0903230    -0.8834160
  H       -1.8561270     0.0903230     0.8834160
units angstrom
no_reorient  #important for SAPT in psi4, default
symmetry c1  #important for SAPT in psi4, default
}

set PROPERTIES_ORIGIN ["COM"]
properties('MP2/aug-cc-pvtz', properties = ['dipole'])
--------------------------------------------------------------------------

    Molecular point group: c1
  Charge       = -1
  Multiplicity = 1
  Basis Set: AUG-CC-PVTZ
    Blend: AUG-CC-PVTZ
  Basis Set: (AUG-CC-PVTZ AUX)
    Blend: AUG-CC-PVTZ-JKFIT

    Orbital Energies [Eh]
    ---------------------

    Doubly Occupied:

       1A    -91.665344     2A    -11.058256     3A    -11.054703
       4A     -8.665222     5A     -6.346804     6A     -6.345148
       7A     -6.345110     8A     -0.858341     9A     -0.700571
      10A     -0.572955    11A     -0.434726    12A     -0.403100
      13A     -0.342377    14A     -0.322352    15A     -0.226063
      16A     -0.088742    17A     -0.087388

  @DF-RHF Final Energy:  -476.22633323624052

   => Energetics <=

    Nuclear Repulsion Energy =             97.2054978950041004
    One-Electron Energy =                -855.8292575565139941
    Two-Electron Energy =                 282.3974264252693729
    Total Energy =                       -476.2263332362405208
  Basis Set: (AUG-CC-PVTZ AUX)
    Blend: AUG-CC-PVTZ-RI
    Molecular point group: c1

    Geometry (in Angstrom), charge = -1, multiplicity = 1:

       Center              X                  Y                   Z               Mass
    ------------   -----------------  -----------------  -----------------  -----------------
         S            0.807831765958    -0.745241566381     0.000000000000    31.972071174400
         C           -0.083271234042     0.856889433619     0.000000000000    12.000000000000
         C           -1.603089234042     0.714533433619     0.000000000000    12.000000000000
         H            0.214071165958     1.454676733619     0.870503800000     1.007825032230
         H            0.214071165958     1.454676733619    -0.870503800000     1.007825032230
         H           -2.097659234042     1.694450433619     0.000000000000     1.007825032230
         H           -1.939398234042     0.163725433619    -0.883416000000     1.007825032230
         H           -1.939398234042     0.163725433619     0.883416000000     1.007825032230

  Basis Set: AUG-CC-PVTZ
    Blend: AUG-CC-PVTZ
  Basis Set: (AUG-CC-PVTZ AUX)
    Blend: AUG-CC-PVTZ-JKFIT
	 Reference Energy          =    -476.2263332362405208 [Eh]
	 Singles Energy            =      -0.0000000000000000 [Eh]
	 Same-Spin Energy          =      -0.1431223846489833 [Eh]
	 Opposite-Spin Energy      =      -0.4896595935652244 [Eh]
	 Correlation Energy        =      -0.6327819782142077 [Eh]
	 Total Energy              =    -476.8591152144547323 [Eh]

	 ================> DF-SCS-MP2 Energies <==================
	-----------------------------------------------------------
	 SCS Same-Spin Scale       =       0.3333333333333333 [-]
	 SCS Opposite-Spin Scale   =       1.2000000000000000 [-]
	 SCS Same-Spin Energy      =      -0.0477074615496611 [Eh]
	 SCS Opposite-Spin Energy  =      -0.5875915122782692 [Eh]
	 SCS Correlation Energy    =      -0.6352989738279303 [Eh]
	 SCS Total Energy          =    -476.8616322100684783 [Eh]
	-----------------------------------------------------------

  Dipole Moment: [D]
     X:    -3.0828      Y:     3.3220      Z:     0.0000     Total:     4.5320

*** Psi4 exiting successfully. Buy a developer a beer!
