                               Psi4 1.3.2 release

  ==> Input File <==

--------------------------------------------------------------------------
#psi4
#
memory 32 gb

molecule  {
-1 1
  S        0.8911030    -0.8186440     0.0000000
  C        0.0000000     0.7834870     0.0000000
  C       -1.5198180     0.6411310     0.0000000
  H        0.3007142     1.3880531     0.8646444
  H        0.3007142     1.3880531    -0.8646444
  H       -2.0143880     1.6210480     0.0000000
  H       -1.8561270     0.0903230    -0.8834160
  H       -1.8561270     0.0903230     0.8834160
units angstrom
no_reorient  #important for SAPT in psi4, default
symmetry c1  #important for SAPT in psi4, default
}

set PROPERTIES_ORIGIN ["COM"]
properties('MP2/aug-cc-pvtz', properties = ['dipole'])
--------------------------------------------------------------------------

    Molecular point group: c1
  Charge       = -1
  Multiplicity = 1
  Basis Set: AUG-CC-PVTZ
    Blend: AUG-CC-PVTZ
  Basis Set: (AUG-CC-PVTZ AUX)
    Blend: AUG-CC-PVTZ-JKFIT

    Orbital Energies [Eh]
    ---------------------

    Doubly Occupied:

       1A    -91.665446     2A    -11.058217     3A    -11.054819
       4A     -8.665311     5A     -6.346893     6A     -6.345237
       7A     -6.345199     8A     -0.858233     9A     -0.700637
      10A     -0.573510    11A     -0.433747    12A     -0.403249
      13A     -0.343121    14A     -0.321298    15A     -0.226442
      16A     -0.088865    17A     -0.087365

  @DF-RHF Final Energy:  -476.22622880243136

   => Energetics <=

    Nuclear Repulsion Energy =             97.1931429573305934
    One-Electron Energy =                -855.8035687375092948
    Two-Electron Energy =                 282.3841969777473651
    Total Energy =                       -476.2262288024313648
  Basis Set: (AUG-CC-PVTZ AUX)
    Blend: AUG-CC-PVTZ-RI
    Molecular point group: c1

    Geometry (in Angstrom), charge = -1, multiplicity = 1:

       Center              X                  Y                   Z               Mass
    ------------   -----------------  -----------------  -----------------  -----------------
         S            0.807720370521    -0.745465520171     0.000000000000    31.972071174400
         C           -0.083382629479     0.856665479829     0.000000000000    12.000000000000
         C           -1.603200629479     0.714309479829     0.000000000000    12.000000000000
         H            0.217331570521     1.461231579829     0.864644400000     1.007825032230
         H            0.217331570521     1.461231579829    -0.864644400000     1.007825032230
         H           -2.097770629479     1.694226479829     0.000000000000     1.007825032230
         H           -1.939509629479     0.163501479829    -0.883416000000     1.007825032230
         H           -1.939509629479     0.163501479829     0.883416000000     1.007825032230

  Basis Set: AUG-CC-PVTZ
    Blend: AUG-CC-PVTZ
  Basis Set: (AUG-CC-PVTZ AUX)
    Blend: AUG-CC-PVTZ-JKFIT
	 Reference Energy          =    -476.2262288024313648 [Eh]
	 Singles Energy            =      -0.0000000000000000 [Eh]
	 Same-Spin Energy          =      -0.1431195103665490 [Eh]
	 Opposite-Spin Energy      =      -0.4896545532824174 [Eh]
	 Correlation Energy        =      -0.6327740636489663 [Eh]
	 Total Energy              =    -476.8590028660803455 [Eh]

	 ================> DF-SCS-MP2 Energies <==================
	-----------------------------------------------------------
	 SCS Same-Spin Scale       =       0.3333333333333333 [-]
	 SCS Opposite-Spin Scale   =       1.2000000000000000 [-]
	 SCS Same-Spin Energy      =      -0.0477065034555163 [Eh]
	 SCS Opposite-Spin Energy  =      -0.5875854639389008 [Eh]
	 SCS Correlation Energy    =      -0.6352919673944171 [Eh]
	 SCS Total Energy          =    -476.8615207698258018 [Eh]
	-----------------------------------------------------------

  Dipole Moment: [D]
     X:    -3.0829      Y:     3.3203      Z:     0.0000     Total:     4.5308

*** Psi4 exiting successfully. Buy a developer a beer!
