                               Psi4 1.3.2 release

  ==> Input File <==

--------------------------------------------------------------------------
#psi4
#
memory 32 gb

molecule  {
-1 1
  S        0.8911030    -0.8186440     0.0000000
  C        0.0972145     0.6087033     0.0000000
  C       -1.5198180     0.6411310     0.0000000
  H        0.2939480     1.3744500     0.8762970
  H        0.2939480     1.3744500    -0.8762970
  H       -2.0143880     1.6210480     0.0000000
  H       -1.8561270     0.0903230    -0.8834160
  H       -1.8561270     0.0903230     0.8834160
units angstrom
no_reorient  #important for SAPT in psi4, default
symmetry c1  #important for SAPT in psi4, default
}

set PROPERTIES_ORIGIN ["COM"]
properties('MP2/aug-cc-pvtz', properties = ['dipole'])
--------------------------------------------------------------------------

    Molecular point group: c1
  Charge       = -1
  Multiplicity = 1
  Basis Set: AUG-CC-PVTZ
    Blend: AUG-CC-PVTZ
  Basis Set: (AUG-CC-PVTZ AUX)
    Blend: AUG-CC-PVTZ-JKFIT

    Orbital Energies [Eh]
    ---------------------

    Doubly Occupied:

       1A    -91.662758     2A    -11.073736     3A    -11.053511
       4A     -8.667720     5A     -6.350049     6A     -6.347569
       7A     -6.347505     8A     -0.855546     9A     -0.730333
      10A     -0.560067    11A     -0.414618    12A     -0.401125
      13A     -0.305962    14A     -0.304092    15A     -0.275930
      16A     -0.089900    17A     -0.087196

  @DF-RHF Final Energy:  -476.19240664151852

   => Energetics <=

    Nuclear Repulsion Energy =             99.3544055452614998
    One-Electron Energy =                -860.0383880090874982
    Two-Electron Energy =                 284.4915758223074249
    Total Energy =                       -476.1924066415185166
  Basis Set: (AUG-CC-PVTZ AUX)
    Blend: AUG-CC-PVTZ-RI
    Molecular point group: c1

    Geometry (in Angstrom), charge = -1, multiplicity = 1:

       Center              X                  Y                   Z               Mass
    ------------   -----------------  -----------------  -----------------  -----------------
         S            0.788823253635    -0.710638740547     0.000000000000    31.972071174400
         C           -0.005065246365     0.716708559453     0.000000000000    12.000000000000
         C           -1.622097746365     0.749136259453     0.000000000000    12.000000000000
         H            0.191668253635     1.482455259453     0.876297000000     1.007825032230
         H            0.191668253635     1.482455259453    -0.876297000000     1.007825032230
         H           -2.116667746365     1.729053259453     0.000000000000     1.007825032230
         H           -1.958406746365     0.198328259453    -0.883416000000     1.007825032230
         H           -1.958406746365     0.198328259453     0.883416000000     1.007825032230

  Basis Set: AUG-CC-PVTZ
    Blend: AUG-CC-PVTZ
  Basis Set: (AUG-CC-PVTZ AUX)
    Blend: AUG-CC-PVTZ-JKFIT
	 Reference Energy          =    -476.1924066415185166 [Eh]
	 Singles Energy            =      -0.0000000000000000 [Eh]
	 Same-Spin Energy          =      -0.1461496132559329 [Eh]
	 Opposite-Spin Energy      =      -0.4928439368974463 [Eh]
	 Correlation Energy        =      -0.6389935501533792 [Eh]
	 Total Energy              =    -476.8314001916718894 [Eh]

	 ================> DF-SCS-MP2 Energies <==================
	-----------------------------------------------------------
	 SCS Same-Spin Scale       =       0.3333333333333333 [-]
	 SCS Opposite-Spin Scale   =       1.2000000000000000 [-]
	 SCS Same-Spin Energy      =      -0.0487165377519776 [Eh]
	 SCS Opposite-Spin Energy  =      -0.5914127242769356 [Eh]
	 SCS Correlation Energy    =      -0.6401292620289132 [Eh]
	 SCS Total Energy          =    -476.8325359035474094 [Eh]
	-----------------------------------------------------------

  Dipole Moment: [D]
     X:    -2.3896      Y:     2.4995      Z:     0.0000     Total:     3.4580

*** Psi4 exiting successfully. Buy a developer a beer!
