                               Psi4 1.3.2 release

  ==> Input File <==

--------------------------------------------------------------------------
#psi4
#
memory 32 gb

molecule  {
-1 1
  S        0.8911030    -0.8186440     0.0000000
  C        0.0000000     0.7834870     0.0000000
  C       -1.5198180     0.6411310     0.0000000
  H        0.3207422     1.4283179     0.9561739
  H        0.2939480     1.3744500    -0.8762970
  H       -2.0143880     1.6210480     0.0000000
  H       -1.8561270     0.0903230    -0.8834160
  H       -1.8561270     0.0903230     0.8834160
units angstrom
no_reorient  #important for SAPT in psi4, default
symmetry c1  #important for SAPT in psi4, default
}

set PROPERTIES_ORIGIN ["COM"]
properties('MP2/aug-cc-pvtz', properties = ['dipole'])
--------------------------------------------------------------------------

    Molecular point group: c1
  Charge       = -1
  Multiplicity = 1
  Basis Set: AUG-CC-PVTZ
    Blend: AUG-CC-PVTZ
  Basis Set: (AUG-CC-PVTZ AUX)
    Blend: AUG-CC-PVTZ-JKFIT

    Orbital Energies [Eh]
    ---------------------

    Doubly Occupied:

       1A    -91.666751     2A    -11.071285     3A    -11.055975
       4A     -8.666629     5A     -6.348205     6A     -6.346538
       7A     -6.346504     8A     -0.855887     9A     -0.698588
      10A     -0.566921    11A     -0.430280    12A     -0.403714
      13A     -0.341163    14A     -0.314450    15A     -0.226781
      16A     -0.089807    17A     -0.088057

  @DF-RHF Final Energy:  -476.22047383629115

   => Energetics <=

    Nuclear Repulsion Energy =             96.8004622958985408
    One-Electron Energy =                -855.0068054309889476
    Two-Electron Energy =                 281.9858692987992299
    Total Energy =                       -476.2204738362911485
  Basis Set: (AUG-CC-PVTZ AUX)
    Blend: AUG-CC-PVTZ-RI
    Molecular point group: c1

    Geometry (in Angstrom), charge = -1, multiplicity = 1:

       Center              X                  Y                   Z               Mass
    ------------   -----------------  -----------------  -----------------  -----------------
         S            0.807501302959    -0.745905936525    -0.001319461741    31.972071174400
         C           -0.083601697041     0.856225063475    -0.001319461741    12.000000000000
         C           -1.603419697041     0.713869063475    -0.001319461741    12.000000000000
         H            0.237140502959     1.501055963475     0.954854438259     1.007825032230
         H            0.210346302959     1.447188063475    -0.877616461741     1.007825032230
         H           -2.097989697041     1.693786063475    -0.001319461741     1.007825032230
         H           -1.939728697041     0.163061063475    -0.884735461741     1.007825032230
         H           -1.939728697041     0.163061063475     0.882096538259     1.007825032230

  Basis Set: AUG-CC-PVTZ
    Blend: AUG-CC-PVTZ
  Basis Set: (AUG-CC-PVTZ AUX)
    Blend: AUG-CC-PVTZ-JKFIT
	 Reference Energy          =    -476.2204738362911485 [Eh]
	 Singles Energy            =      -0.0000000000000000 [Eh]
	 Same-Spin Energy          =      -0.1431492992976925 [Eh]
	 Opposite-Spin Energy      =      -0.4903231414978084 [Eh]
	 Correlation Energy        =      -0.6334724407955008 [Eh]
	 Total Energy              =    -476.8539462770866635 [Eh]

	 ================> DF-SCS-MP2 Energies <==================
	-----------------------------------------------------------
	 SCS Same-Spin Scale       =       0.3333333333333333 [-]
	 SCS Opposite-Spin Scale   =       1.2000000000000000 [-]
	 SCS Same-Spin Energy      =      -0.0477164330992308 [Eh]
	 SCS Opposite-Spin Energy  =      -0.5883877697973701 [Eh]
	 SCS Correlation Energy    =      -0.6361042028966009 [Eh]
	 SCS Total Energy          =    -476.8565780391877524 [Eh]
	-----------------------------------------------------------

  Dipole Moment: [D]
     X:    -3.0774      Y:     3.1733      Z:    -0.0736     Total:     4.4211

*** Psi4 exiting successfully. Buy a developer a beer!
