                               Psi4 1.3.2 release

  ==> Input File <==

--------------------------------------------------------------------------
#psi4
#
memory 32 gb

molecule  {
-1 1
  S        0.8770880    -0.8263592     0.0000000
  C        0.0000000     0.7834870     0.0000000
  C       -1.5185179     0.6278737     0.0000000
  H        0.2939480     1.3744500     0.8762970
  H        0.2939480     1.3744500    -0.8762970
  H       -2.0143880     1.6210480     0.0000000
  H       -1.8561270     0.0903230    -0.8834160
  H       -1.8561270     0.0903230     0.8834160
units angstrom
no_reorient  #important for SAPT in psi4, default
symmetry c1  #important for SAPT in psi4, default
}

set PROPERTIES_ORIGIN ["COM"]
properties('MP2/aug-cc-pvtz', properties = ['dipole'])
--------------------------------------------------------------------------

    Molecular point group: c1
  Charge       = -1
  Multiplicity = 1
  Basis Set: AUG-CC-PVTZ
    Blend: AUG-CC-PVTZ
  Basis Set: (AUG-CC-PVTZ AUX)
    Blend: AUG-CC-PVTZ-JKFIT

    Orbital Energies [Eh]
    ---------------------

    Doubly Occupied:

       1A    -91.665007     2A    -11.058453     3A    -11.054478
       4A     -8.664937     5A     -6.346516     6A     -6.344863
       7A     -6.344826     8A     -0.858572     9A     -0.699935
      10A     -0.572959    11A     -0.437574    12A     -0.398456
      13A     -0.343040    14A     -0.325441    15A     -0.224774
      16A     -0.088356    17A     -0.087480

  @DF-RHF Final Energy:  -476.22618832433437

   => Energetics <=

    Nuclear Repulsion Energy =             97.3292385238917888
    One-Electron Energy =                -856.0795203302540131
    Two-Electron Energy =                 282.5240934820278085
    Total Energy =                       -476.2261883243343732
  Basis Set: (AUG-CC-PVTZ AUX)
    Blend: AUG-CC-PVTZ-RI
    Molecular point group: c1

    Geometry (in Angstrom), charge = -1, multiplicity = 1:

       Center              X                  Y                   Z               Mass
    ------------   -----------------  -----------------  -----------------  -----------------
         S            0.801017563951    -0.746080751002     0.000000000000    31.972071174400
         C           -0.076070436049     0.863765448998     0.000000000000    12.000000000000
         C           -1.594588336049     0.708152148998     0.000000000000    12.000000000000
         H            0.217877563951     1.454728448998     0.876297000000     1.007825032230
         H            0.217877563951     1.454728448998    -0.876297000000     1.007825032230
         H           -2.090458436049     1.701326448998     0.000000000000     1.007825032230
         H           -1.932197436049     0.170601448998    -0.883416000000     1.007825032230
         H           -1.932197436049     0.170601448998     0.883416000000     1.007825032230

  Basis Set: AUG-CC-PVTZ
    Blend: AUG-CC-PVTZ
  Basis Set: (AUG-CC-PVTZ AUX)
    Blend: AUG-CC-PVTZ-JKFIT
	 Reference Energy          =    -476.2261883243343732 [Eh]
	 Singles Energy            =      -0.0000000000000000 [Eh]
	 Same-Spin Energy          =      -0.1431438825173481 [Eh]
	 Opposite-Spin Energy      =      -0.4896916152245344 [Eh]
	 Correlation Energy        =      -0.6328354977418825 [Eh]
	 Total Energy              =    -476.8590238220762672 [Eh]

	 ================> DF-SCS-MP2 Energies <==================
	-----------------------------------------------------------
	 SCS Same-Spin Scale       =       0.3333333333333333 [-]
	 SCS Opposite-Spin Scale   =       1.2000000000000000 [-]
	 SCS Same-Spin Energy      =      -0.0477146275057827 [Eh]
	 SCS Opposite-Spin Energy  =      -0.5876299382694413 [Eh]
	 SCS Correlation Energy    =      -0.6353445657752240 [Eh]
	 SCS Total Energy          =    -476.8615328901095722 [Eh]
	-----------------------------------------------------------

  Dipole Moment: [D]
     X:    -3.0586      Y:     3.3052      Z:     0.0000     Total:     4.5032

*** Psi4 exiting successfully. Buy a developer a beer!
