                               Psi4 1.4a3.dev225

  ==> Input File <==

--------------------------------------------------------------------------
#psi4
#
memory 32 gb

molecule  {
-1 1
  S        1.1996750    -0.1541640    -0.0000130
  C       -0.4982148     0.6624936     0.0000075
  C       -1.6097280    -0.3542770     0.0000150
  H       -0.5544580     1.2923370     0.8763950
  H       -0.5544760     1.2923430    -0.8763740
  H       -2.5798990     0.1588220     0.0000240
  H       -1.5643380    -0.9980720    -0.8832230
  H       -1.5643230    -0.9980760     0.8832490
units angstrom
no_reorient  #important for SAPT in psi4, default
symmetry c1  #important for SAPT in psi4, default
}

set PROPERTIES_ORIGIN ["COM"]
properties('MP2/aug-cc-pvtz', properties = ['dipole'])
--------------------------------------------------------------------------

    Molecular point group: c1
  Charge       = -1
  Multiplicity = 1
  Basis Set: AUG-CC-PVTZ
    Blend: AUG-CC-PVTZ
  Basis Set: (AUG-CC-PVTZ AUX)
    Blend: AUG-CC-PVTZ-JKFIT

    Orbital Energies [Eh]
    ---------------------

    Doubly Occupied:

       1A    -91.665990     2A    -11.056006     3A    -11.054716
       4A     -8.665132     5A     -6.346584     6A     -6.345019
       7A     -6.344988     8A     -0.861789     9A     -0.695379
      10A     -0.573712    11A     -0.441802    12A     -0.403146
      13A     -0.351821    14A     -0.328016    15A     -0.211944
      16A     -0.088186    17A     -0.087301

  @DF-RHF Final Energy:  -476.22476566702215

   => Energetics <=

    Nuclear Repulsion Energy =             96.7814936293510186
    One-Electron Energy =                -854.9694560023343683
    Two-Electron Energy =                 281.9631967059611384
    Total Energy =                       -476.2247656670221545
  Basis Set: (AUG-CC-PVTZ AUX)
    Blend: AUG-CC-PVTZ-RI
    Molecular point group: c1

    Geometry (in Angstrom), charge = -1, multiplicity = 1:

       Center              X                  Y                   Z               Mass
    ------------   -----------------  -----------------  -----------------  -----------------
         S            1.098219199300    -0.146343450002    -0.000011785775    31.972071174400
         C           -0.599670600700     0.670314149998     0.000008714225    12.000000000000
         C           -1.711183800700    -0.346456450002     0.000016214225    12.000000000000
         H           -0.655913800700     1.300157549998     0.876396214225     1.007825032230
         H           -0.655931800700     1.300163549998    -0.876372785775     1.007825032230
         H           -2.681354800700     0.166642549998     0.000025214225     1.007825032230
         H           -1.665793800700    -0.990251450002    -0.883221785775     1.007825032230
         H           -1.665778800700    -0.990255450002     0.883250214225     1.007825032230

  Basis Set: AUG-CC-PVTZ
    Blend: AUG-CC-PVTZ
  Basis Set: (AUG-CC-PVTZ AUX)
    Blend: AUG-CC-PVTZ-JKFIT
	 Reference Energy          =    -476.2247656670221545 [Eh]
	 Singles Energy            =      -0.0000000000000000 [Eh]
	 Same-Spin Energy          =      -0.1429604166782204 [Eh]
	 Opposite-Spin Energy      =      -0.4896959786602623 [Eh]
	 Correlation Energy        =      -0.6326563953384827 [Eh]
	 Total Energy              =    -476.8574220623606266 [Eh]

	 ================> DF-SCS-MP2 Energies <==================
	-----------------------------------------------------------
	 SCS Same-Spin Scale       =       0.3333333333333333 [-]
	 SCS Opposite-Spin Scale   =       1.2000000000000000 [-]
	 SCS Same-Spin Energy      =      -0.0476534722260735 [Eh]
	 SCS Opposite-Spin Energy  =      -0.5876351743923147 [Eh]
	 SCS Correlation Energy    =      -0.6352886466183881 [Eh]
	 SCS Total Energy          =    -476.8600543136405463 [Eh]
	-----------------------------------------------------------

  Dipole Moment: [D]
     X:    -4.6007      Y:     0.9562      Z:     0.0001     Total:     4.6990

*** Psi4 exiting successfully. Buy a developer a beer!
