                               Psi4 1.3.2 release

  ==> Input File <==

--------------------------------------------------------------------------
#psi4
#
memory 32 gb

molecule  {
-1 1
  S        0.9057174    -0.8101960     0.0271811
  C        0.0000000     0.7834870     0.0000000
  C       -1.5198180     0.6411310     0.0000000
  H        0.3056592     1.3602994     0.8817023
  H        0.2939480     1.3744500    -0.8762970
  H       -2.0143880     1.6210480     0.0000000
  H       -1.8561270     0.0903230    -0.8834160
  H       -1.8561270     0.0903230     0.8834160
units angstrom
no_reorient  #important for SAPT in psi4, default
symmetry c1  #important for SAPT in psi4, default
}

set PROPERTIES_ORIGIN ["COM"]
properties('MP2/aug-cc-pvtz', properties = ['dipole'])
--------------------------------------------------------------------------

    Molecular point group: c1
  Charge       = -1
  Multiplicity = 1
  Basis Set: AUG-CC-PVTZ
    Blend: AUG-CC-PVTZ
  Basis Set: (AUG-CC-PVTZ AUX)
    Blend: AUG-CC-PVTZ-JKFIT

    Orbital Energies [Eh]
    ---------------------

    Doubly Occupied:

       1A    -91.665031     2A    -11.058252     3A    -11.055135
       4A     -8.664941     5A     -6.346522     6A     -6.344866
       7A     -6.344827     8A     -0.858448     9A     -0.701370
      10A     -0.571350    11A     -0.436261    12A     -0.403330
      13A     -0.342313    14A     -0.324311    15A     -0.224889
      16A     -0.088556    17A     -0.087016

  @DF-RHF Final Energy:  -476.22629138006408

   => Energetics <=

    Nuclear Repulsion Energy =             97.1650157312540301
    One-Electron Energy =                -855.7477739809862669
    Two-Electron Energy =                 282.3564668696681679
    Total Energy =                       -476.2262913800640831
  Basis Set: (AUG-CC-PVTZ AUX)
    Blend: AUG-CC-PVTZ-RI
    Molecular point group: c1

    Geometry (in Angstrom), charge = -1, multiplicity = 1:

       Center              X                  Y                   Z               Mass
    ------------   -----------------  -----------------  -----------------  -----------------
         S            0.814706380750    -0.740761417238     0.012847933090    31.972071174400
         C           -0.091011019250     0.852921582762    -0.014333166910    12.000000000000
         C           -1.610829019250     0.710565582762    -0.014333166910    12.000000000000
         H            0.214648180750     1.429733982762     0.867369133090     1.007825032230
         H            0.202936980750     1.443884582762    -0.890630166910     1.007825032230
         H           -2.105399019250     1.690482582762    -0.014333166910     1.007825032230
         H           -1.947138019250     0.159757582762    -0.897749166910     1.007825032230
         H           -1.947138019250     0.159757582762     0.869082833090     1.007825032230

  Basis Set: AUG-CC-PVTZ
    Blend: AUG-CC-PVTZ
  Basis Set: (AUG-CC-PVTZ AUX)
    Blend: AUG-CC-PVTZ-JKFIT
	 Reference Energy          =    -476.2262913800640831 [Eh]
	 Singles Energy            =      -0.0000000000000000 [Eh]
	 Same-Spin Energy          =      -0.1431154393168939 [Eh]
	 Opposite-Spin Energy      =      -0.4896441524919548 [Eh]
	 Correlation Energy        =      -0.6327595918088487 [Eh]
	 Total Energy              =    -476.8590509718729322 [Eh]

	 ================> DF-SCS-MP2 Energies <==================
	-----------------------------------------------------------
	 SCS Same-Spin Scale       =       0.3333333333333333 [-]
	 SCS Opposite-Spin Scale   =       1.2000000000000000 [-]
	 SCS Same-Spin Energy      =      -0.0477051464389646 [Eh]
	 SCS Opposite-Spin Energy  =      -0.5875729829903458 [Eh]
	 SCS Correlation Energy    =      -0.6352781294293104 [Eh]
	 SCS Total Energy          =    -476.8615695094933926 [Eh]
	-----------------------------------------------------------

  Dipole Moment: [D]
     X:    -3.1108      Y:     3.3253      Z:    -0.0353     Total:     4.5537

*** Psi4 exiting successfully. Buy a developer a beer!
