                               Psi4 1.3.2 release

  ==> Input File <==

--------------------------------------------------------------------------
#psi4
#
memory 32 gb

molecule  {
-1 1
  S        0.8911030    -0.8186440     0.0000000
  C        0.0040423     0.7303594     0.0000000
  C       -1.5198180     0.6411310     0.0000000
  H        0.2939480     1.3744500     0.8762970
  H        0.2939480     1.3744500    -0.8762970
  H       -2.0482853     1.6031908     0.0000000
  H       -1.8561270     0.0903230    -0.8834160
  H       -1.8561270     0.0903230     0.8834160
units angstrom
no_reorient  #important for SAPT in psi4, default
symmetry c1  #important for SAPT in psi4, default
}

set PROPERTIES_ORIGIN ["COM"]
properties('MP2/aug-cc-pvtz', properties = ['dipole'])
--------------------------------------------------------------------------

    Molecular point group: c1
  Charge       = -1
  Multiplicity = 1
  Basis Set: AUG-CC-PVTZ
    Blend: AUG-CC-PVTZ
  Basis Set: (AUG-CC-PVTZ AUX)
    Blend: AUG-CC-PVTZ-JKFIT

    Orbital Energies [Eh]
    ---------------------

    Doubly Occupied:

       1A    -91.664863     2A    -11.062362     3A    -11.053951
       4A     -8.665632     5A     -6.347357     6A     -6.345570
       7A     -6.345526     8A     -0.859092     9A     -0.706606
      10A     -0.569296    11A     -0.430040    12A     -0.405300
      13A     -0.334758    14A     -0.313646    15A     -0.238679
      16A     -0.089882    17A     -0.087175

  @DF-RHF Final Energy:  -476.22340803110518

   => Energetics <=

    Nuclear Repulsion Energy =             97.7969760955744647
    One-Electron Energy =                -857.0012966484540584
    Two-Electron Energy =                 282.9809125217744281
    Total Energy =                       -476.2234080311051798
  Basis Set: (AUG-CC-PVTZ AUX)
    Blend: AUG-CC-PVTZ-RI
    Molecular point group: c1

    Geometry (in Angstrom), charge = -1, multiplicity = 1:

       Center              X                  Y                   Z               Mass
    ------------   -----------------  -----------------  -----------------  -----------------
         S            0.807708786400    -0.734271718646     0.000000000000    31.972071174400
         C           -0.079351913600     0.814731681354     0.000000000000    12.000000000000
         C           -1.603212213600     0.725503281354     0.000000000000    12.000000000000
         H            0.210553786400     1.458822281354     0.876297000000     1.007825032230
         H            0.210553786400     1.458822281354    -0.876297000000     1.007825032230
         H           -2.131679513600     1.687563081354     0.000000000000     1.007825032230
         H           -1.939521213600     0.174695281354    -0.883416000000     1.007825032230
         H           -1.939521213600     0.174695281354     0.883416000000     1.007825032230

  Basis Set: AUG-CC-PVTZ
    Blend: AUG-CC-PVTZ
  Basis Set: (AUG-CC-PVTZ AUX)
    Blend: AUG-CC-PVTZ-JKFIT
	 Reference Energy          =    -476.2234080311051798 [Eh]
	 Singles Energy            =      -0.0000000000000000 [Eh]
	 Same-Spin Energy          =      -0.1436096794295735 [Eh]
	 Opposite-Spin Energy      =      -0.4900436121285611 [Eh]
	 Correlation Energy        =      -0.6336532915581345 [Eh]
	 Total Energy              =    -476.8570613226632986 [Eh]

	 ================> DF-SCS-MP2 Energies <==================
	-----------------------------------------------------------
	 SCS Same-Spin Scale       =       0.3333333333333333 [-]
	 SCS Opposite-Spin Scale   =       1.2000000000000000 [-]
	 SCS Same-Spin Energy      =      -0.0478698931431912 [Eh]
	 SCS Opposite-Spin Energy  =      -0.5880523345542733 [Eh]
	 SCS Correlation Energy    =      -0.6359222276974645 [Eh]
	 SCS Total Energy          =    -476.8593302588026290 [Eh]
	-----------------------------------------------------------

  Dipole Moment: [D]
     X:    -2.9771      Y:     3.1658      Z:     0.0000     Total:     4.3458

*** Psi4 exiting successfully. Buy a developer a beer!
