                               Psi4 1.3.2 release

  ==> Input File <==

--------------------------------------------------------------------------
#psi4
#
memory 32 gb

molecule  {
-1 1
  S        0.8911030    -0.8186440     0.0000000
  C       -0.0486072     0.8708789     0.0000000
  C       -1.5198180     0.6411310     0.0000000
  H        0.2939480     1.3744500     0.8762970
  H        0.2939480     1.3744500    -0.8762970
  H       -2.0143880     1.6210480     0.0000000
  H       -1.8561270     0.0903230    -0.8834160
  H       -1.8561270     0.0903230     0.8834160
units angstrom
no_reorient  #important for SAPT in psi4, default
symmetry c1  #important for SAPT in psi4, default
}

set PROPERTIES_ORIGIN ["COM"]
properties('MP2/aug-cc-pvtz', properties = ['dipole'])
--------------------------------------------------------------------------

    Molecular point group: c1
  Charge       = -1
  Multiplicity = 1
  Basis Set: AUG-CC-PVTZ
    Blend: AUG-CC-PVTZ
  Basis Set: (AUG-CC-PVTZ AUX)
    Blend: AUG-CC-PVTZ-JKFIT

    Orbital Energies [Eh]
    ---------------------

    Doubly Occupied:

       1A    -91.666688     2A    -11.055636     3A    -11.054512
       4A     -8.665251     5A     -6.346599     6A     -6.345090
       7A     -6.345065     8A     -0.865229     9A     -0.691820
      10A     -0.574342    11A     -0.447629    12A     -0.403037
      13A     -0.361973    14A     -0.332323    15A     -0.198573
      16A     -0.087819    17A     -0.087151

  @DF-RHF Final Energy:  -476.22018106490862

   => Energetics <=

    Nuclear Repulsion Energy =             96.3296683705274859
    One-Electron Energy =                -854.0422244478443190
    Two-Electron Energy =                 281.4923750124081607
    Total Energy =                       -476.2201810649086156
  Basis Set: (AUG-CC-PVTZ AUX)
    Blend: AUG-CC-PVTZ-RI
    Molecular point group: c1

    Geometry (in Angstrom), charge = -1, multiplicity = 1:

       Center              X                  Y                   Z               Mass
    ------------   -----------------  -----------------  -----------------  -----------------
         S            0.817504225409    -0.762204803646     0.000000000000    31.972071174400
         C           -0.122205974591     0.927318096354     0.000000000000    12.000000000000
         C           -1.593416774591     0.697570196354     0.000000000000    12.000000000000
         H            0.220349225409     1.430889196354     0.876297000000     1.007825032230
         H            0.220349225409     1.430889196354    -0.876297000000     1.007825032230
         H           -2.087986774591     1.677487196354     0.000000000000     1.007825032230
         H           -1.929725774591     0.146762196354    -0.883416000000     1.007825032230
         H           -1.929725774591     0.146762196354     0.883416000000     1.007825032230

  Basis Set: AUG-CC-PVTZ
    Blend: AUG-CC-PVTZ
  Basis Set: (AUG-CC-PVTZ AUX)
    Blend: AUG-CC-PVTZ-JKFIT
	 Reference Energy          =    -476.2201810649086156 [Eh]
	 Singles Energy            =      -0.0000000000000000 [Eh]
	 Same-Spin Energy          =      -0.1429707053932866 [Eh]
	 Opposite-Spin Energy      =      -0.4899987666386739 [Eh]
	 Correlation Energy        =      -0.6329694720319605 [Eh]
	 Total Energy              =    -476.8531505369405750 [Eh]

	 ================> DF-SCS-MP2 Energies <==================
	-----------------------------------------------------------
	 SCS Same-Spin Scale       =       0.3333333333333333 [-]
	 SCS Opposite-Spin Scale   =       1.2000000000000000 [-]
	 SCS Same-Spin Energy      =      -0.0476569017977622 [Eh]
	 SCS Opposite-Spin Energy  =      -0.5879985199664087 [Eh]
	 SCS Correlation Energy    =      -0.6356554217641709 [Eh]
	 SCS Total Energy          =    -476.8558364866727857 [Eh]
	-----------------------------------------------------------

  Dipole Moment: [D]
     X:    -3.3114      Y:     3.5254      Z:    -0.0000     Total:     4.8367

*** Psi4 exiting successfully. Buy a developer a beer!
