                               Psi4 1.3.2 release

  ==> Input File <==

--------------------------------------------------------------------------
#psi4
#
memory 32 gb

molecule  {
-1 1
  S        0.9464737    -0.7865690     0.0000000
  C        0.0000000     0.7834870     0.0000000
  C       -1.5238603     0.6942586     0.0000000
  H        0.2939480     1.3744500     0.8762970
  H        0.2939480     1.3744500    -0.8762970
  H       -2.0143880     1.6210480     0.0000000
  H       -1.8561270     0.0903230    -0.8834160
  H       -1.8561270     0.0903230     0.8834160
units angstrom
no_reorient  #important for SAPT in psi4, default
symmetry c1  #important for SAPT in psi4, default
}

set PROPERTIES_ORIGIN ["COM"]
properties('MP2/aug-cc-pvtz', properties = ['dipole'])
--------------------------------------------------------------------------

    Molecular point group: c1
  Charge       = -1
  Multiplicity = 1
  Basis Set: AUG-CC-PVTZ
    Blend: AUG-CC-PVTZ
  Basis Set: (AUG-CC-PVTZ AUX)
    Blend: AUG-CC-PVTZ-JKFIT

    Orbital Energies [Eh]
    ---------------------

    Doubly Occupied:

       1A    -91.666452     2A    -11.057955     3A    -11.055759
       4A     -8.666205     5A     -6.347791     6A     -6.346120
       7A     -6.346080     8A     -0.858490     9A     -0.703436
      10A     -0.570558    11A     -0.429014    12A     -0.420757
      13A     -0.336031    14A     -0.314541    15A     -0.229005
      16A     -0.089669    17A     -0.087371

  @DF-RHF Final Energy:  -476.22273300615507

   => Energetics <=

    Nuclear Repulsion Energy =             96.8031142267328875
    One-Electron Energy =                -855.0012267020438230
    Two-Electron Energy =                 281.9753794691558824
    Total Energy =                       -476.2227330061550674
  Basis Set: (AUG-CC-PVTZ AUX)
    Blend: AUG-CC-PVTZ-RI
    Molecular point group: c1

    Geometry (in Angstrom), charge = -1, multiplicity = 1:

       Center              X                  Y                   Z               Mass
    ------------   -----------------  -----------------  -----------------  -----------------
         S            0.835093421360    -0.740198981433     0.000000000000    31.972071174400
         C           -0.111380278640     0.829857018567     0.000000000000    12.000000000000
         C           -1.635240578640     0.740628618567     0.000000000000    12.000000000000
         H            0.182567721360     1.420820018567     0.876297000000     1.007825032230
         H            0.182567721360     1.420820018567    -0.876297000000     1.007825032230
         H           -2.125768278640     1.667418018567     0.000000000000     1.007825032230
         H           -1.967507278640     0.136693018567    -0.883416000000     1.007825032230
         H           -1.967507278640     0.136693018567     0.883416000000     1.007825032230

  Basis Set: AUG-CC-PVTZ
    Blend: AUG-CC-PVTZ
  Basis Set: (AUG-CC-PVTZ AUX)
    Blend: AUG-CC-PVTZ-JKFIT
	 Reference Energy          =    -476.2227330061550674 [Eh]
	 Singles Energy            =      -0.0000000000000000 [Eh]
	 Same-Spin Energy          =      -0.1431470979892364 [Eh]
	 Opposite-Spin Energy      =      -0.4897944368762051 [Eh]
	 Correlation Energy        =      -0.6329415348654415 [Eh]
	 Total Energy              =    -476.8556745410205053 [Eh]

	 ================> DF-SCS-MP2 Energies <==================
	-----------------------------------------------------------
	 SCS Same-Spin Scale       =       0.3333333333333333 [-]
	 SCS Opposite-Spin Scale   =       1.2000000000000000 [-]
	 SCS Same-Spin Energy      =      -0.0477156993297455 [Eh]
	 SCS Opposite-Spin Energy  =      -0.5877533242514460 [Eh]
	 SCS Correlation Energy    =      -0.6354690235811915 [Eh]
	 SCS Total Energy          =    -476.8582020297362760 [Eh]
	-----------------------------------------------------------

  Dipole Moment: [D]
     X:    -3.1534      Y:     3.3802      Z:     0.0000     Total:     4.6227

*** Psi4 exiting successfully. Buy a developer a beer!
