                               Psi4 1.4a3.dev225

  ==> Input File <==

--------------------------------------------------------------------------
#psi4
#
memory 32 gb

molecule  {
-1 1
  S        1.1996750    -0.1541640    -0.0000130
  C       -0.4531560     0.6408210     0.0000070
  C       -1.6097280    -0.3542770     0.0000150
  H       -0.5526106     1.2804558     0.8604130
  H       -0.5544760     1.2923430    -0.8763740
  H       -2.5798990     0.1588220     0.0000240
  H       -1.5643380    -0.9980720    -0.8832230
  H       -1.5643230    -0.9980760     0.8832490
units angstrom
no_reorient  #important for SAPT in psi4, default
symmetry c1  #important for SAPT in psi4, default
}

set PROPERTIES_ORIGIN ["COM"]
properties('MP2/aug-cc-pvtz', properties = ['dipole'])
--------------------------------------------------------------------------

    Molecular point group: c1
  Charge       = -1
  Multiplicity = 1
  Basis Set: AUG-CC-PVTZ
    Blend: AUG-CC-PVTZ
  Basis Set: (AUG-CC-PVTZ AUX)
    Blend: AUG-CC-PVTZ-JKFIT

    Orbital Energies [Eh]
    ---------------------

    Doubly Occupied:

       1A    -91.665006     2A    -11.055558     3A    -11.054135
       4A     -8.664888     5A     -6.346468     6A     -6.344817
       7A     -6.344779     8A     -0.859377     9A     -0.700855
      10A     -0.573885    11A     -0.437111    12A     -0.402945
      13A     -0.342104    14A     -0.324704    15A     -0.225281
      16A     -0.088436    17A     -0.087329

  @DF-RHF Final Energy:  -476.22636584166395

   => Energetics <=

    Nuclear Repulsion Energy =             97.3254561453449867
    One-Electron Energy =                -856.0682854215057205
    Two-Electron Energy =                 282.5164634344967567
    Total Energy =                       -476.2263658416639487
  Basis Set: (AUG-CC-PVTZ AUX)
    Blend: AUG-CC-PVTZ-RI
    Molecular point group: c1

    Geometry (in Angstrom), charge = -1, multiplicity = 1:

       Center              X                  Y                   Z               Mass
    ------------   -----------------  -----------------  -----------------  -----------------
         S            1.089326283105    -0.141884508248     0.000252314270    31.972071174400
         C           -0.563504716895     0.653100491752     0.000272314270    12.000000000000
         C           -1.720076716895    -0.341997508248     0.000280314270    12.000000000000
         H           -0.662959316895     1.292735291752     0.860678314270     1.007825032230
         H           -0.664824716895     1.304622491752    -0.876108685730     1.007825032230
         H           -2.690247716895     0.171101491752     0.000289314270     1.007825032230
         H           -1.674686716895    -0.985792508248    -0.882957685730     1.007825032230
         H           -1.674671716895    -0.985796508248     0.883514314270     1.007825032230

  Basis Set: AUG-CC-PVTZ
    Blend: AUG-CC-PVTZ
  Basis Set: (AUG-CC-PVTZ AUX)
    Blend: AUG-CC-PVTZ-JKFIT
	 Reference Energy          =    -476.2263658416639487 [Eh]
	 Singles Energy            =      -0.0000000000000000 [Eh]
	 Same-Spin Energy          =      -0.1431309787918363 [Eh]
	 Opposite-Spin Energy      =      -0.4895670043856934 [Eh]
	 Correlation Energy        =      -0.6326979831775298 [Eh]
	 Total Energy              =    -476.8590638248414848 [Eh]

	 ================> DF-SCS-MP2 Energies <==================
	-----------------------------------------------------------
	 SCS Same-Spin Scale       =       0.3333333333333333 [-]
	 SCS Opposite-Spin Scale   =       1.2000000000000000 [-]
	 SCS Same-Spin Energy      =      -0.0477103262639454 [Eh]
	 SCS Opposite-Spin Energy  =      -0.5874804052628321 [Eh]
	 SCS Correlation Energy    =      -0.6351907315267775 [Eh]
	 SCS Total Energy          =    -476.8615565731907395 [Eh]
	-----------------------------------------------------------

  Dipole Moment: [D]
     X:    -4.4517      Y:     0.9526      Z:     0.0106     Total:     4.5525

*** Psi4 exiting successfully. Buy a developer a beer!
