                               Psi4 1.3.2 release

  ==> Input File <==

--------------------------------------------------------------------------
#psi4
#
memory 32 gb

molecule  {
-1 1
  S        0.8911030    -0.8186440     0.0000000
  C       -0.0972145     0.9582707     0.0000000
  C       -1.5198180     0.6411310     0.0000000
  H        0.2939480     1.3744500     0.8762970
  H        0.2939480     1.3744500    -0.8762970
  H       -2.0143880     1.6210480     0.0000000
  H       -1.8561270     0.0903230    -0.8834160
  H       -1.8561270     0.0903230     0.8834160
units angstrom
no_reorient  #important for SAPT in psi4, default
symmetry c1  #important for SAPT in psi4, default
}

set PROPERTIES_ORIGIN ["COM"]
properties('MP2/aug-cc-pvtz', properties = ['dipole'])
--------------------------------------------------------------------------

    Molecular point group: c1
  Charge       = -1
  Multiplicity = 1
  Basis Set: AUG-CC-PVTZ
    Blend: AUG-CC-PVTZ
  Basis Set: (AUG-CC-PVTZ AUX)
    Blend: AUG-CC-PVTZ-JKFIT

    Orbital Energies [Eh]
    ---------------------

    Doubly Occupied:

       1A    -91.667944     2A    -11.057151     3A    -11.054474
       4A     -8.665709     5A     -6.346891     6A     -6.345429
       7A     -6.345412     8A     -0.873195     9A     -0.687056
      10A     -0.574880    11A     -0.459161    12A     -0.403261
      13A     -0.381327    14A     -0.339599    15A     -0.171957
      16A     -0.087257    17A     -0.087026

  @DF-RHF Final Energy:  -476.20354209941104

   => Energetics <=

    Nuclear Repulsion Energy =             95.4998325975583953
    One-Electron Energy =                -852.3112910740288726
    Two-Electron Energy =                 280.6079163770594960
    Total Energy =                       -476.2035420994110382
  Basis Set: (AUG-CC-PVTZ AUX)
    Blend: AUG-CC-PVTZ-RI
    Molecular point group: c1

    Geometry (in Angstrom), charge = -1, multiplicity = 1:

       Center              X                  Y                   Z               Mass
    ------------   -----------------  -----------------  -----------------  -----------------
         S            0.827064562446    -0.779393478233     0.000000000000    31.972071174400
         C           -0.161252937554     0.997521221767     0.000000000000    12.000000000000
         C           -1.583856437554     0.680381521767     0.000000000000    12.000000000000
         H            0.229909562446     1.413700521767     0.876297000000     1.007825032230
         H            0.229909562446     1.413700521767    -0.876297000000     1.007825032230
         H           -2.078426437554     1.660298521767     0.000000000000     1.007825032230
         H           -1.920165437554     0.129573521767    -0.883416000000     1.007825032230
         H           -1.920165437554     0.129573521767     0.883416000000     1.007825032230

  Basis Set: AUG-CC-PVTZ
    Blend: AUG-CC-PVTZ
  Basis Set: (AUG-CC-PVTZ AUX)
    Blend: AUG-CC-PVTZ-JKFIT
	 Reference Energy          =    -476.2035420994110382 [Eh]
	 Singles Energy            =      -0.0000000000000000 [Eh]
	 Same-Spin Energy          =      -0.1435157829845428 [Eh]
	 Opposite-Spin Energy      =      -0.4914677388675930 [Eh]
	 Correlation Energy        =      -0.6349835218521358 [Eh]
	 Total Energy              =    -476.8385256212631589 [Eh]

	 ================> DF-SCS-MP2 Energies <==================
	-----------------------------------------------------------
	 SCS Same-Spin Scale       =       0.3333333333333333 [-]
	 SCS Opposite-Spin Scale   =       1.2000000000000000 [-]
	 SCS Same-Spin Energy      =      -0.0478385943281809 [Eh]
	 SCS Opposite-Spin Energy  =      -0.5897612866411116 [Eh]
	 SCS Correlation Energy    =      -0.6375998809692925 [Eh]
	 SCS Total Energy          =    -476.8411419803803142 [Eh]
	-----------------------------------------------------------

  Dipole Moment: [D]
     X:    -3.4870      Y:     3.6342      Z:     0.0000     Total:     5.0365

*** Psi4 exiting successfully. Buy a developer a beer!
