                               Psi4 1.3.2 release

  ==> Input File <==

--------------------------------------------------------------------------
#psi4
#
memory 32 gb

molecule  {
-1 1
  S        0.8911030    -0.8186440     0.0000000
  C        0.0000000     0.7834870     0.0000000
  C       -1.5215708     0.6698148     0.0448670
  H        0.2570049     1.3772189     0.8859853
  H        0.2939480     1.3744500    -0.8762970
  H       -2.0143880     1.6210480     0.0000000
  H       -1.8561270     0.0903230    -0.8834160
  H       -1.8561270     0.0903230     0.8834160
units angstrom
no_reorient  #important for SAPT in psi4, default
symmetry c1  #important for SAPT in psi4, default
}

set PROPERTIES_ORIGIN ["COM"]
properties('MP2/aug-cc-pvtz', properties = ['dipole'])
--------------------------------------------------------------------------

    Molecular point group: c1
  Charge       = -1
  Multiplicity = 1
  Basis Set: AUG-CC-PVTZ
    Blend: AUG-CC-PVTZ
  Basis Set: (AUG-CC-PVTZ AUX)
    Blend: AUG-CC-PVTZ-JKFIT

    Orbital Energies [Eh]
    ---------------------

    Doubly Occupied:

       1A    -91.666155     2A    -11.058379     3A    -11.054181
       4A     -8.665960     5A     -6.347542     6A     -6.345880
       7A     -6.345845     8A     -0.858887     9A     -0.700448
      10A     -0.572788    11A     -0.434845    12A     -0.409690
      13A     -0.342595    14A     -0.311268    15A     -0.228362
      16A     -0.089301    17A     -0.088049

  @DF-RHF Final Energy:  -476.22302699220182

   => Energetics <=

    Nuclear Repulsion Energy =             97.1228041704722500
    One-Electron Energy =                -855.6513116596509008
    Two-Electron Energy =                 282.3054804969768270
    Total Energy =                       -476.2230269922018238
  Basis Set: (AUG-CC-PVTZ AUX)
    Blend: AUG-CC-PVTZ-RI
    Molecular point group: c1

    Geometry (in Angstrom), charge = -1, multiplicity = 1:

       Center              X                  Y                   Z               Mass
    ------------   -----------------  -----------------  -----------------  -----------------
         S            0.808898909490    -0.750703527234    -0.008984713367    31.972071174400
         C           -0.082204090510     0.851427472766    -0.008984713367    12.000000000000
         C           -1.603774890510     0.737755272766     0.035882286633    12.000000000000
         H            0.174800809490     1.445159372766     0.877000586633     1.007825032230
         H            0.211743909490     1.442390472766    -0.885281713367     1.007825032230
         H           -2.096592090510     1.688988472766    -0.008984713367     1.007825032230
         H           -1.938331090510     0.158263472766    -0.892400713367     1.007825032230
         H           -1.938331090510     0.158263472766     0.874431286633     1.007825032230

  Basis Set: AUG-CC-PVTZ
    Blend: AUG-CC-PVTZ
  Basis Set: (AUG-CC-PVTZ AUX)
    Blend: AUG-CC-PVTZ-JKFIT
	 Reference Energy          =    -476.2230269922018238 [Eh]
	 Singles Energy            =      -0.0000000000000000 [Eh]
	 Same-Spin Energy          =      -0.1432208907962597 [Eh]
	 Opposite-Spin Energy      =      -0.4898998154942031 [Eh]
	 Correlation Energy        =      -0.6331207062904627 [Eh]
	 Total Energy              =    -476.8561476984922933 [Eh]

	 ================> DF-SCS-MP2 Energies <==================
	-----------------------------------------------------------
	 SCS Same-Spin Scale       =       0.3333333333333333 [-]
	 SCS Opposite-Spin Scale   =       1.2000000000000000 [-]
	 SCS Same-Spin Energy      =      -0.0477402969320865 [Eh]
	 SCS Opposite-Spin Energy  =      -0.5878797785930436 [Eh]
	 SCS Correlation Energy    =      -0.6356200755251302 [Eh]
	 SCS Total Energy          =    -476.8586470677269631 [Eh]
	-----------------------------------------------------------

  Dipole Moment: [D]
     X:    -3.0623      Y:     3.3578      Z:     0.0674     Total:     4.5450

*** Psi4 exiting successfully. Buy a developer a beer!
