                               Psi4 1.3.2 release

  ==> Input File <==

--------------------------------------------------------------------------
#psi4
#
memory 32 gb

molecule  {
-1 1
  S        0.8911030    -0.8186440     0.0000000
  C        0.0022530     0.7569408     0.0000000
  C       -1.5198180     0.6411310     0.0000000
  H        0.2939480     1.3744500     0.8762970
  H        0.2939480     1.3744500    -0.8762970
  H       -2.0314146     1.6122673     0.0000000
  H       -1.8561270     0.0903230    -0.8834160
  H       -1.8561270     0.0903230     0.8834160
units angstrom
no_reorient  #important for SAPT in psi4, default
symmetry c1  #important for SAPT in psi4, default
}

set PROPERTIES_ORIGIN ["COM"]
properties('MP2/aug-cc-pvtz', properties = ['dipole'])
--------------------------------------------------------------------------

    Molecular point group: c1
  Charge       = -1
  Multiplicity = 1
  Basis Set: AUG-CC-PVTZ
    Blend: AUG-CC-PVTZ
  Basis Set: (AUG-CC-PVTZ AUX)
    Blend: AUG-CC-PVTZ-JKFIT

    Orbital Energies [Eh]
    ---------------------

    Doubly Occupied:

       1A    -91.665044     2A    -11.060206     3A    -11.054231
       4A     -8.665355     5A     -6.347006     6A     -6.345289
       7A     -6.345248     8A     -0.858660     9A     -0.703367
      10A     -0.570951    11A     -0.432728    12A     -0.404065
      13A     -0.338248    14A     -0.318550    15A     -0.232271
      16A     -0.089240    17A     -0.087322

  @DF-RHF Final Energy:  -476.22556223844367

   => Energetics <=

    Nuclear Repulsion Energy =             97.5046022006952171
    One-Electron Energy =                -856.4247658424840211
    Two-Electron Energy =                 282.6946014033451320
    Total Energy =                       -476.2255622384436720
  Basis Set: (AUG-CC-PVTZ AUX)
    Blend: AUG-CC-PVTZ-RI
    Molecular point group: c1

    Geometry (in Angstrom), charge = -1, multiplicity = 1:

       Center              X                  Y                   Z               Mass
    ------------   -----------------  -----------------  -----------------  -----------------
         S            0.807782033386    -0.739649818792     0.000000000000    31.972071174400
         C           -0.081067966614     0.835934981208     0.000000000000    12.000000000000
         C           -1.603138966614     0.720125181208     0.000000000000    12.000000000000
         H            0.210627033386     1.453444181208     0.876297000000     1.007825032230
         H            0.210627033386     1.453444181208    -0.876297000000     1.007825032230
         H           -2.114735566614     1.691261481208     0.000000000000     1.007825032230
         H           -1.939447966614     0.169317181208    -0.883416000000     1.007825032230
         H           -1.939447966614     0.169317181208     0.883416000000     1.007825032230

  Basis Set: AUG-CC-PVTZ
    Blend: AUG-CC-PVTZ
  Basis Set: (AUG-CC-PVTZ AUX)
    Blend: AUG-CC-PVTZ-JKFIT
	 Reference Energy          =    -476.2255622384436720 [Eh]
	 Singles Energy            =      -0.0000000000000000 [Eh]
	 Same-Spin Energy          =      -0.1433396563538477 [Eh]
	 Opposite-Spin Energy      =      -0.4898097250152429 [Eh]
	 Correlation Energy        =      -0.6331493813690906 [Eh]
	 Total Energy              =    -476.8587116198127660 [Eh]

	 ================> DF-SCS-MP2 Energies <==================
	-----------------------------------------------------------
	 SCS Same-Spin Scale       =       0.3333333333333333 [-]
	 SCS Opposite-Spin Scale   =       1.2000000000000000 [-]
	 SCS Same-Spin Energy      =      -0.0477798854512826 [Eh]
	 SCS Opposite-Spin Energy  =      -0.5877716700182914 [Eh]
	 SCS Correlation Energy    =      -0.6355515554695740 [Eh]
	 SCS Total Energy          =    -476.8611137939132618 [Eh]
	-----------------------------------------------------------

  Dipole Moment: [D]
     X:    -3.0311      Y:     3.2489      Z:    -0.0000     Total:     4.4433

*** Psi4 exiting successfully. Buy a developer a beer!
