                               Psi4 1.3.2 release

  ==> Input File <==

--------------------------------------------------------------------------
#psi4
#
memory 32 gb

molecule  {
-1 1
  S        0.9200559    -0.8012626     0.0543539
  C        0.0000000     0.7834870     0.0000000
  C       -1.5198180     0.6411310     0.0000000
  H        0.3172773     1.3459731     0.8868391
  H        0.2939480     1.3744500    -0.8762970
  H       -2.0143880     1.6210480     0.0000000
  H       -1.8561270     0.0903230    -0.8834160
  H       -1.8561270     0.0903230     0.8834160
units angstrom
no_reorient  #important for SAPT in psi4, default
symmetry c1  #important for SAPT in psi4, default
}

set PROPERTIES_ORIGIN ["COM"]
properties('MP2/aug-cc-pvtz', properties = ['dipole'])
--------------------------------------------------------------------------

    Molecular point group: c1
  Charge       = -1
  Multiplicity = 1
  Basis Set: AUG-CC-PVTZ
    Blend: AUG-CC-PVTZ
  Basis Set: (AUG-CC-PVTZ AUX)
    Blend: AUG-CC-PVTZ-JKFIT

    Orbital Energies [Eh]
    ---------------------

    Doubly Occupied:

       1A    -91.664852     2A    -11.058177     3A    -11.055666
       4A     -8.664781     5A     -6.346362     6A     -6.344704
       7A     -6.344664     8A     -0.858455     9A     -0.702261
      10A     -0.570302    11A     -0.436770    12A     -0.403701
      13A     -0.343008    14A     -0.325207    15A     -0.224046
      16A     -0.088559    17A     -0.086544

  @DF-RHF Final Energy:  -476.22595460015447

   => Energetics <=

    Nuclear Repulsion Energy =             97.1160082823045769
    One-Electron Energy =                -855.6478077930995596
    Two-Electron Energy =                 282.3058449106404737
    Total Energy =                       -476.2259546001544663
  Basis Set: (AUG-CC-PVTZ AUX)
    Blend: AUG-CC-PVTZ-RI
    Molecular point group: c1

    Geometry (in Angstrom), charge = -1, multiplicity = 1:

       Center              X                  Y                   Z               Mass
    ------------   -----------------  -----------------  -----------------  -----------------
         S            0.821339072919    -0.736272789888     0.025696350948    31.972071174400
         C           -0.098716827081     0.848476810112    -0.028657549052    12.000000000000
         C           -1.618534827081     0.706120810112    -0.028657549052    12.000000000000
         H            0.218560472919     1.410962910112     0.858181550948     1.007825032230
         H            0.195231172919     1.439439810112    -0.904954549052     1.007825032230
         H           -2.113104827081     1.686037810112    -0.028657549052     1.007825032230
         H           -1.954843827081     0.155312810112    -0.912073549052     1.007825032230
         H           -1.954843827081     0.155312810112     0.854758450948     1.007825032230

  Basis Set: AUG-CC-PVTZ
    Blend: AUG-CC-PVTZ
  Basis Set: (AUG-CC-PVTZ AUX)
    Blend: AUG-CC-PVTZ-JKFIT
	 Reference Energy          =    -476.2259546001544663 [Eh]
	 Singles Energy            =      -0.0000000000000000 [Eh]
	 Same-Spin Energy          =      -0.1431163597786098 [Eh]
	 Opposite-Spin Energy      =      -0.4896414385478018 [Eh]
	 Correlation Energy        =      -0.6327577983264117 [Eh]
	 Total Energy              =    -476.8587123984808613 [Eh]

	 ================> DF-SCS-MP2 Energies <==================
	-----------------------------------------------------------
	 SCS Same-Spin Scale       =       0.3333333333333333 [-]
	 SCS Opposite-Spin Scale   =       1.2000000000000000 [-]
	 SCS Same-Spin Energy      =      -0.0477054532595366 [Eh]
	 SCS Opposite-Spin Energy  =      -0.5875697262573621 [Eh]
	 SCS Correlation Energy    =      -0.6352751795168987 [Eh]
	 SCS Total Energy          =    -476.8612297796713619 [Eh]
	-----------------------------------------------------------

  Dipole Moment: [D]
     X:    -3.1385      Y:     3.3252      Z:    -0.0714     Total:     4.5731

*** Psi4 exiting successfully. Buy a developer a beer!
