                               Psi4 1.3.2 release

  ==> Input File <==

--------------------------------------------------------------------------
#psi4
#
memory 32 gb

molecule  {
-1 1
  S        0.8911030    -0.8186440     0.0000000
  C        0.0000000     0.7834870     0.0000000
  C       -1.5198180     0.6411310     0.0000000
  H        0.2939480     1.3744500     0.8762970
  H        0.2939480     1.3744500    -0.8762970
  H       -2.0233326     1.6163463    -0.0162755
  H       -1.8670479     0.1051965    -0.8883258
  H       -1.8561270     0.0903230     0.8834160
units angstrom
no_reorient  #important for SAPT in psi4, default
symmetry c1  #important for SAPT in psi4, default
}

set PROPERTIES_ORIGIN ["COM"]
properties('MP2/aug-cc-pvtz', properties = ['dipole'])
--------------------------------------------------------------------------

    Molecular point group: c1
  Charge       = -1
  Multiplicity = 1
  Basis Set: AUG-CC-PVTZ
    Blend: AUG-CC-PVTZ
  Basis Set: (AUG-CC-PVTZ AUX)
    Blend: AUG-CC-PVTZ-JKFIT

    Orbital Energies [Eh]
    ---------------------

    Doubly Occupied:

       1A    -91.665273     2A    -11.058498     3A    -11.054694
       4A     -8.665164     5A     -6.346746     6A     -6.345088
       7A     -6.345050     8A     -0.858306     9A     -0.700978
      10A     -0.572465    11A     -0.436253    12A     -0.401606
      13A     -0.341630    14A     -0.323961    15A     -0.225749
      16A     -0.088651    17A     -0.087414

  @DF-RHF Final Energy:  -476.22625078600606

   => Energetics <=

    Nuclear Repulsion Energy =             97.1928276821699910
    One-Electron Energy =                -855.8031015644885429
    Two-Electron Energy =                 282.3840230963124895
    Total Energy =                       -476.2262507860060623
  Basis Set: (AUG-CC-PVTZ AUX)
    Blend: AUG-CC-PVTZ-RI
    Molecular point group: c1

    Geometry (in Angstrom), charge = -1, multiplicity = 1:

       Center              X                  Y                   Z               Mass
    ------------   -----------------  -----------------  -----------------  -----------------
         S            0.808272060074    -0.745184134200     0.000349953401    31.972071174400
         C           -0.082830939926     0.856946865800     0.000349953401    12.000000000000
         C           -1.602648939926     0.714590865800     0.000349953401    12.000000000000
         H            0.211117060074     1.447909865800     0.876646953401     1.007825032230
         H            0.211117060074     1.447909865800    -0.875947046599     1.007825032230
         H           -2.106163539926     1.689806165800    -0.015925546599     1.007825032230
         H           -1.949878839926     0.178656365800    -0.887975846599     1.007825032230
         H           -1.938957939926     0.163782865800     0.883765953401     1.007825032230

  Basis Set: AUG-CC-PVTZ
    Blend: AUG-CC-PVTZ
  Basis Set: (AUG-CC-PVTZ AUX)
    Blend: AUG-CC-PVTZ-JKFIT
	 Reference Energy          =    -476.2262507860060623 [Eh]
	 Singles Energy            =      -0.0000000000000000 [Eh]
	 Same-Spin Energy          =      -0.1431092679070902 [Eh]
	 Opposite-Spin Energy      =      -0.4896473822650622 [Eh]
	 Correlation Energy        =      -0.6327566501721524 [Eh]
	 Total Energy              =    -476.8590074361782172 [Eh]

	 ================> DF-SCS-MP2 Energies <==================
	-----------------------------------------------------------
	 SCS Same-Spin Scale       =       0.3333333333333333 [-]
	 SCS Opposite-Spin Scale   =       1.2000000000000000 [-]
	 SCS Same-Spin Energy      =      -0.0477030893023634 [Eh]
	 SCS Opposite-Spin Energy  =      -0.5875768587180746 [Eh]
	 SCS Correlation Energy    =      -0.6352799480204381 [Eh]
	 SCS Total Energy          =    -476.8615307340264735 [Eh]
	-----------------------------------------------------------

  Dipole Moment: [D]
     X:    -3.0877      Y:     3.3252      Z:    -0.0103     Total:     4.5378

*** Psi4 exiting successfully. Buy a developer a beer!
