                               Psi4 1.3.2 release

  ==> Input File <==

--------------------------------------------------------------------------
#psi4
#
memory 32 gb

molecule  {
-1 1
  S        0.8762172    -0.8266040    -0.0271811
  C        0.0000000     0.7834870     0.0000000
  C       -1.5198180     0.6411310     0.0000000
  H        0.2821472     1.3884206     0.8706247
  H        0.2939480     1.3744500    -0.8762970
  H       -2.0143880     1.6210480     0.0000000
  H       -1.8561270     0.0903230    -0.8834160
  H       -1.8561270     0.0903230     0.8834160
units angstrom
no_reorient  #important for SAPT in psi4, default
symmetry c1  #important for SAPT in psi4, default
}

set PROPERTIES_ORIGIN ["COM"]
properties('MP2/aug-cc-pvtz', properties = ['dipole'])
--------------------------------------------------------------------------

    Molecular point group: c1
  Charge       = -1
  Multiplicity = 1
  Basis Set: AUG-CC-PVTZ
    Blend: AUG-CC-PVTZ
  Basis Set: (AUG-CC-PVTZ AUX)
    Blend: AUG-CC-PVTZ-JKFIT

    Orbital Energies [Eh]
    ---------------------

    Doubly Occupied:

       1A    -91.665486     2A    -11.058312     3A    -11.054029
       4A     -8.665361     5A     -6.346942     6A     -6.345286
       7A     -6.345249     8A     -0.858474     9A     -0.699678
      10A     -0.573474    11A     -0.435143    12A     -0.402574
      13A     -0.340975    14A     -0.322385    15A     -0.226415
      16A     -0.088771    17A     -0.087701

  @DF-RHF Final Energy:  -476.22622037129503

   => Energetics <=

    Nuclear Repulsion Energy =             97.2750799285601033
    One-Electron Energy =                -855.9700918473211004
    Two-Electron Energy =                 282.4687915474659690
    Total Energy =                       -476.2262203712950281
  Basis Set: (AUG-CC-PVTZ AUX)
    Blend: AUG-CC-PVTZ-RI
    Molecular point group: c1

    Geometry (in Angstrom), charge = -1, multiplicity = 1:

       Center              X                  Y                   Z               Mass
    ------------   -----------------  -----------------  -----------------  -----------------
         S            0.801053738810    -0.749035557809    -0.012843522600    31.972071174400
         C           -0.075163461190     0.861055442191     0.014337577400    12.000000000000
         C           -1.594981461190     0.718699442191     0.014337577400    12.000000000000
         H            0.206983738810     1.465989042191     0.884962277400     1.007825032230
         H            0.218784538810     1.452018442191    -0.861959422600     1.007825032230
         H           -2.089551461190     1.698616442191     0.014337577400     1.007825032230
         H           -1.931290461190     0.167891442191    -0.869078422600     1.007825032230
         H           -1.931290461190     0.167891442191     0.897753577400     1.007825032230

  Basis Set: AUG-CC-PVTZ
    Blend: AUG-CC-PVTZ
  Basis Set: (AUG-CC-PVTZ AUX)
    Blend: AUG-CC-PVTZ-JKFIT
	 Reference Energy          =    -476.2262203712950281 [Eh]
	 Singles Energy            =      -0.0000000000000000 [Eh]
	 Same-Spin Energy          =      -0.1431541165146153 [Eh]
	 Opposite-Spin Energy      =      -0.4897151482473397 [Eh]
	 Correlation Energy        =      -0.6328692647619550 [Eh]
	 Total Energy              =    -476.8590896360569786 [Eh]

	 ================> DF-SCS-MP2 Energies <==================
	-----------------------------------------------------------
	 SCS Same-Spin Scale       =       0.3333333333333333 [-]
	 SCS Opposite-Spin Scale   =       1.2000000000000000 [-]
	 SCS Same-Spin Energy      =      -0.0477180388382051 [Eh]
	 SCS Opposite-Spin Energy  =      -0.5876581778968076 [Eh]
	 SCS Correlation Energy    =      -0.6353762167350128 [Eh]
	 SCS Total Energy          =    -476.8615965880300678 [Eh]
	-----------------------------------------------------------

  Dipole Moment: [D]
     X:    -3.0541      Y:     3.3208      Z:     0.0345     Total:     4.5118

*** Psi4 exiting successfully. Buy a developer a beer!
