                               Psi4 1.3.2 release

  ==> Input File <==

--------------------------------------------------------------------------
#psi4
#
memory 32 gb

molecule  {
-1 1
  S        0.8911030    -0.8186440     0.0000000
  C        0.0000000     0.7834870     0.0000000
  C       -1.5198180     0.6411310     0.0000000
  H        0.2731204     1.3325775     0.9096395
  H        0.2731204     1.3325775    -0.9096395
  H       -2.0143880     1.6210480     0.0000000
  H       -1.8561270     0.0903230    -0.8834160
  H       -1.8561270     0.0903230     0.8834160
units angstrom
no_reorient  #important for SAPT in psi4, default
symmetry c1  #important for SAPT in psi4, default
}

set PROPERTIES_ORIGIN ["COM"]
properties('MP2/aug-cc-pvtz', properties = ['dipole'])
--------------------------------------------------------------------------

    Molecular point group: c1
  Charge       = -1
  Multiplicity = 1
  Basis Set: AUG-CC-PVTZ
    Blend: AUG-CC-PVTZ
  Basis Set: (AUG-CC-PVTZ AUX)
    Blend: AUG-CC-PVTZ-JKFIT

    Orbital Energies [Eh]
    ---------------------

    Doubly Occupied:

       1A    -91.664678     2A    -11.058575     3A    -11.053925
       4A     -8.664651     5A     -6.346229     6A     -6.344575
       7A     -6.344540     8A     -0.859257     9A     -0.700248
      10A     -0.569304    11A     -0.441923    12A     -0.402137
      13A     -0.337206    14A     -0.328730    15A     -0.223282
      16A     -0.087919    17A     -0.087471

  @DF-RHF Final Energy:  -476.22544715832635

   => Energetics <=

    Nuclear Repulsion Energy =             97.2976883960984225
    One-Electron Energy =                -856.0169668206882534
    Two-Electron Energy =                 282.4938312662634416
    Total Energy =                       -476.2254471583263467
  Basis Set: (AUG-CC-PVTZ AUX)
    Blend: AUG-CC-PVTZ-RI
    Molecular point group: c1

    Geometry (in Angstrom), charge = -1, multiplicity = 1:

       Center              X                  Y                   Z               Mass
    ------------   -----------------  -----------------  -----------------  -----------------
         S            0.808631997371    -0.743632751705     0.000000000000    31.972071174400
         C           -0.082471002629     0.858498248295     0.000000000000    12.000000000000
         C           -1.602289002629     0.716142248295     0.000000000000    12.000000000000
         H            0.190649397371     1.407588748295     0.909639500000     1.007825032230
         H            0.190649397371     1.407588748295    -0.909639500000     1.007825032230
         H           -2.096859002629     1.696059248295     0.000000000000     1.007825032230
         H           -1.938598002629     0.165334248295    -0.883416000000     1.007825032230
         H           -1.938598002629     0.165334248295     0.883416000000     1.007825032230

  Basis Set: AUG-CC-PVTZ
    Blend: AUG-CC-PVTZ
  Basis Set: (AUG-CC-PVTZ AUX)
    Blend: AUG-CC-PVTZ-JKFIT
	 Reference Energy          =    -476.2254471583263467 [Eh]
	 Singles Energy            =      -0.0000000000000000 [Eh]
	 Same-Spin Energy          =      -0.1432225522181932 [Eh]
	 Opposite-Spin Energy      =      -0.4898063195058195 [Eh]
	 Correlation Energy        =      -0.6330288717240127 [Eh]
	 Total Energy              =    -476.8584760300503831 [Eh]

	 ================> DF-SCS-MP2 Energies <==================
	-----------------------------------------------------------
	 SCS Same-Spin Scale       =       0.3333333333333333 [-]
	 SCS Opposite-Spin Scale   =       1.2000000000000000 [-]
	 SCS Same-Spin Energy      =      -0.0477408507393977 [Eh]
	 SCS Opposite-Spin Energy  =      -0.5877675834069833 [Eh]
	 SCS Correlation Energy    =      -0.6355084341463810 [Eh]
	 SCS Total Energy          =    -476.8609555924727488 [Eh]
	-----------------------------------------------------------

  Dipole Moment: [D]
     X:    -3.0807      Y:     3.3324      Z:    -0.0000     Total:     4.5382

*** Psi4 exiting successfully. Buy a developer a beer!
