                               Psi4 1.4a3.dev225

  ==> Input File <==

--------------------------------------------------------------------------
#psi4
#
memory 32 gb

molecule  {
-1 1
  S        1.1996750    -0.1541640    -0.0000130
  C       -0.4531560     0.6408210     0.0000070
  C       -1.6097280    -0.3542770     0.0000150
  H       -0.5563054     1.3042182     0.8923770
  H       -0.5544760     1.2923430    -0.8763740
  H       -2.5798990     0.1588220     0.0000240
  H       -1.5643380    -0.9980720    -0.8832230
  H       -1.5643230    -0.9980760     0.8832490
units angstrom
no_reorient  #important for SAPT in psi4, default
symmetry c1  #important for SAPT in psi4, default
}

set PROPERTIES_ORIGIN ["COM"]
properties('MP2/aug-cc-pvtz', properties = ['dipole'])
--------------------------------------------------------------------------

    Molecular point group: c1
  Charge       = -1
  Multiplicity = 1
  Basis Set: AUG-CC-PVTZ
    Blend: AUG-CC-PVTZ
  Basis Set: (AUG-CC-PVTZ AUX)
    Blend: AUG-CC-PVTZ-JKFIT

    Orbital Energies [Eh]
    ---------------------

    Doubly Occupied:

       1A    -91.665503     2A    -11.060811     3A    -11.054661
       4A     -8.665382     5A     -6.346960     6A     -6.345304
       7A     -6.345267     8A     -0.857956     9A     -0.699754
      10A     -0.571211    11A     -0.434676    12A     -0.403207
      13A     -0.341398    14A     -0.321835    15A     -0.225664
      16A     -0.088798    17A     -0.087543

  @DF-RHF Final Energy:  -476.22593953272900

   => Energetics <=

    Nuclear Repulsion Energy =             97.1483015586916707
    One-Electron Energy =                -855.7166240702049436
    Two-Electron Energy =                 282.3423829787843147
    Total Energy =                       -476.2259395327290008
  Basis Set: (AUG-CC-PVTZ AUX)
    Blend: AUG-CC-PVTZ-RI
    Molecular point group: c1

    Geometry (in Angstrom), charge = -1, multiplicity = 1:

       Center              X                  Y                   Z               Mass
    ------------   -----------------  -----------------  -----------------  -----------------
         S            1.089387316361    -0.142277031965    -0.000275689134    31.972071174400
         C           -0.563443683639     0.652707968035    -0.000255689134    12.000000000000
         C           -1.720015683639    -0.342390031965    -0.000247689134    12.000000000000
         H           -0.666593083639     1.316105168035     0.892114310866     1.007825032230
         H           -0.664763683639     1.304229968035    -0.876636689134     1.007825032230
         H           -2.690186683639     0.170708968035    -0.000238689134     1.007825032230
         H           -1.674625683639    -0.986185031965    -0.883485689134     1.007825032230
         H           -1.674610683639    -0.986189031965     0.882986310866     1.007825032230

  Basis Set: AUG-CC-PVTZ
    Blend: AUG-CC-PVTZ
  Basis Set: (AUG-CC-PVTZ AUX)
    Blend: AUG-CC-PVTZ-JKFIT
	 Reference Energy          =    -476.2259395327290008 [Eh]
	 Singles Energy            =      -0.0000000000000000 [Eh]
	 Same-Spin Energy          =      -0.1431383353798344 [Eh]
	 Opposite-Spin Energy      =      -0.4897899222165465 [Eh]
	 Correlation Energy        =      -0.6329282575963809 [Eh]
	 Total Energy              =    -476.8588677903254052 [Eh]

	 ================> DF-SCS-MP2 Energies <==================
	-----------------------------------------------------------
	 SCS Same-Spin Scale       =       0.3333333333333333 [-]
	 SCS Opposite-Spin Scale   =       1.2000000000000000 [-]
	 SCS Same-Spin Energy      =      -0.0477127784599448 [Eh]
	 SCS Opposite-Spin Energy  =      -0.5877479066598558 [Eh]
	 SCS Correlation Energy    =      -0.6354606851198006 [Eh]
	 SCS Total Energy          =    -476.8614002178488249 [Eh]
	-----------------------------------------------------------

  Dipole Moment: [D]
     X:    -4.4199      Y:     0.9132      Z:    -0.0119     Total:     4.5133

*** Psi4 exiting successfully. Buy a developer a beer!
