                               Psi4 1.3.2 release

  ==> Input File <==

--------------------------------------------------------------------------
#psi4
#
memory 32 gb

molecule  {
-1 1
  S        0.8060327    -0.8630851     0.0000000
  C        0.0000000     0.7834870     0.0000000
  C       -1.5102848     0.5617850     0.0000000
  H        0.2939480     1.3744500     0.8762970
  H        0.2939480     1.3744500    -0.8762970
  H       -2.0143880     1.6210480     0.0000000
  H       -1.8561270     0.0903230    -0.8834160
  H       -1.8561270     0.0903230     0.8834160
units angstrom
no_reorient  #important for SAPT in psi4, default
symmetry c1  #important for SAPT in psi4, default
}

set PROPERTIES_ORIGIN ["COM"]
properties('MP2/aug-cc-pvtz', properties = ['dipole'])
--------------------------------------------------------------------------

    Molecular point group: c1
  Charge       = -1
  Multiplicity = 1
  Basis Set: AUG-CC-PVTZ
    Blend: AUG-CC-PVTZ
  Basis Set: (AUG-CC-PVTZ AUX)
    Blend: AUG-CC-PVTZ-JKFIT

    Orbital Energies [Eh]
    ---------------------

    Doubly Occupied:

       1A    -91.664297     2A    -11.059655     3A    -11.055086
       4A     -8.664432     5A     -6.345998     6A     -6.344354
       7A     -6.344313     8A     -0.859935     9A     -0.697873
      10A     -0.576106    11A     -0.447766    12A     -0.376823
      13A     -0.349451    14A     -0.334925    15A     -0.219874
      16A     -0.088280    17A     -0.086987

  @DF-RHF Final Energy:  -476.21933441441337

   => Energetics <=

    Nuclear Repulsion Energy =             97.9304585445229350
    One-Electron Energy =                -857.2672748178616757
    Two-Electron Energy =                 283.1174818589253732
    Total Energy =                       -476.2193344144133675
  Basis Set: (AUG-CC-PVTZ AUX)
    Blend: AUG-CC-PVTZ-RI
    Molecular point group: c1

    Geometry (in Angstrom), charge = -1, multiplicity = 1:

       Center              X                  Y                   Z               Mass
    ------------   -----------------  -----------------  -----------------  -----------------
         S            0.765578479325    -0.750562282642     0.000000000000    31.972071174400
         C           -0.040454220675     0.896009817358     0.000000000000    12.000000000000
         C           -1.550739020675     0.674307817358     0.000000000000    12.000000000000
         H            0.253493779325     1.486972817358     0.876297000000     1.007825032230
         H            0.253493779325     1.486972817358    -0.876297000000     1.007825032230
         H           -2.054842220675     1.733570817358     0.000000000000     1.007825032230
         H           -1.896581220675     0.202845817358    -0.883416000000     1.007825032230
         H           -1.896581220675     0.202845817358     0.883416000000     1.007825032230

  Basis Set: AUG-CC-PVTZ
    Blend: AUG-CC-PVTZ
  Basis Set: (AUG-CC-PVTZ AUX)
    Blend: AUG-CC-PVTZ-JKFIT
	 Reference Energy          =    -476.2193344144133675 [Eh]
	 Singles Energy            =      -0.0000000000000000 [Eh]
	 Same-Spin Energy          =      -0.1433538774896297 [Eh]
	 Opposite-Spin Energy      =      -0.4901176842655538 [Eh]
	 Correlation Energy        =      -0.6334715617551835 [Eh]
	 Total Energy              =    -476.8528059761685540 [Eh]

	 ================> DF-SCS-MP2 Energies <==================
	-----------------------------------------------------------
	 SCS Same-Spin Scale       =       0.3333333333333333 [-]
	 SCS Opposite-Spin Scale   =       1.2000000000000000 [-]
	 SCS Same-Spin Energy      =      -0.0477846258298766 [Eh]
	 SCS Opposite-Spin Energy  =      -0.5881412211186645 [Eh]
	 SCS Correlation Energy    =      -0.6359258469485410 [Eh]
	 SCS Total Energy          =    -476.8552602613619342 [Eh]
	-----------------------------------------------------------

  Dipole Moment: [D]
     X:    -2.8953      Y:     3.1780      Z:    -0.0000     Total:     4.2991

*** Psi4 exiting successfully. Buy a developer a beer!
