                               Psi4 1.3.2 release

  ==> Input File <==

--------------------------------------------------------------------------
#psi4
#
memory 32 gb

molecule  {
-1 1
  S        0.8911030    -0.8186440     0.0000000
  C        0.0000000     0.7834870     0.0000000
  C       -1.5198180     0.6411310     0.0000000
  H        0.2870922     1.3606669     0.8876827
  H        0.2870922     1.3606669    -0.8876827
  H       -2.0143880     1.6210480     0.0000000
  H       -1.8561270     0.0903230    -0.8834160
  H       -1.8561270     0.0903230     0.8834160
units angstrom
no_reorient  #important for SAPT in psi4, default
symmetry c1  #important for SAPT in psi4, default
}

set PROPERTIES_ORIGIN ["COM"]
properties('MP2/aug-cc-pvtz', properties = ['dipole'])
--------------------------------------------------------------------------

    Molecular point group: c1
  Charge       = -1
  Multiplicity = 1
  Basis Set: AUG-CC-PVTZ
    Blend: AUG-CC-PVTZ
  Basis Set: (AUG-CC-PVTZ AUX)
    Blend: AUG-CC-PVTZ-JKFIT

    Orbital Energies [Eh]
    ---------------------

    Doubly Occupied:

       1A    -91.665047     2A    -11.058383     3A    -11.054363
       4A     -8.664966     5A     -6.346546     6A     -6.344892
       7A     -6.344855     8A     -0.858699     9A     -0.700403
      10A     -0.571342    11A     -0.437742    12A     -0.402670
      13A     -0.340153    14A     -0.325295    15A     -0.224899
      16A     -0.088382    17A     -0.087440

  @DF-RHF Final Energy:  -476.22629610250021

   => Energetics <=

    Nuclear Repulsion Energy =             97.2437904879677859
    One-Electron Energy =                -855.9080192413165378
    Two-Electron Energy =                 282.4379326508485519
    Total Energy =                       -476.2262961025002141
  Basis Set: (AUG-CC-PVTZ AUX)
    Blend: AUG-CC-PVTZ-RI
    Molecular point group: c1

    Geometry (in Angstrom), charge = -1, multiplicity = 1:

       Center              X                  Y                   Z               Mass
    ------------   -----------------  -----------------  -----------------  -----------------
         S            0.808170405708    -0.744560751881     0.000000000000    31.972071174400
         C           -0.082932594292     0.857570248119     0.000000000000    12.000000000000
         C           -1.602750594292     0.715214248119     0.000000000000    12.000000000000
         H            0.204159605708     1.434750148119     0.887682700000     1.007825032230
         H            0.204159605708     1.434750148119    -0.887682700000     1.007825032230
         H           -2.097320594292     1.695131248119     0.000000000000     1.007825032230
         H           -1.939059594292     0.164406248119    -0.883416000000     1.007825032230
         H           -1.939059594292     0.164406248119     0.883416000000     1.007825032230

  Basis Set: AUG-CC-PVTZ
    Blend: AUG-CC-PVTZ
  Basis Set: (AUG-CC-PVTZ AUX)
    Blend: AUG-CC-PVTZ-JKFIT
	 Reference Energy          =    -476.2262961025002141 [Eh]
	 Singles Energy            =      -0.0000000000000000 [Eh]
	 Same-Spin Energy          =      -0.1431483890451896 [Eh]
	 Opposite-Spin Energy      =      -0.4896994119879600 [Eh]
	 Correlation Energy        =      -0.6328478010331495 [Eh]
	 Total Energy              =    -476.8591439035333792 [Eh]

	 ================> DF-SCS-MP2 Energies <==================
	-----------------------------------------------------------
	 SCS Same-Spin Scale       =       0.3333333333333333 [-]
	 SCS Opposite-Spin Scale   =       1.2000000000000000 [-]
	 SCS Same-Spin Energy      =      -0.0477161296817299 [Eh]
	 SCS Opposite-Spin Energy  =      -0.5876392943855520 [Eh]
	 SCS Correlation Energy    =      -0.6353554240672818 [Eh]
	 SCS Total Energy          =    -476.8616515265674707 [Eh]
	-----------------------------------------------------------

  Dipole Moment: [D]
     X:    -3.0822      Y:     3.3269      Z:     0.0000     Total:     4.5352

*** Psi4 exiting successfully. Buy a developer a beer!
