                               Psi4 1.3.2 release

  ==> Input File <==

--------------------------------------------------------------------------
#psi4
#
memory 32 gb

molecule  {
0 1
  O       -0.0235647    -0.6083032    -0.2304750
  O        1.3565350     1.0092090     0.6922610
  C       -1.1649080     0.1839100     0.2068510
  C       -1.4179200     1.2632690    -0.8279250
  C       -2.2926420    -0.8179640     0.3227230
  C        1.2071900    -0.0583260     0.1211490
  C        2.3131480    -0.9859210    -0.3056480
  H       -0.9820975     0.6557320     1.1756763
  H       -2.3155240     1.8326500    -0.5690360
  H       -0.5734580     1.9518970    -0.8732450
  H       -1.5650280     0.8097800    -1.8115960
  H       -3.2117410    -0.3160520     0.6373810
  H       -2.0484320    -1.5899530     1.0551950
  H       -2.4714270    -1.2985150    -0.6417240
  H        2.2239110    -1.2047570    -1.3723200
  H        2.2280730    -1.9316170     0.2368100
  H        3.2753640    -0.5218720    -0.0948010
units angstrom
no_reorient  #important for SAPT in psi4, default
symmetry c1  #important for SAPT in psi4, default
}

set PROPERTIES_ORIGIN ["COM"]
properties('MP2/aug-cc-pvtz', properties = ['dipole'])
--------------------------------------------------------------------------

    Molecular point group: c1
  Charge       = 0
  Multiplicity = 1
  Basis Set: AUG-CC-PVTZ
    Blend: AUG-CC-PVTZ
  Basis Set: (AUG-CC-PVTZ AUX)
    Blend: AUG-CC-PVTZ-JKFIT

    Orbital Energies [Eh]
    ---------------------

    Doubly Occupied:

       1A    -20.597030     2A    -20.549680     3A    -11.386702
       4A    -11.288292     5A    -11.242265     6A    -11.218934
       7A    -11.214838     8A     -1.439663     9A     -1.352596
      10A     -1.071609    11A     -1.007159    12A     -0.943818
      13A     -0.828243    14A     -0.766679    15A     -0.694254
      16A     -0.662217    17A     -0.650254    18A     -0.609117
      19A     -0.587368    20A     -0.578948    21A     -0.561805
      22A     -0.546759    23A     -0.531720    24A     -0.518099
      25A     -0.503007    26A     -0.481739    27A     -0.453252
      28A     -0.444273

  @DF-RHF Final Energy:  -345.03704531867726

   => Energetics <=

    Nuclear Repulsion Energy =            320.4040865950589136
    One-Electron Energy =               -1105.4216195562744360
    Two-Electron Energy =                 439.9804876425382076
    Total Energy =                       -345.0370453186772579
  Basis Set: (AUG-CC-PVTZ AUX)
    Blend: AUG-CC-PVTZ-RI
    Molecular point group: c1

    Geometry (in Angstrom), charge = 0, multiplicity = 1:

       Center              X                  Y                   Z               Mass
    ------------   -----------------  -----------------  -----------------  -----------------
         O           -0.019412879457    -0.606409792741    -0.223780465133    15.994914619570
         O            1.360686820543     1.011102407259     0.698955534867    15.994914619570
         C           -1.160756179457     0.185803407259     0.213545534867    12.000000000000
         C           -1.413768179457     1.265162407259    -0.821230465133    12.000000000000
         C           -2.288490179457    -0.816070592741     0.329417534867    12.000000000000
         C            1.211341820543    -0.056432592741     0.127843534867    12.000000000000
         C            2.317299820543    -0.984027592741    -0.298953465133    12.000000000000
         H           -0.977945679457     0.657625407259     1.182370834867     1.007825032230
         H           -2.311372179457     1.834543407259    -0.562341465133     1.007825032230
         H           -0.569306179457     1.953790407259    -0.866550465133     1.007825032230
         H           -1.560876179457     0.811673407259    -1.804901465133     1.007825032230
         H           -3.207589179457    -0.314158592741     0.644075534867     1.007825032230
         H           -2.044280179457    -1.588059592741     1.061889534867     1.007825032230
         H           -2.467275179457    -1.296621592741    -0.635029465133     1.007825032230
         H            2.228062820543    -1.202863592741    -1.365625465133     1.007825032230
         H            2.232224820543    -1.929723592741     0.243504534867     1.007825032230
         H            3.279515820543    -0.519978592741    -0.088106465133     1.007825032230

  Basis Set: AUG-CC-PVTZ
    Blend: AUG-CC-PVTZ
  Basis Set: (AUG-CC-PVTZ AUX)
    Blend: AUG-CC-PVTZ-JKFIT
	 Reference Energy          =    -345.0370453186772579 [Eh]
	 Singles Energy            =      -0.0000000000000000 [Eh]
	 Same-Spin Energy          =      -0.3421191656119418 [Eh]
	 Opposite-Spin Energy      =      -1.1340982250743399 [Eh]
	 Correlation Energy        =      -1.4762173906862817 [Eh]
	 Total Energy              =    -346.5132627093635165 [Eh]

	 ================> DF-SCS-MP2 Energies <==================
	-----------------------------------------------------------
	 SCS Same-Spin Scale       =       0.3333333333333333 [-]
	 SCS Opposite-Spin Scale   =       1.2000000000000000 [-]
	 SCS Same-Spin Energy      =      -0.1140397218706473 [Eh]
	 SCS Opposite-Spin Energy  =      -1.3609178700892077 [Eh]
	 SCS Correlation Energy    =      -1.4749575919598550 [Eh]
	 SCS Total Energy          =    -346.5120029106371362 [Eh]
	-----------------------------------------------------------

  Dipole Moment: [D]
     X:    -0.7582      Y:    -1.3034      Z:    -0.6474     Total:     1.6410

*** Psi4 exiting successfully. Buy a developer a beer!
