                               Psi4 1.3.2 release

  ==> Input File <==

--------------------------------------------------------------------------
#psi4
#
memory 32 gb

molecule  {
0 1
  O       -0.0045998    -0.5856957    -0.1832098
  O        1.3565350     1.0092090     0.6922610
  C       -1.1649080     0.1839100     0.2068510
  C       -1.4179200     1.2632690    -0.8279250
  C       -2.2926420    -0.8179640     0.3227230
  C        1.2071900    -0.0583260     0.1211490
  C        2.3220076    -0.9773692    -0.3010743
  H       -0.9474970     0.6396690     1.1762190
  H       -2.3155240     1.8326500    -0.5690360
  H       -0.5734580     1.9518970    -0.8732450
  H       -1.5650280     0.8097800    -1.8115960
  H       -3.2117410    -0.3160520     0.6373810
  H       -2.0484320    -1.5899530     1.0551950
  H       -2.4714270    -1.2985150    -0.6417240
  H        2.2239110    -1.2047570    -1.3723200
  H        2.2280730    -1.9316170     0.2368100
  H        3.2753640    -0.5218720    -0.0948010
units angstrom
no_reorient  #important for SAPT in psi4, default
symmetry c1  #important for SAPT in psi4, default
}

set PROPERTIES_ORIGIN ["COM"]
properties('MP2/aug-cc-pvtz', properties = ['dipole'])
--------------------------------------------------------------------------

    Molecular point group: c1
  Charge       = 0
  Multiplicity = 1
  Basis Set: AUG-CC-PVTZ
    Blend: AUG-CC-PVTZ
  Basis Set: (AUG-CC-PVTZ AUX)
    Blend: AUG-CC-PVTZ-JKFIT

    Orbital Energies [Eh]
    ---------------------

    Doubly Occupied:

       1A    -20.596607     2A    -20.541406     3A    -11.381472
       4A    -11.289668     5A    -11.241254     6A    -11.221021
       7A    -11.216474     8A     -1.450636     9A     -1.350952
      10A     -1.075477    11A     -1.006675    12A     -0.945422
      13A     -0.839462    14A     -0.765049    15A     -0.692429
      16A     -0.665933    17A     -0.654644    18A     -0.610447
      19A     -0.584812    20A     -0.581508    21A     -0.561434
      22A     -0.547874    23A     -0.534794    24A     -0.519470
      25A     -0.501102    26A     -0.481690    27A     -0.451863
      28A     -0.442053

  @DF-RHF Final Energy:  -345.04222676043690

   => Energetics <=

    Nuclear Repulsion Energy =            321.3401524188453777
    One-Electron Energy =               -1107.2615046771963989
    Two-Electron Energy =                 440.8791254979141172
    Total Energy =                       -345.0422267604369040
  Basis Set: (AUG-CC-PVTZ AUX)
    Blend: AUG-CC-PVTZ-RI
    Molecular point group: c1

    Geometry (in Angstrom), charge = 0, multiplicity = 1:

       Center              X                  Y                   Z               Mass
    ------------   -----------------  -----------------  -----------------  -----------------
         O           -0.004803194214    -0.588191891729    -0.184465196087    15.994914619570
         O            1.356331605786     1.006712808271     0.691005603913    15.994914619570
         C           -1.165111394214     0.181413808271     0.205595603913    12.000000000000
         C           -1.418123394214     1.260772808271    -0.829180396087    12.000000000000
         C           -2.292845394214    -0.820460191729     0.321467603913    12.000000000000
         C            1.206986605786    -0.060822191729     0.119893603913    12.000000000000
         C            2.321804205786    -0.979865391729    -0.302329696087    12.000000000000
         H           -0.947700394214     0.637172808271     1.174963603913     1.007825032230
         H           -2.315727394214     1.830153808271    -0.570291396087     1.007825032230
         H           -0.573661394214     1.949400808271    -0.874500396087     1.007825032230
         H           -1.565231394214     0.807283808271    -1.812851396087     1.007825032230
         H           -3.211944394214    -0.318548191729     0.636125603913     1.007825032230
         H           -2.048635394214    -1.592449191729     1.053939603913     1.007825032230
         H           -2.471630394214    -1.301011191729    -0.642979396087     1.007825032230
         H            2.223707605786    -1.207253191729    -1.373575396087     1.007825032230
         H            2.227869605786    -1.934113191729     0.235554603913     1.007825032230
         H            3.275160605786    -0.524368191729    -0.096056396087     1.007825032230

  Basis Set: AUG-CC-PVTZ
    Blend: AUG-CC-PVTZ
  Basis Set: (AUG-CC-PVTZ AUX)
    Blend: AUG-CC-PVTZ-JKFIT
	 Reference Energy          =    -345.0422267604369040 [Eh]
	 Singles Energy            =      -0.0000000000000000 [Eh]
	 Same-Spin Energy          =      -0.3413579079721537 [Eh]
	 Opposite-Spin Energy      =      -1.1318365250660256 [Eh]
	 Correlation Energy        =      -1.4731944330381794 [Eh]
	 Total Energy              =    -346.5154211934751061 [Eh]

	 ================> DF-SCS-MP2 Energies <==================
	-----------------------------------------------------------
	 SCS Same-Spin Scale       =       0.3333333333333333 [-]
	 SCS Opposite-Spin Scale   =       1.2000000000000000 [-]
	 SCS Same-Spin Energy      =      -0.1137859693240512 [Eh]
	 SCS Opposite-Spin Energy  =      -1.3582038300792307 [Eh]
	 SCS Correlation Energy    =      -1.4719897994032820 [Eh]
	 SCS Total Energy          =    -346.5142165598401789 [Eh]
	-----------------------------------------------------------

  Dipole Moment: [D]
     X:    -0.9520      Y:    -1.4027      Z:    -0.7594     Total:     1.8576

*** Psi4 exiting successfully. Buy a developer a beer!
