                               Psi4 1.4a3.dev225

  ==> Input File <==

--------------------------------------------------------------------------
#psi4
#
memory 32 gb

molecule  {
0 1
  O       -0.1077990    -0.5624470     0.2079430
  O       -1.3021290     1.1073090    -0.7840490
  C        1.1279890     0.0542050    -0.2592580
  C        1.5159640     1.1744160     0.6880040
  C        2.1417370    -1.0702820    -0.3128090
  C       -1.2395390     0.0685331    -0.1249671
  C       -2.4469700    -0.6645530     0.4162300
  H        0.9393410     0.4580410    -1.2580840
  H        2.4644540     1.6220060     0.3756670
  H        0.7505430     1.9525630     0.6895830
  H        1.6331200     0.7804540     1.7015330
  H        3.1019190    -0.6925110    -0.6758780
  H        1.8018300    -1.8630990    -0.9832080
  H        2.2880710    -1.4948000     0.6840490
  H       -2.3821170    -0.7144520     1.5057940
  H       -2.4521220    -1.6889170     0.0368310
  H       -3.3591990    -0.1487030     0.1192220
units angstrom
no_reorient  #important for SAPT in psi4, default
symmetry c1  #important for SAPT in psi4, default
}

set PROPERTIES_ORIGIN ["COM"]
properties('MP2/aug-cc-pvtz', properties = ['dipole'])
--------------------------------------------------------------------------

    Molecular point group: c1
  Charge       = 0
  Multiplicity = 1
  Basis Set: AUG-CC-PVTZ
    Blend: AUG-CC-PVTZ
  Basis Set: (AUG-CC-PVTZ AUX)
    Blend: AUG-CC-PVTZ-JKFIT

    Orbital Energies [Eh]
    ---------------------

    Doubly Occupied:

       1A    -20.601713     2A    -20.538328     3A    -11.381289
       4A    -11.293379     5A    -11.239299     6A    -11.223409
       7A    -11.218910     8A     -1.453656     9A     -1.345351
      10A     -1.077752    11A     -1.003801    12A     -0.946900
      13A     -0.841197    14A     -0.767565    15A     -0.689454
      16A     -0.666970    17A     -0.655681    18A     -0.610718
      19A     -0.583673    20A     -0.578223    21A     -0.562278
      22A     -0.549774    23A     -0.535140    24A     -0.519484
      25A     -0.500362    26A     -0.484161    27A     -0.451838
      28A     -0.440402

  @DF-RHF Final Energy:  -345.04117818615646

   => Energetics <=

    Nuclear Repulsion Energy =            321.0683983127888723
    One-Electron Energy =               -1106.6977335142080392
    Two-Electron Energy =                 440.5881570152627091
    Total Energy =                       -345.0411781861564577
  Basis Set: (AUG-CC-PVTZ AUX)
    Blend: AUG-CC-PVTZ-RI
    Molecular point group: c1

    Geometry (in Angstrom), charge = 0, multiplicity = 1:

       Center              X                  Y                   Z               Mass
    ------------   -----------------  -----------------  -----------------  -----------------
         O           -0.063336356566    -0.578705071309     0.228671111690    15.994914619570
         O           -1.257666356566     1.091050928691    -0.763320888310    15.994914619570
         C            1.172451643434     0.037946928691    -0.238529888310    12.000000000000
         C            1.560426643434     1.158157928691     0.708732111690    12.000000000000
         C            2.186199643434    -1.086540071309    -0.292080888310    12.000000000000
         C           -1.195076356566     0.052275028691    -0.104238988310    12.000000000000
         C           -2.402507356566    -0.680811071309     0.436958111690    12.000000000000
         H            0.983803643434     0.441782928691    -1.237355888310     1.007825032230
         H            2.508916643434     1.605747928691     0.396395111690     1.007825032230
         H            0.795005643434     1.936304928691     0.710311111690     1.007825032230
         H            1.677582643434     0.764195928691     1.722261111690     1.007825032230
         H            3.146381643434    -0.708769071309    -0.655149888310     1.007825032230
         H            1.846292643434    -1.879357071309    -0.962479888310     1.007825032230
         H            2.332533643434    -1.511058071309     0.704777111690     1.007825032230
         H           -2.337654356566    -0.730710071309     1.526522111690     1.007825032230
         H           -2.407659356566    -1.705175071309     0.057559111690     1.007825032230
         H           -3.314736356566    -0.164961071309     0.139950111690     1.007825032230

  Basis Set: AUG-CC-PVTZ
    Blend: AUG-CC-PVTZ
  Basis Set: (AUG-CC-PVTZ AUX)
    Blend: AUG-CC-PVTZ-JKFIT
	 Reference Energy          =    -345.0411781861564577 [Eh]
	 Singles Energy            =      -0.0000000000000000 [Eh]
	 Same-Spin Energy          =      -0.3414791071502459 [Eh]
	 Opposite-Spin Energy      =      -1.1323214279079044 [Eh]
	 Correlation Energy        =      -1.4738005350581502 [Eh]
	 Total Energy              =    -346.5149787212146180 [Eh]

	 ================> DF-SCS-MP2 Energies <==================
	-----------------------------------------------------------
	 SCS Same-Spin Scale       =       0.3333333333333333 [-]
	 SCS Opposite-Spin Scale   =       1.2000000000000000 [-]
	 SCS Same-Spin Energy      =      -0.1138263690500820 [Eh]
	 SCS Opposite-Spin Energy  =      -1.3587857134894852 [Eh]
	 SCS Correlation Energy    =      -1.4726120825395672 [Eh]
	 SCS Total Energy          =    -346.5137902686960274 [Eh]
	-----------------------------------------------------------

  Dipole Moment: [D]
     X:     1.0370      Y:    -1.4503      Z:     0.9184     Total:     2.0056

*** Psi4 exiting successfully. Buy a developer a beer!
