                               Psi4 1.3.2 release

  ==> Input File <==

--------------------------------------------------------------------------
#psi4
#
memory 32 gb

molecule  {
0 1
  O        0.0007480    -0.5952090    -0.1877880
  O        1.3565350     1.0092090     0.6922610
  C       -1.1649080     0.1839100     0.2068510
  C       -1.4179200     1.2632690    -0.8279250
  C       -2.2926420    -0.8179640     0.3227230
  C        1.1983240    -0.0768217     0.1375644
  C        2.3131480    -0.9859210    -0.3056480
  H       -0.9474970     0.6396690     1.1762190
  H       -2.3155240     1.8326500    -0.5690360
  H       -0.5734580     1.9518970    -0.8732450
  H       -1.5650280     0.8097800    -1.8115960
  H       -3.2117410    -0.3160520     0.6373810
  H       -2.0484320    -1.5899530     1.0551950
  H       -2.4714270    -1.2985150    -0.6417240
  H        2.2239110    -1.2047570    -1.3723200
  H        2.2126747    -1.9248605     0.2458382
  H        3.2753640    -0.5218720    -0.0948010
units angstrom
no_reorient  #important for SAPT in psi4, default
symmetry c1  #important for SAPT in psi4, default
}

set PROPERTIES_ORIGIN ["COM"]
properties('MP2/aug-cc-pvtz', properties = ['dipole'])
--------------------------------------------------------------------------

    Molecular point group: c1
  Charge       = 0
  Multiplicity = 1
  Basis Set: AUG-CC-PVTZ
    Blend: AUG-CC-PVTZ
  Basis Set: (AUG-CC-PVTZ AUX)
    Blend: AUG-CC-PVTZ-JKFIT

    Orbital Energies [Eh]
    ---------------------

    Doubly Occupied:

       1A    -20.599600     2A    -20.539142     3A    -11.381169
       4A    -11.292001     5A    -11.240061     6A    -11.222191
       7A    -11.217587     8A     -1.451353     9A     -1.345811
      10A     -1.077487    11A     -1.006206    12A     -0.946349
      13A     -0.839543    14A     -0.766804    15A     -0.689899
      16A     -0.666343    17A     -0.654840    18A     -0.610534
      19A     -0.586019    20A     -0.578676    21A     -0.561824
      22A     -0.549056    23A     -0.534334    24A     -0.519178
      25A     -0.500682    26A     -0.483235    27A     -0.451576
      28A     -0.441080

  @DF-RHF Final Energy:  -345.04122580282092

   => Energetics <=

    Nuclear Repulsion Energy =            321.2244962793225795
    One-Electron Energy =               -1107.0262837729037528
    Two-Electron Energy =                 440.7605616907602553
    Total Energy =                       -345.0412258028209180
  Basis Set: (AUG-CC-PVTZ AUX)
    Blend: AUG-CC-PVTZ-RI
    Molecular point group: c1

    Geometry (in Angstrom), charge = 0, multiplicity = 1:

       Center              X                  Y                   Z               Mass
    ------------   -----------------  -----------------  -----------------  -----------------
         O            0.001942578477    -0.593101156330    -0.189807310998    15.994914619570
         O            1.357729578477     1.011316843670     0.690241689002    15.994914619570
         C           -1.163713421523     0.186017843670     0.204831689002    12.000000000000
         C           -1.416725421523     1.265376843670    -0.829944310998    12.000000000000
         C           -2.291447421523    -0.815856156330     0.320703689002    12.000000000000
         C            1.199518578477    -0.074713856330     0.135545089002    12.000000000000
         C            2.314342578477    -0.983813156330    -0.307667310998    12.000000000000
         H           -0.946302421523     0.641776843670     1.174199689002     1.007825032230
         H           -2.314329421523     1.834757843670    -0.571055310998     1.007825032230
         H           -0.572263421523     1.954004843670    -0.875264310998     1.007825032230
         H           -1.563833421523     0.811887843670    -1.813615310998     1.007825032230
         H           -3.210546421523    -0.313944156330     0.635361689002     1.007825032230
         H           -2.047237421523    -1.587845156330     1.053175689002     1.007825032230
         H           -2.470232421523    -1.296407156330    -0.643743310998     1.007825032230
         H            2.225105578477    -1.202649156330    -1.374339310998     1.007825032230
         H            2.213869278477    -1.922752656330     0.243818889002     1.007825032230
         H            3.276558578477    -0.519764156330    -0.096820310998     1.007825032230

  Basis Set: AUG-CC-PVTZ
    Blend: AUG-CC-PVTZ
  Basis Set: (AUG-CC-PVTZ AUX)
    Blend: AUG-CC-PVTZ-JKFIT
	 Reference Energy          =    -345.0412258028209180 [Eh]
	 Singles Energy            =      -0.0000000000000000 [Eh]
	 Same-Spin Energy          =      -0.3415513254756766 [Eh]
	 Opposite-Spin Energy      =      -1.1323430020273171 [Eh]
	 Correlation Energy        =      -1.4738943275029937 [Eh]
	 Total Energy              =    -346.5151201303239077 [Eh]

	 ================> DF-SCS-MP2 Energies <==================
	-----------------------------------------------------------
	 SCS Same-Spin Scale       =       0.3333333333333333 [-]
	 SCS Opposite-Spin Scale   =       1.2000000000000000 [-]
	 SCS Same-Spin Energy      =      -0.1138504418252255 [Eh]
	 SCS Opposite-Spin Energy  =      -1.3588116024327805 [Eh]
	 SCS Correlation Energy    =      -1.4726620442580061 [Eh]
	 SCS Total Energy          =    -346.5138878470789336 [Eh]
	-----------------------------------------------------------

  Dipole Moment: [D]
     X:    -1.0916      Y:    -1.4258      Z:    -0.7648     Total:     1.9517

*** Psi4 exiting successfully. Buy a developer a beer!
