                               Psi4 1.3.2 release

  ==> Input File <==

--------------------------------------------------------------------------
#psi4
#
memory 32 gb

molecule  {
0 1
  O        0.0007480    -0.5952090    -0.1877880
  O        1.3565350     1.0092090     0.6922610
  C       -1.1649080     0.1839100     0.2068510
  C       -1.4179200     1.2632690    -0.8279250
  C       -2.2926420    -0.8179640     0.3227230
  C        1.1827048    -0.2333492     0.0275148
  C        2.3131480    -0.9859210    -0.3056480
  H       -0.9474970     0.6396690     1.1762190
  H       -2.3155240     1.8326500    -0.5690360
  H       -0.5734580     1.9518970    -0.8732450
  H       -1.5650280     0.8097800    -1.8115960
  H       -3.2117410    -0.3160520     0.6373810
  H       -2.0484320    -1.5899530     1.0551950
  H       -2.4714270    -1.2985150    -0.6417240
  H        2.2239110    -1.2047570    -1.3723200
  H        2.2280730    -1.9316170     0.2368100
  H        3.2753640    -0.5218720    -0.0948010
units angstrom
no_reorient  #important for SAPT in psi4, default
symmetry c1  #important for SAPT in psi4, default
}

set PROPERTIES_ORIGIN ["COM"]
properties('MP2/aug-cc-pvtz', properties = ['dipole'])
--------------------------------------------------------------------------

    Molecular point group: c1
  Charge       = 0
  Multiplicity = 1
  Basis Set: AUG-CC-PVTZ
    Blend: AUG-CC-PVTZ
  Basis Set: (AUG-CC-PVTZ AUX)
    Blend: AUG-CC-PVTZ-JKFIT

    Orbital Energies [Eh]
    ---------------------

    Doubly Occupied:

       1A    -20.624445     2A    -20.499196     3A    -11.389340
       4A    -11.304576     5A    -11.245533     6A    -11.229471
       7A    -11.221261     8A     -1.488330     9A     -1.235177
      10A     -1.100180    11A     -1.040223    12A     -0.951778
      13A     -0.871113    14A     -0.772971    15A     -0.692772
      16A     -0.683280    17A     -0.662354    18A     -0.620049
      19A     -0.598716    20A     -0.584085    21A     -0.556191
      22A     -0.554250    23A     -0.539053    24A     -0.506227
      25A     -0.488861    26A     -0.478966    27A     -0.409810
      28A     -0.400651

  @DF-RHF Final Energy:  -344.97841174525092

   => Energetics <=

    Nuclear Repulsion Energy =            320.8882353138261010
    One-Electron Energy =               -1106.2355816044162111
    Two-Electron Energy =                 440.3689345453392434
    Total Energy =                       -344.9784117452509236
  Basis Set: (AUG-CC-PVTZ AUX)
    Blend: AUG-CC-PVTZ-RI
    Molecular point group: c1

    Geometry (in Angstrom), charge = 0, multiplicity = 1:

       Center              X                  Y                   Z               Mass
    ------------   -----------------  -----------------  -----------------  -----------------
         O            0.003626862227    -0.574631725163    -0.176779790036    15.994914619570
         O            1.359413862227     1.029786274837     0.703269209964    15.994914619570
         C           -1.162029137773     0.204487274837     0.217859209964    12.000000000000
         C           -1.415041137773     1.283846274837    -0.816916790036    12.000000000000
         C           -2.289763137773    -0.797386725163     0.333731209964    12.000000000000
         C            1.185583662227    -0.212771925163     0.038523009964    12.000000000000
         C            2.316026862227    -0.965343725163    -0.294639790036    12.000000000000
         H           -0.944618137773     0.660246274837     1.187227209964     1.007825032230
         H           -2.312645137773     1.853227274837    -0.558027790036     1.007825032230
         H           -0.570579137773     1.972474274837    -0.862236790036     1.007825032230
         H           -1.562149137773     0.830357274837    -1.800587790036     1.007825032230
         H           -3.208862137773    -0.295474725163     0.648389209964     1.007825032230
         H           -2.045553137773    -1.569375725163     1.066203209964     1.007825032230
         H           -2.468548137773    -1.277937725163    -0.630715790036     1.007825032230
         H            2.226789862227    -1.184179725163    -1.361311790036     1.007825032230
         H            2.230951862227    -1.911039725163     0.247818209964     1.007825032230
         H            3.278242862227    -0.501294725163    -0.083792790036     1.007825032230

  Basis Set: AUG-CC-PVTZ
    Blend: AUG-CC-PVTZ
  Basis Set: (AUG-CC-PVTZ AUX)
    Blend: AUG-CC-PVTZ-JKFIT
	 Reference Energy          =    -344.9784117452509236 [Eh]
	 Singles Energy            =      -0.0000000000000000 [Eh]
	 Same-Spin Energy          =      -0.3453102237118821 [Eh]
	 Opposite-Spin Energy      =      -1.1386232783725638 [Eh]
	 Correlation Energy        =      -1.4839335020844460 [Eh]
	 Total Energy              =    -346.4623452473353495 [Eh]

	 ================> DF-SCS-MP2 Energies <==================
	-----------------------------------------------------------
	 SCS Same-Spin Scale       =       0.3333333333333333 [-]
	 SCS Opposite-Spin Scale   =       1.2000000000000000 [-]
	 SCS Same-Spin Energy      =      -0.1151034079039607 [Eh]
	 SCS Opposite-Spin Energy  =      -1.3663479340470766 [Eh]
	 SCS Correlation Energy    =      -1.4814513419510373 [Eh]
	 SCS Total Energy          =    -346.4598630872019385 [Eh]
	-----------------------------------------------------------

  Dipole Moment: [D]
     X:    -1.6683      Y:    -2.3561      Z:    -1.3147     Total:     3.1722

*** Psi4 exiting successfully. Buy a developer a beer!
