                               Psi4 1.3.2 release

  ==> Input File <==

--------------------------------------------------------------------------
#psi4
#
memory 32 gb

molecule  {
0 1
  O        0.0020060    -0.5879698    -0.1981597
  O        1.3565350     1.0092090     0.6922610
  C       -1.1649080     0.1839100     0.2068510
  C       -1.4074638     1.2590163    -0.8348330
  C       -2.2926420    -0.8179640     0.3227230
  C        1.2071900    -0.0583260     0.1211490
  C        2.3131480    -0.9859210    -0.3056480
  H       -0.9474970     0.6396690     1.1762190
  H       -2.3155240     1.8326500    -0.5690360
  H       -0.5734580     1.9518970    -0.8732450
  H       -1.5650280     0.8097800    -1.8115960
  H       -3.2117410    -0.3160520     0.6373810
  H       -2.0484320    -1.5899530     1.0551950
  H       -2.4714270    -1.2985150    -0.6417240
  H        2.2239110    -1.2047570    -1.3723200
  H        2.2280730    -1.9316170     0.2368100
  H        3.2753640    -0.5218720    -0.0948010
units angstrom
no_reorient  #important for SAPT in psi4, default
symmetry c1  #important for SAPT in psi4, default
}

set PROPERTIES_ORIGIN ["COM"]
properties('MP2/aug-cc-pvtz', properties = ['dipole'])
--------------------------------------------------------------------------

    Molecular point group: c1
  Charge       = 0
  Multiplicity = 1
  Basis Set: AUG-CC-PVTZ
    Blend: AUG-CC-PVTZ
  Basis Set: (AUG-CC-PVTZ AUX)
    Blend: AUG-CC-PVTZ-JKFIT

    Orbital Energies [Eh]
    ---------------------

    Doubly Occupied:

       1A    -20.596422     2A    -20.541543     3A    -11.380833
       4A    -11.290857     5A    -11.240075     6A    -11.221806
       7A    -11.216856     8A     -1.449323     9A     -1.350246
      10A     -1.075786    11A     -1.005845    12A     -0.945879
      13A     -0.837189    14A     -0.765681    15A     -0.692025
      16A     -0.665262    17A     -0.654042    18A     -0.611575
      19A     -0.584642    20A     -0.578060    21A     -0.562778
      22A     -0.549226    23A     -0.534356    24A     -0.516074
      25A     -0.501922    26A     -0.484077    27A     -0.451880
      28A     -0.442623

  @DF-RHF Final Energy:  -345.04180782631119

   => Energetics <=

    Nuclear Repulsion Energy =            321.2792126200058078
    One-Electron Energy =               -1107.1482713654809231
    Two-Electron Energy =                 440.8272509191638733
    Total Energy =                       -345.0418078263111852
  Basis Set: (AUG-CC-PVTZ AUX)
    Blend: AUG-CC-PVTZ-RI
    Molecular point group: c1

    Geometry (in Angstrom), charge = 0, multiplicity = 1:

       Center              X                  Y                   Z               Mass
    ------------   -----------------  -----------------  -----------------  -----------------
         O            0.000579712130    -0.588604214412    -0.195722435505    15.994914619570
         O            1.355108712130     1.008574585588     0.694698264495    15.994914619570
         C           -1.166334287870     0.183275585588     0.209288264495    12.000000000000
         C           -1.408890087870     1.258381885588    -0.832395735505    12.000000000000
         C           -2.294068287870    -0.818598414412     0.325160264495    12.000000000000
         C            1.205763712130    -0.058960414412     0.123586264495    12.000000000000
         C            2.311721712130    -0.986555414412    -0.303210735505    12.000000000000
         H           -0.948923287870     0.639034585588     1.178656264495     1.007825032230
         H           -2.316950287870     1.832015585588    -0.566598735505     1.007825032230
         H           -0.574884287870     1.951262585588    -0.870807735505     1.007825032230
         H           -1.566454287870     0.809145585588    -1.809158735505     1.007825032230
         H           -3.213167287870    -0.316686414412     0.639818264495     1.007825032230
         H           -2.049858287870    -1.590587414412     1.057632264495     1.007825032230
         H           -2.472853287870    -1.299149414412    -0.639286735505     1.007825032230
         H            2.222484712130    -1.205391414412    -1.369882735505     1.007825032230
         H            2.226646712130    -1.932251414412     0.239247264495     1.007825032230
         H            3.273937712130    -0.522506414412    -0.092363735505     1.007825032230

  Basis Set: AUG-CC-PVTZ
    Blend: AUG-CC-PVTZ
  Basis Set: (AUG-CC-PVTZ AUX)
    Blend: AUG-CC-PVTZ-JKFIT
	 Reference Energy          =    -345.0418078263111852 [Eh]
	 Singles Energy            =      -0.0000000000000000 [Eh]
	 Same-Spin Energy          =      -0.3414456668806807 [Eh]
	 Opposite-Spin Energy      =      -1.1321523233310189 [Eh]
	 Correlation Energy        =      -1.4735979902116996 [Eh]
	 Total Energy              =    -346.5154058165229003 [Eh]

	 ================> DF-SCS-MP2 Energies <==================
	-----------------------------------------------------------
	 SCS Same-Spin Scale       =       0.3333333333333333 [-]
	 SCS Opposite-Spin Scale   =       1.2000000000000000 [-]
	 SCS Same-Spin Energy      =      -0.1138152222935602 [Eh]
	 SCS Opposite-Spin Energy  =      -1.3585827879972225 [Eh]
	 SCS Correlation Energy    =      -1.4723980102907828 [Eh]
	 SCS Total Energy          =    -346.5142058366019455 [Eh]
	-----------------------------------------------------------

  Dipole Moment: [D]
     X:    -1.0112      Y:    -1.3945      Z:    -0.7400     Total:     1.8748

*** Psi4 exiting successfully. Buy a developer a beer!
