                               Psi4 1.3.2 release

  ==> Input File <==

--------------------------------------------------------------------------
#psi4
#
memory 32 gb

molecule  {
0 1
  O        0.0007480    -0.5952090    -0.1877880
  O        1.3565350     1.0092090     0.6922610
  C       -1.1649080     0.1839100     0.2068510
  C       -1.4179200     1.2632690    -0.8279250
  C       -2.2926420    -0.8179640     0.3227230
  C        1.2027147    -0.0675389     0.1293733
  C        2.3131480    -0.9859210    -0.3056480
  H       -0.9474970     0.6396690     1.1762190
  H       -2.3155240     1.8326500    -0.5690360
  H       -0.5734580     1.9518970    -0.8732450
  H       -1.5650280     0.8097800    -1.8115960
  H       -3.2117410    -0.3160520     0.6373810
  H       -2.0484320    -1.5899530     1.0551950
  H       -2.4714270    -1.2985150    -0.6417240
  H        2.2239110    -1.2047570    -1.3723200
  H        2.2203703    -1.9282747     0.2413449
  H        3.2753640    -0.5218720    -0.0948010
units angstrom
no_reorient  #important for SAPT in psi4, default
symmetry c1  #important for SAPT in psi4, default
}

set PROPERTIES_ORIGIN ["COM"]
properties('MP2/aug-cc-pvtz', properties = ['dipole'])
--------------------------------------------------------------------------

    Molecular point group: c1
  Charge       = 0
  Multiplicity = 1
  Basis Set: AUG-CC-PVTZ
    Blend: AUG-CC-PVTZ
  Basis Set: (AUG-CC-PVTZ AUX)
    Blend: AUG-CC-PVTZ-JKFIT

    Orbital Energies [Eh]
    ---------------------

    Doubly Occupied:

       1A    -20.598210     2A    -20.540554     3A    -11.381131
       4A    -11.291339     5A    -11.240116     6A    -11.221778
       7A    -11.217350     8A     -1.450076     9A     -1.348263
      10A     -1.076583    11A     -1.006116    12A     -0.946016
      13A     -0.838311    14A     -0.766017    15A     -0.691001
      16A     -0.665742    17A     -0.654580    18A     -0.610787
      19A     -0.585756    20A     -0.578529    21A     -0.561944
      22A     -0.548705    23A     -0.534305    24A     -0.518739
      25A     -0.501156    26A     -0.482987    27A     -0.452224
      28A     -0.441805

  @DF-RHF Final Energy:  -345.04172695691847

   => Energetics <=

    Nuclear Repulsion Energy =            321.1958296117761620
    One-Electron Energy =               -1106.9748726740651819
    Two-Electron Energy =                 440.7373161053705530
    Total Energy =                       -345.0417269569184668
  Basis Set: (AUG-CC-PVTZ AUX)
    Blend: AUG-CC-PVTZ-RI
    Molecular point group: c1

    Geometry (in Angstrom), charge = 0, multiplicity = 1:

       Center              X                  Y                   Z               Mass
    ------------   -----------------  -----------------  -----------------  -----------------
         O            0.001350383360    -0.594158810047    -0.188799927880    15.994914619570
         O            1.357137383360     1.010259189953     0.691249072120    15.994914619570
         C           -1.164305616640     0.184960189953     0.205839072120    12.000000000000
         C           -1.417317616640     1.264319189953    -0.828936927880    12.000000000000
         C           -2.292039616640    -0.816913810047     0.321711072120    12.000000000000
         C            1.203317083360    -0.066488710047     0.128361372120    12.000000000000
         C            2.313750383360    -0.984870810047    -0.306659927880    12.000000000000
         H           -0.946894616640     0.640719189953     1.175207072120     1.007825032230
         H           -2.314921616640     1.833700189953    -0.570047927880     1.007825032230
         H           -0.572855616640     1.952947189953    -0.874256927880     1.007825032230
         H           -1.564425616640     0.810830189953    -1.812607927880     1.007825032230
         H           -3.211138616640    -0.315001810047     0.636369072120     1.007825032230
         H           -2.047829616640    -1.588902810047     1.054183072120     1.007825032230
         H           -2.470824616640    -1.297464810047    -0.642735927880     1.007825032230
         H            2.224513383360    -1.203706810047    -1.373331927880     1.007825032230
         H            2.220972683360    -1.927224510047     0.240332972120     1.007825032230
         H            3.275966383360    -0.520821810047    -0.095812927880     1.007825032230

  Basis Set: AUG-CC-PVTZ
    Blend: AUG-CC-PVTZ
  Basis Set: (AUG-CC-PVTZ AUX)
    Blend: AUG-CC-PVTZ-JKFIT
	 Reference Energy          =    -345.0417269569184668 [Eh]
	 Singles Energy            =      -0.0000000000000000 [Eh]
	 Same-Spin Energy          =      -0.3414998086234191 [Eh]
	 Opposite-Spin Energy      =      -1.1322600345979419 [Eh]
	 Correlation Energy        =      -1.4737598432213610 [Eh]
	 Total Energy              =    -346.5154868001398540 [Eh]

	 ================> DF-SCS-MP2 Energies <==================
	-----------------------------------------------------------
	 SCS Same-Spin Scale       =       0.3333333333333333 [-]
	 SCS Opposite-Spin Scale   =       1.2000000000000000 [-]
	 SCS Same-Spin Energy      =      -0.1138332695411397 [Eh]
	 SCS Opposite-Spin Energy  =      -1.3587120415175302 [Eh]
	 SCS Correlation Energy    =      -1.4725453110586699 [Eh]
	 SCS Total Energy          =    -346.5142722679771623 [Eh]
	-----------------------------------------------------------

  Dipole Moment: [D]
     X:    -1.0448      Y:    -1.3997      Z:    -0.7572     Total:     1.9037

*** Psi4 exiting successfully. Buy a developer a beer!
