                               Psi4 1.3.2 release

  ==> Input File <==

--------------------------------------------------------------------------
#psi4
#
memory 32 gb

molecule  {
0 1
  O        0.0007480    -0.5952090    -0.1877880
  O        1.4196142     0.9993560     0.6906124
  C       -1.1649080     0.1839100     0.2068510
  C       -1.4179200     1.2632690    -0.8279250
  C       -2.2926420    -0.8179640     0.3227230
  C        1.2071900    -0.0583260     0.1211490
  C        2.3649277    -0.9346188    -0.2756955
  H       -0.9474970     0.6396690     1.1762190
  H       -2.3155240     1.8326500    -0.5690360
  H       -0.5734580     1.9518970    -0.8732450
  H       -1.5650280     0.8097800    -1.8115960
  H       -3.2117410    -0.3160520     0.6373810
  H       -2.0484320    -1.5899530     1.0551950
  H       -2.4714270    -1.2985150    -0.6417240
  H        2.2239110    -1.2047570    -1.3723200
  H        2.2280730    -1.9316170     0.2368100
  H        3.2753640    -0.5218720    -0.0948010
units angstrom
no_reorient  #important for SAPT in psi4, default
symmetry c1  #important for SAPT in psi4, default
}

set PROPERTIES_ORIGIN ["COM"]
properties('MP2/aug-cc-pvtz', properties = ['dipole'])
--------------------------------------------------------------------------

    Molecular point group: c1
  Charge       = 0
  Multiplicity = 1
  Basis Set: AUG-CC-PVTZ
    Blend: AUG-CC-PVTZ
  Basis Set: (AUG-CC-PVTZ AUX)
    Blend: AUG-CC-PVTZ-JKFIT

    Orbital Energies [Eh]
    ---------------------

    Doubly Occupied:

       1A    -20.602163     2A    -20.539942     3A    -11.380773
       4A    -11.294060     5A    -11.237970     6A    -11.223357
       7A    -11.219131     8A     -1.448612     9A     -1.353832
      10A     -1.076339    11A     -1.003924    12A     -0.947784
      13A     -0.840292    14A     -0.768011    15A     -0.690546
      16A     -0.666760    17A     -0.654764    18A     -0.609328
      19A     -0.596432    20A     -0.577678    21A     -0.561423
      22A     -0.549007    23A     -0.532452    24A     -0.521731
      25A     -0.499062    26A     -0.484550    27A     -0.453734
      28A     -0.438225

  @DF-RHF Final Energy:  -345.03353649744150

   => Energetics <=

    Nuclear Repulsion Energy =            320.4664739091326737
    One-Electron Energy =               -1105.4562553477430811
    Two-Electron Energy =                 439.9562449411689045
    Total Energy =                       -345.0335364974415029
  Basis Set: (AUG-CC-PVTZ AUX)
    Blend: AUG-CC-PVTZ-RI
    Molecular point group: c1

    Geometry (in Angstrom), charge = 0, multiplicity = 1:

       Center              X                  Y                   Z               Mass
    ------------   -----------------  -----------------  -----------------  -----------------
         O           -0.015224528203    -0.599696436062    -0.191051354565    15.994914619570
         O            1.403641671797     0.994868563938     0.687349045435    15.994914619570
         C           -1.180880528203     0.179422563938     0.203587645435    12.000000000000
         C           -1.433892528203     1.258781563938    -0.831188354565    12.000000000000
         C           -2.308614528203    -0.822451436062     0.319459645435    12.000000000000
         C            1.191217471797    -0.062813436062     0.117885645435    12.000000000000
         C            2.348955171797    -0.939106236062    -0.278958854565    12.000000000000
         H           -0.963469528203     0.635181563938     1.172955645435     1.007825032230
         H           -2.331496528203     1.828162563938    -0.572299354565     1.007825032230
         H           -0.589430528203     1.947409563938    -0.876508354565     1.007825032230
         H           -1.581000528203     0.805292563938    -1.814859354565     1.007825032230
         H           -3.227713528203    -0.320539436062     0.634117645435     1.007825032230
         H           -2.064404528203    -1.594440436062     1.051931645435     1.007825032230
         H           -2.487399528203    -1.303002436062    -0.644987354565     1.007825032230
         H            2.207938471797    -1.209244436062    -1.375583354565     1.007825032230
         H            2.212100471797    -1.936104436062     0.233546645435     1.007825032230
         H            3.259391471797    -0.526359436062    -0.098064354565     1.007825032230

  Basis Set: AUG-CC-PVTZ
    Blend: AUG-CC-PVTZ
  Basis Set: (AUG-CC-PVTZ AUX)
    Blend: AUG-CC-PVTZ-JKFIT
	 Reference Energy          =    -345.0335364974415029 [Eh]
	 Singles Energy            =      -0.0000000000000000 [Eh]
	 Same-Spin Energy          =      -0.3413082614294989 [Eh]
	 Opposite-Spin Energy      =      -1.1321484010771168 [Eh]
	 Correlation Energy        =      -1.4734566625066157 [Eh]
	 Total Energy              =    -346.5069931599481379 [Eh]

	 ================> DF-SCS-MP2 Energies <==================
	-----------------------------------------------------------
	 SCS Same-Spin Scale       =       0.3333333333333333 [-]
	 SCS Opposite-Spin Scale   =       1.2000000000000000 [-]
	 SCS Same-Spin Energy      =      -0.1137694204764996 [Eh]
	 SCS Opposite-Spin Energy  =      -1.3585780812925401 [Eh]
	 SCS Correlation Energy    =      -1.4723475017690397 [Eh]
	 SCS Total Energy          =    -346.5058839992105391 [Eh]
	-----------------------------------------------------------

  Dipole Moment: [D]
     X:    -1.2066      Y:    -1.3265      Z:    -0.7397     Total:     1.9398

*** Psi4 exiting successfully. Buy a developer a beer!
