                               Psi4 1.3.2 release

  ==> Input File <==

--------------------------------------------------------------------------
#psi4
#
memory 32 gb

molecule  {
0 1
  O       -0.0063431    -0.6057575    -0.1877030
  O        1.3565350     1.0092090     0.6922610
  C       -1.1649080     0.1839100     0.2068510
  C       -1.4179200     1.2632690    -0.8279250
  C       -2.2843308    -0.8276298     0.3192866
  C        1.2071900    -0.0583260     0.1211490
  C        2.3131480    -0.9859210    -0.3056480
  H       -0.9474970     0.6396690     1.1762190
  H       -2.3155240     1.8326500    -0.5690360
  H       -0.5734580     1.9518970    -0.8732450
  H       -1.5650280     0.8097800    -1.8115960
  H       -3.2117410    -0.3160520     0.6373810
  H       -2.0484320    -1.5899530     1.0551950
  H       -2.4714270    -1.2985150    -0.6417240
  H        2.2239110    -1.2047570    -1.3723200
  H        2.2280730    -1.9316170     0.2368100
  H        3.2753640    -0.5218720    -0.0948010
units angstrom
no_reorient  #important for SAPT in psi4, default
symmetry c1  #important for SAPT in psi4, default
}

set PROPERTIES_ORIGIN ["COM"]
properties('MP2/aug-cc-pvtz', properties = ['dipole'])
--------------------------------------------------------------------------

    Molecular point group: c1
  Charge       = 0
  Multiplicity = 1
  Basis Set: AUG-CC-PVTZ
    Blend: AUG-CC-PVTZ
  Basis Set: (AUG-CC-PVTZ AUX)
    Blend: AUG-CC-PVTZ-JKFIT

    Orbital Energies [Eh]
    ---------------------

    Doubly Occupied:

       1A    -20.596356     2A    -20.544162     3A    -11.382493
       4A    -11.289919     5A    -11.240636     6A    -11.220557
       7A    -11.217081     8A     -1.445958     9A     -1.351105
      10A     -1.074358    11A     -1.006141    12A     -0.945589
      13A     -0.834498    14A     -0.765284    15A     -0.692590
      16A     -0.663953    17A     -0.653559    18A     -0.611565
      19A     -0.586183    20A     -0.577308    21A     -0.561247
      22A     -0.548970    23A     -0.531030    24A     -0.518288
      25A     -0.503018    26A     -0.483372    27A     -0.453515
      28A     -0.442549

  @DF-RHF Final Energy:  -345.04065386040611

   => Energetics <=

    Nuclear Repulsion Energy =            320.9819206073773898
    One-Electron Energy =               -1106.5625836064225496
    Two-Electron Energy =                 440.5400091386391068
    Total Energy =                       -345.0406538604061097
  Basis Set: (AUG-CC-PVTZ AUX)
    Blend: AUG-CC-PVTZ-RI
    Molecular point group: c1

    Geometry (in Angstrom), charge = 0, multiplicity = 1:

       Center              X                  Y                   Z               Mass
    ------------   -----------------  -----------------  -----------------  -----------------
         O           -0.006208830031    -0.602968023767    -0.187312538233    15.994914619570
         O            1.356669269969     1.011998476233     0.692651461767    15.994914619570
         C           -1.164773730031     0.186699476233     0.207241461767    12.000000000000
         C           -1.417785730031     1.266058476233    -0.827534538233    12.000000000000
         C           -2.284196530031    -0.824840323767     0.319677061767    12.000000000000
         C            1.207324269969    -0.055536523767     0.121539461767    12.000000000000
         C            2.313282269969    -0.983131523767    -0.305257538233    12.000000000000
         H           -0.947362730031     0.642458476233     1.176609461767     1.007825032230
         H           -2.315389730031     1.835439476233    -0.568645538233     1.007825032230
         H           -0.573323730031     1.954686476233    -0.872854538233     1.007825032230
         H           -1.564893730031     0.812569476233    -1.811205538233     1.007825032230
         H           -3.211606730031    -0.313262523767     0.637771461767     1.007825032230
         H           -2.048297730031    -1.587163523767     1.055585461767     1.007825032230
         H           -2.471292730031    -1.295725523767    -0.641333538233     1.007825032230
         H            2.224045269969    -1.201967523767    -1.371929538233     1.007825032230
         H            2.228207269969    -1.928827523767     0.237200461767     1.007825032230
         H            3.275498269969    -0.519082523767    -0.094410538233     1.007825032230

  Basis Set: AUG-CC-PVTZ
    Blend: AUG-CC-PVTZ
  Basis Set: (AUG-CC-PVTZ AUX)
    Blend: AUG-CC-PVTZ-JKFIT
	 Reference Energy          =    -345.0406538604061097 [Eh]
	 Singles Energy            =      -0.0000000000000000 [Eh]
	 Same-Spin Energy          =      -0.3416598503590272 [Eh]
	 Opposite-Spin Energy      =      -1.1327506206818267 [Eh]
	 Correlation Energy        =      -1.4744104710408539 [Eh]
	 Total Energy              =    -346.5150643314469789 [Eh]

	 ================> DF-SCS-MP2 Energies <==================
	-----------------------------------------------------------
	 SCS Same-Spin Scale       =       0.3333333333333333 [-]
	 SCS Opposite-Spin Scale   =       1.2000000000000000 [-]
	 SCS Same-Spin Energy      =      -0.1138866167863424 [Eh]
	 SCS Opposite-Spin Energy  =      -1.3593007448181920 [Eh]
	 SCS Correlation Energy    =      -1.4731873616045343 [Eh]
	 SCS Total Energy          =    -346.5138412220106261 [Eh]
	-----------------------------------------------------------

  Dipole Moment: [D]
     X:    -0.9299      Y:    -1.3425      Z:    -0.7427     Total:     1.7941

*** Psi4 exiting successfully. Buy a developer a beer!
