                               Psi4 1.4a3.dev225

  ==> Input File <==

--------------------------------------------------------------------------
#psi4
#
memory 32 gb

molecule  {
0 1
  O       -0.1077990    -0.5624470     0.2079430
  O       -1.3021290     1.1073090    -0.7840490
  C        1.1449410     0.0626640    -0.2656669
  C        1.5159640     1.1744160     0.6880040
  C        2.1417370    -1.0702820    -0.3128090
  C       -1.2564580     0.0779660    -0.1299440
  C       -2.4469700    -0.6645530     0.4162300
  H        0.9393410     0.4580410    -1.2580840
  H        2.4644540     1.6220060     0.3756670
  H        0.7505430     1.9525630     0.6895830
  H        1.6331200     0.7804540     1.7015330
  H        3.1019190    -0.6925110    -0.6758780
  H        1.8018300    -1.8630990    -0.9832080
  H        2.2880710    -1.4948000     0.6840490
  H       -2.3821170    -0.7144520     1.5057940
  H       -2.4521220    -1.6889170     0.0368310
  H       -3.3591990    -0.1487030     0.1192220
units angstrom
no_reorient  #important for SAPT in psi4, default
symmetry c1  #important for SAPT in psi4, default
}

set PROPERTIES_ORIGIN ["COM"]
properties('MP2/aug-cc-pvtz', properties = ['dipole'])
--------------------------------------------------------------------------

    Molecular point group: c1
  Charge       = 0
  Multiplicity = 1
  Basis Set: AUG-CC-PVTZ
    Blend: AUG-CC-PVTZ
  Basis Set: (AUG-CC-PVTZ AUX)
    Blend: AUG-CC-PVTZ-JKFIT

    Orbital Energies [Eh]
    ---------------------

    Doubly Occupied:

       1A    -20.594096     2A    -20.540757     3A    -11.379869
       4A    -11.291934     5A    -11.239178     6A    -11.222615
       7A    -11.218346     8A     -1.443386     9A     -1.346772
      10A     -1.076523    11A     -1.005345    12A     -0.947076
      13A     -0.833532    14A     -0.764355    15A     -0.690495
      16A     -0.662424    17A     -0.652090    18A     -0.612214
      19A     -0.585181    20A     -0.577982    21A     -0.561478
      22A     -0.549678    23A     -0.532807    24A     -0.514994
      25A     -0.502799    26A     -0.485825    27A     -0.452761
      28A     -0.441463

  @DF-RHF Final Energy:  -345.04102125440096

   => Energetics <=

    Nuclear Repulsion Energy =            320.6832505261103847
    One-Electron Energy =               -1105.9965939297985642
    Two-Electron Energy =                 440.2723221492871630
    Total Energy =                       -345.0410212544009596
  Basis Set: (AUG-CC-PVTZ AUX)
    Blend: AUG-CC-PVTZ-RI
    Molecular point group: c1

    Geometry (in Angstrom), charge = 0, multiplicity = 1:

       Center              X                  Y                   Z               Mass
    ------------   -----------------  -----------------  -----------------  -----------------
         O           -0.063340236330    -0.580808596730     0.230009724120    15.994914619570
         O           -1.257670236330     1.088947403270    -0.761982275880    15.994914619570
         C            1.189399763670     0.044302403270    -0.243600175880    12.000000000000
         C            1.560422763670     1.156054403270     0.710070724120    12.000000000000
         C            2.186195763670    -1.088643596730    -0.290742275880    12.000000000000
         C           -1.211999236330     0.059604403270    -0.107877275880    12.000000000000
         C           -2.402511236330    -0.682914596730     0.438296724120    12.000000000000
         H            0.983799763670     0.439679403270    -1.236017275880     1.007825032230
         H            2.508912763670     1.603644403270     0.397733724120     1.007825032230
         H            0.795001763670     1.934201403270     0.711649724120     1.007825032230
         H            1.677578763670     0.762092403270     1.723599724120     1.007825032230
         H            3.146377763670    -0.710872596730    -0.653811275880     1.007825032230
         H            1.846288763670    -1.881460596730    -0.961141275880     1.007825032230
         H            2.332529763670    -1.513161596730     0.706115724120     1.007825032230
         H           -2.337658236330    -0.732813596730     1.527860724120     1.007825032230
         H           -2.407663236330    -1.707278596730     0.058897724120     1.007825032230
         H           -3.314740236330    -0.167064596730     0.141288724120     1.007825032230

  Basis Set: AUG-CC-PVTZ
    Blend: AUG-CC-PVTZ
  Basis Set: (AUG-CC-PVTZ AUX)
    Blend: AUG-CC-PVTZ-JKFIT
	 Reference Energy          =    -345.0410212544009596 [Eh]
	 Singles Energy            =      -0.0000000000000000 [Eh]
	 Same-Spin Energy          =      -0.3415526383734917 [Eh]
	 Opposite-Spin Energy      =      -1.1325880917991238 [Eh]
	 Correlation Energy        =      -1.4741407301726155 [Eh]
	 Total Energy              =    -346.5151619845735809 [Eh]

	 ================> DF-SCS-MP2 Energies <==================
	-----------------------------------------------------------
	 SCS Same-Spin Scale       =       0.3333333333333333 [-]
	 SCS Opposite-Spin Scale   =       1.2000000000000000 [-]
	 SCS Same-Spin Energy      =      -0.1138508794578306 [Eh]
	 SCS Opposite-Spin Energy  =      -1.3591057101589485 [Eh]
	 SCS Correlation Energy    =      -1.4729565896167791 [Eh]
	 SCS Total Energy          =    -346.5139778440177452 [Eh]
	-----------------------------------------------------------

  Dipole Moment: [D]
     X:     0.9487      Y:    -1.3717      Z:     0.8738     Total:     1.8829

*** Psi4 exiting successfully. Buy a developer a beer!
