                               Psi4 1.3.2 release

  ==> Input File <==

--------------------------------------------------------------------------
#psi4
#
memory 32 gb

molecule  {
0 1
  O        0.0007480    -0.5952090    -0.1877880
  O        1.3565350     1.0092090     0.6922610
  C       -1.1649080     0.1839100     0.2068510
  C       -1.4179200     1.2632690    -0.8279250
  C       -2.2926420    -0.8179640     0.3227230
  C        1.2194326     0.0291856     0.1679661
  C        2.3131480    -0.9859210    -0.3056480
  H       -0.9474970     0.6396690     1.1762190
  H       -2.3155240     1.8326500    -0.5690360
  H       -0.5734580     1.9518970    -0.8732450
  H       -1.5650280     0.8097800    -1.8115960
  H       -3.2117410    -0.3160520     0.6373810
  H       -2.0484320    -1.5899530     1.0551950
  H       -2.4714270    -1.2985150    -0.6417240
  H        2.2239110    -1.2047570    -1.3723200
  H        2.2280730    -1.9316170     0.2368100
  H        3.2753640    -0.5218720    -0.0948010
units angstrom
no_reorient  #important for SAPT in psi4, default
symmetry c1  #important for SAPT in psi4, default
}

set PROPERTIES_ORIGIN ["COM"]
properties('MP2/aug-cc-pvtz', properties = ['dipole'])
--------------------------------------------------------------------------

    Molecular point group: c1
  Charge       = 0
  Multiplicity = 1
  Basis Set: AUG-CC-PVTZ
    Blend: AUG-CC-PVTZ
  Basis Set: (AUG-CC-PVTZ AUX)
    Blend: AUG-CC-PVTZ-JKFIT

    Orbital Energies [Eh]
    ---------------------

    Doubly Occupied:

       1A    -20.580815     2A    -20.561897     3A    -11.373653
       4A    -11.283620     5A    -11.236961     6A    -11.216972
       7A    -11.215091     8A     -1.485063     9A     -1.370466
      10A     -1.063535    11A     -0.989171    12A     -0.942438
      13A     -0.821060    14A     -0.762780    15A     -0.711137
      16A     -0.670942    17A     -0.655890    18A     -0.613846
      19A     -0.592745    20A     -0.569608    21A     -0.562222
      22A     -0.545451    23A     -0.541513    24A     -0.516569
      25A     -0.512092    26A     -0.483465    27A     -0.452003
      28A     -0.436962

  @DF-RHF Final Energy:  -345.02846607988039

   => Energetics <=

    Nuclear Repulsion Energy =            321.6290017969405426
    One-Electron Energy =               -1107.7789988262475163
    Two-Electron Energy =                 441.1215309494265853
    Total Energy =                       -345.0284660798803884
  Basis Set: (AUG-CC-PVTZ AUX)
    Blend: AUG-CC-PVTZ-RI
    Molecular point group: c1

    Geometry (in Angstrom), charge = 0, multiplicity = 1:

       Center              X                  Y                   Z               Mass
    ------------   -----------------  -----------------  -----------------  -----------------
         O           -0.000691173362    -0.605497570915    -0.193292451069    15.994914619570
         O            1.355095826638     0.998920429085     0.686756548931    15.994914619570
         C           -1.166347173362     0.173621429085     0.201346548931    12.000000000000
         C           -1.419359173362     1.252980429085    -0.833429451069    12.000000000000
         C           -2.294081173362    -0.828252570915     0.317218548931    12.000000000000
         C            1.217993426638     0.018897029085     0.162461648931    12.000000000000
         C            2.311708826638    -0.996209570915    -0.311152451069    12.000000000000
         H           -0.948936173362     0.629380429085     1.170714548931     1.007825032230
         H           -2.316963173362     1.822361429085    -0.574540451069     1.007825032230
         H           -0.574897173362     1.941608429085    -0.878749451069     1.007825032230
         H           -1.566467173362     0.799491429085    -1.817100451069     1.007825032230
         H           -3.213180173362    -0.326340570915     0.631876548931     1.007825032230
         H           -2.049871173362    -1.600241570915     1.049690548931     1.007825032230
         H           -2.472866173362    -1.308803570915    -0.647228451069     1.007825032230
         H            2.222471826638    -1.215045570915    -1.377824451069     1.007825032230
         H            2.226633826638    -1.941905570915     0.231305548931     1.007825032230
         H            3.273924826638    -0.532160570915    -0.100305451069     1.007825032230

  Basis Set: AUG-CC-PVTZ
    Blend: AUG-CC-PVTZ
  Basis Set: (AUG-CC-PVTZ AUX)
    Blend: AUG-CC-PVTZ-JKFIT
	 Reference Energy          =    -345.0284660798803884 [Eh]
	 Singles Energy            =      -0.0000000000000000 [Eh]
	 Same-Spin Energy          =      -0.3399712115872604 [Eh]
	 Opposite-Spin Energy      =      -1.1297038684541496 [Eh]
	 Correlation Energy        =      -1.4696750800414100 [Eh]
	 Total Energy              =    -346.4981411599217722 [Eh]

	 ================> DF-SCS-MP2 Energies <==================
	-----------------------------------------------------------
	 SCS Same-Spin Scale       =       0.3333333333333333 [-]
	 SCS Opposite-Spin Scale   =       1.2000000000000000 [-]
	 SCS Same-Spin Energy      =      -0.1133237371957535 [Eh]
	 SCS Opposite-Spin Energy  =      -1.3556446421449795 [Eh]
	 SCS Correlation Energy    =      -1.4689683793407329 [Eh]
	 SCS Total Energy          =    -346.4974344592210969 [Eh]
	-----------------------------------------------------------

  Dipole Moment: [D]
     X:    -0.6336      Y:    -0.8009      Z:    -0.4282     Total:     1.1074

*** Psi4 exiting successfully. Buy a developer a beer!
