                               Psi4 1.3.2 release

  ==> Input File <==

--------------------------------------------------------------------------
#psi4
#
memory 32 gb

molecule  {
0 1
  O        0.0007480    -0.5952090    -0.1877880
  O        1.3986440     1.0029639     0.6913357
  C       -1.1649080     0.1839100     0.2068510
  C       -1.4179200     1.2632690    -0.8279250
  C       -2.2926420    -0.8179640     0.3227230
  C        1.2071900    -0.0583260     0.1211490
  C        2.3480136    -0.9519935    -0.2858046
  H       -0.9474970     0.6396690     1.1762190
  H       -2.3155240     1.8326500    -0.5690360
  H       -0.5734580     1.9518970    -0.8732450
  H       -1.5650280     0.8097800    -1.8115960
  H       -3.2117410    -0.3160520     0.6373810
  H       -2.0484320    -1.5899530     1.0551950
  H       -2.4714270    -1.2985150    -0.6417240
  H        2.2239110    -1.2047570    -1.3723200
  H        2.2280730    -1.9316170     0.2368100
  H        3.2753640    -0.5218720    -0.0948010
units angstrom
no_reorient  #important for SAPT in psi4, default
symmetry c1  #important for SAPT in psi4, default
}

set PROPERTIES_ORIGIN ["COM"]
properties('MP2/aug-cc-pvtz', properties = ['dipole'])
--------------------------------------------------------------------------

    Molecular point group: c1
  Charge       = 0
  Multiplicity = 1
  Basis Set: AUG-CC-PVTZ
    Blend: AUG-CC-PVTZ
  Basis Set: (AUG-CC-PVTZ AUX)
    Blend: AUG-CC-PVTZ-JKFIT

    Orbital Energies [Eh]
    ---------------------

    Doubly Occupied:

       1A    -20.600343     2A    -20.540609     3A    -11.380772
       4A    -11.292912     5A    -11.238471     6A    -11.222677
       7A    -11.218437     8A     -1.448618     9A     -1.352649
      10A     -1.076054    11A     -1.004562    12A     -0.947063
      13A     -0.839055    14A     -0.766989    15A     -0.690930
      16A     -0.665752    17A     -0.654413    18A     -0.609787
      19A     -0.590618    20A     -0.579802    21A     -0.561626
      22A     -0.548748    23A     -0.533179    24A     -0.521093
      25A     -0.500249    26A     -0.484083    27A     -0.453295
      28A     -0.439970

  @DF-RHF Final Energy:  -345.03845956217009

   => Energetics <=

    Nuclear Repulsion Energy =            320.6839521708544112
    One-Electron Energy =               -1105.9193158866637532
    Two-Electron Energy =                 440.1969041536393092
    Total Energy =                       -345.0384595621700896
  Basis Set: (AUG-CC-PVTZ AUX)
    Blend: AUG-CC-PVTZ-RI
    Molecular point group: c1

    Geometry (in Angstrom), charge = 0, multiplicity = 1:

       Center              X                  Y                   Z               Mass
    ------------   -----------------  -----------------  -----------------  -----------------
         O           -0.009949757081    -0.598219104969    -0.189976189060    15.994914619570
         O            1.387946242919     0.999953795031     0.689147510940    15.994914619570
         C           -1.175605757081     0.180899895031     0.204662810940    12.000000000000
         C           -1.428617757081     1.260258895031    -0.830113189060    12.000000000000
         C           -2.303339757081    -0.820974104969     0.320534810940    12.000000000000
         C            1.196492242919    -0.061336104969     0.118960810940    12.000000000000
         C            2.337315842919    -0.955003604969    -0.287992789060    12.000000000000
         H           -0.958194757081     0.636658895031     1.174030810940     1.007825032230
         H           -2.326221757081     1.829639895031    -0.571224189060     1.007825032230
         H           -0.584155757081     1.948886895031    -0.875433189060     1.007825032230
         H           -1.575725757081     0.806769895031    -1.813784189060     1.007825032230
         H           -3.222438757081    -0.319062104969     0.635192810940     1.007825032230
         H           -2.059129757081    -1.592963104969     1.053006810940     1.007825032230
         H           -2.482124757081    -1.301525104969    -0.643912189060     1.007825032230
         H            2.213213242919    -1.207767104969    -1.374508189060     1.007825032230
         H            2.217375242919    -1.934627104969     0.234621810940     1.007825032230
         H            3.264666242919    -0.524882104969    -0.096989189060     1.007825032230

  Basis Set: AUG-CC-PVTZ
    Blend: AUG-CC-PVTZ
  Basis Set: (AUG-CC-PVTZ AUX)
    Blend: AUG-CC-PVTZ-JKFIT
	 Reference Energy          =    -345.0384595621700896 [Eh]
	 Singles Energy            =      -0.0000000000000000 [Eh]
	 Same-Spin Energy          =      -0.3413185755941943 [Eh]
	 Opposite-Spin Energy      =      -1.1320566710379794 [Eh]
	 Correlation Energy        =      -1.4733752466321737 [Eh]
	 Total Energy              =    -346.5118348088022913 [Eh]

	 ================> DF-SCS-MP2 Energies <==================
	-----------------------------------------------------------
	 SCS Same-Spin Scale       =       0.3333333333333333 [-]
	 SCS Opposite-Spin Scale   =       1.2000000000000000 [-]
	 SCS Same-Spin Energy      =      -0.1137728585313981 [Eh]
	 SCS Opposite-Spin Energy  =      -1.3584680052455751 [Eh]
	 SCS Correlation Energy    =      -1.4722408637769733 [Eh]
	 SCS Total Energy          =    -346.5107004259470500 [Eh]
	-----------------------------------------------------------

  Dipole Moment: [D]
     X:    -1.1338      Y:    -1.3444      Z:    -0.7444     Total:     1.9097

*** Psi4 exiting successfully. Buy a developer a beer!
