                               Psi4 1.3.2 release

  ==> Input File <==

--------------------------------------------------------------------------
#psi4
#
memory 32 gb

molecule  {
0 1
  O       -0.0098712    -0.5764523    -0.1780077
  O        1.3353857     1.0115157     0.6930829
  C       -1.1649080     0.1839100     0.2068510
  C       -1.4179200     1.2632690    -0.8279250
  C       -2.2926420    -0.8179640     0.3227230
  C        1.2071900    -0.0583260     0.1211490
  C        2.3131480    -0.9859210    -0.3056480
  H       -0.9474970     0.6396690     1.1762190
  H       -2.3155240     1.8326500    -0.5690360
  H       -0.5734580     1.9518970    -0.8732450
  H       -1.5650280     0.8097800    -1.8115960
  H       -3.2117410    -0.3160520     0.6373810
  H       -2.0484320    -1.5899530     1.0551950
  H       -2.4714270    -1.2985150    -0.6417240
  H        2.2239110    -1.2047570    -1.3723200
  H        2.2280730    -1.9316170     0.2368100
  H        3.2753640    -0.5218720    -0.0948010
units angstrom
no_reorient  #important for SAPT in psi4, default
symmetry c1  #important for SAPT in psi4, default
}

set PROPERTIES_ORIGIN ["COM"]
properties('MP2/aug-cc-pvtz', properties = ['dipole'])
--------------------------------------------------------------------------

    Molecular point group: c1
  Charge       = 0
  Multiplicity = 1
  Basis Set: AUG-CC-PVTZ
    Blend: AUG-CC-PVTZ
  Basis Set: (AUG-CC-PVTZ AUX)
    Blend: AUG-CC-PVTZ-JKFIT

    Orbital Energies [Eh]
    ---------------------

    Doubly Occupied:

       1A    -20.594599     2A    -20.541499     3A    -11.382095
       4A    -11.287564     5A    -11.243329     6A    -11.220026
       7A    -11.215217     8A     -1.452615     9A     -1.350385
      10A     -1.075192    11A     -1.008025    12A     -0.944501
      13A     -0.841027    14A     -0.764000    15A     -0.693456
      16A     -0.666682    17A     -0.655099    18A     -0.610738
      19A     -0.586456    20A     -0.579377    21A     -0.561134
      22A     -0.547136    23A     -0.535410    24A     -0.518981
      25A     -0.501072    26A     -0.479824    27A     -0.451105
      28A     -0.442105

  @DF-RHF Final Energy:  -345.04232115005800

   => Energetics <=

    Nuclear Repulsion Energy =            321.7741056715921104
    One-Electron Energy =               -1108.1355565741143892
    Two-Electron Energy =                 441.3191297524642778
    Total Energy =                       -345.0423211500580010
  Basis Set: (AUG-CC-PVTZ AUX)
    Blend: AUG-CC-PVTZ-RI
    Molecular point group: c1

    Geometry (in Angstrom), charge = 0, multiplicity = 1:

       Center              X                  Y                   Z               Mass
    ------------   -----------------  -----------------  -----------------  -----------------
         O           -0.004892640728    -0.579753065144    -0.179669383399    15.994914619570
         O            1.340364259272     1.008214934856     0.691421216601    15.994914619570
         C           -1.159929440728     0.180609234856     0.205189316601    12.000000000000
         C           -1.412941440728     1.259968234856    -0.829586683399    12.000000000000
         C           -2.287663440728    -0.821264765144     0.321061316601    12.000000000000
         C            1.212168559272    -0.061626765144     0.119487316601    12.000000000000
         C            2.318126559272    -0.989221765144    -0.307309683399    12.000000000000
         H           -0.942518440728     0.636368234856     1.174557316601     1.007825032230
         H           -2.310545440728     1.829349234856    -0.570697683399     1.007825032230
         H           -0.568479440728     1.948596234856    -0.874906683399     1.007825032230
         H           -1.560049440728     0.806479234856    -1.813257683399     1.007825032230
         H           -3.206762440728    -0.319352765144     0.635719316601     1.007825032230
         H           -2.043453440728    -1.593253765144     1.053533316601     1.007825032230
         H           -2.466448440728    -1.301815765144    -0.643385683399     1.007825032230
         H            2.228889559272    -1.208057765144    -1.373981683399     1.007825032230
         H            2.233051559272    -1.934917765144     0.235148316601     1.007825032230
         H            3.280342559272    -0.525172765144    -0.096462683399     1.007825032230

  Basis Set: AUG-CC-PVTZ
    Blend: AUG-CC-PVTZ
  Basis Set: (AUG-CC-PVTZ AUX)
    Blend: AUG-CC-PVTZ-JKFIT
	 Reference Energy          =    -345.0423211500580010 [Eh]
	 Singles Energy            =      -0.0000000000000000 [Eh]
	 Same-Spin Energy          =      -0.3413712330333251 [Eh]
	 Opposite-Spin Energy      =      -1.1316525846593524 [Eh]
	 Correlation Energy        =      -1.4730238176926775 [Eh]
	 Total Energy              =    -346.5153449677507069 [Eh]

	 ================> DF-SCS-MP2 Energies <==================
	-----------------------------------------------------------
	 SCS Same-Spin Scale       =       0.3333333333333333 [-]
	 SCS Opposite-Spin Scale   =       1.2000000000000000 [-]
	 SCS Same-Spin Energy      =      -0.1137904110111083 [Eh]
	 SCS Opposite-Spin Energy  =      -1.3579831015912227 [Eh]
	 SCS Correlation Energy    =      -1.4717735126023310 [Eh]
	 SCS Total Energy          =    -346.5140946626603409 [Eh]
	-----------------------------------------------------------

  Dipole Moment: [D]
     X:    -0.8407      Y:    -1.4434      Z:    -0.7722     Total:     1.8403

*** Psi4 exiting successfully. Buy a developer a beer!
