                               Psi4 1.3.2 release

  ==> Input File <==

--------------------------------------------------------------------------
#psi4
#
memory 32 gb

molecule  {
0 1
  O        0.0007480    -0.5952090    -0.1877880
  O        1.3565350     1.0092090     0.6922610
  C       -1.1799672     0.1659608     0.1969878
  C       -1.4179200     1.2632690    -0.8279250
  C       -2.2926420    -0.8179640     0.3227230
  C        1.2178099    -0.0770655     0.1113365
  C        2.3131480    -0.9859210    -0.3056480
  H       -0.9474970     0.6396690     1.1762190
  H       -2.3155240     1.8326500    -0.5690360
  H       -0.5734580     1.9518970    -0.8732450
  H       -1.5650280     0.8097800    -1.8115960
  H       -3.2117410    -0.3160520     0.6373810
  H       -2.0484320    -1.5899530     1.0551950
  H       -2.4714270    -1.2985150    -0.6417240
  H        2.2239110    -1.2047570    -1.3723200
  H        2.2280730    -1.9316170     0.2368100
  H        3.2753640    -0.5218720    -0.0948010
units angstrom
no_reorient  #important for SAPT in psi4, default
symmetry c1  #important for SAPT in psi4, default
}

set PROPERTIES_ORIGIN ["COM"]
properties('MP2/aug-cc-pvtz', properties = ['dipole'])
--------------------------------------------------------------------------

    Molecular point group: c1
  Charge       = 0
  Multiplicity = 1
  Basis Set: AUG-CC-PVTZ
    Blend: AUG-CC-PVTZ
  Basis Set: (AUG-CC-PVTZ AUX)
    Blend: AUG-CC-PVTZ-JKFIT

    Orbital Energies [Eh]
    ---------------------

    Doubly Occupied:

       1A    -20.596270     2A    -20.538998     3A    -11.383230
       4A    -11.291702     5A    -11.241659     6A    -11.221247
       7A    -11.216872     8A     -1.444382     9A     -1.338996
      10A     -1.079449    11A     -1.013231    12A     -0.947172
      13A     -0.838157    14A     -0.760842    15A     -0.690550
      16A     -0.663628    17A     -0.654056    18A     -0.612872
      19A     -0.585993    20A     -0.581283    21A     -0.560180
      22A     -0.548612    23A     -0.535263    24A     -0.518692
      25A     -0.500414    26A     -0.476968    27A     -0.449447
      28A     -0.441480

  @DF-RHF Final Energy:  -345.03829533052840

   => Energetics <=

    Nuclear Repulsion Energy =            320.9672522228796652
    One-Electron Energy =               -1106.5478061359503954
    Two-Electron Energy =                 440.5422585825423312
    Total Energy =                       -345.0382953305283991
  Basis Set: (AUG-CC-PVTZ AUX)
    Blend: AUG-CC-PVTZ-RI
    Molecular point group: c1

    Geometry (in Angstrom), charge = 0, multiplicity = 1:

       Center              X                  Y                   Z               Mass
    ------------   -----------------  -----------------  -----------------  -----------------
         O            0.001270094067    -0.590895517008    -0.185474986456    15.994914619570
         O            1.357057094067     1.013522482992     0.694574013544    15.994914619570
         C           -1.179445105933     0.170274282992     0.199300813544    12.000000000000
         C           -1.417397905933     1.267582482992    -0.825611986456    12.000000000000
         C           -2.292119905933    -0.813650517008     0.325036013544    12.000000000000
         C            1.218331994067    -0.072752017008     0.113649513544    12.000000000000
         C            2.313670094067    -0.981607517008    -0.303334986456    12.000000000000
         H           -0.946974905933     0.643982482992     1.178532013544     1.007825032230
         H           -2.315001905933     1.836963482992    -0.566722986456     1.007825032230
         H           -0.572935905933     1.956210482992    -0.870931986456     1.007825032230
         H           -1.564505905933     0.814093482992    -1.809282986456     1.007825032230
         H           -3.211218905933    -0.311738517008     0.639694013544     1.007825032230
         H           -2.047909905933    -1.585639517008     1.057508013544     1.007825032230
         H           -2.470904905933    -1.294201517008    -0.639410986456     1.007825032230
         H            2.224433094067    -1.200443517008    -1.370006986456     1.007825032230
         H            2.228595094067    -1.927303517008     0.239123013544     1.007825032230
         H            3.275886094067    -0.517558517008    -0.092487986456     1.007825032230

  Basis Set: AUG-CC-PVTZ
    Blend: AUG-CC-PVTZ
  Basis Set: (AUG-CC-PVTZ AUX)
    Blend: AUG-CC-PVTZ-JKFIT
	 Reference Energy          =    -345.0382953305283991 [Eh]
	 Singles Energy            =      -0.0000000000000000 [Eh]
	 Same-Spin Energy          =      -0.3421141666470635 [Eh]
	 Opposite-Spin Energy      =      -1.1332064613820962 [Eh]
	 Correlation Energy        =      -1.4753206280291598 [Eh]
	 Total Energy              =    -346.5136159585575797 [Eh]

	 ================> DF-SCS-MP2 Energies <==================
	-----------------------------------------------------------
	 SCS Same-Spin Scale       =       0.3333333333333333 [-]
	 SCS Opposite-Spin Scale   =       1.2000000000000000 [-]
	 SCS Same-Spin Energy      =      -0.1140380555490212 [Eh]
	 SCS Opposite-Spin Energy  =      -1.3598477536585154 [Eh]
	 SCS Correlation Energy    =      -1.4738858092075366 [Eh]
	 SCS Total Energy          =    -346.5121811397359579 [Eh]
	-----------------------------------------------------------

  Dipole Moment: [D]
     X:    -0.9887      Y:    -1.5102      Z:    -0.8076     Total:     1.9775

*** Psi4 exiting successfully. Buy a developer a beer!
