                               Psi4 1.3.2 release

  ==> Input File <==

--------------------------------------------------------------------------
#psi4
#
memory 32 gb

molecule  {
0 1
  O       -0.0431110    -0.6575821    -0.1868274
  O        1.3565350     1.0092090     0.6922610
  C       -1.1649080     0.1839100     0.2068510
  C       -1.4179200     1.2632690    -0.8279250
  C       -2.2415087    -0.8747887     0.3019811
  C        1.2071900    -0.0583260     0.1211490
  C        2.3131480    -0.9859210    -0.3056480
  H       -0.9474970     0.6396690     1.1762190
  H       -2.3155240     1.8326500    -0.5690360
  H       -0.5734580     1.9518970    -0.8732450
  H       -1.5650280     0.8097800    -1.8115960
  H       -3.2117410    -0.3160520     0.6373810
  H       -2.0484320    -1.5899530     1.0551950
  H       -2.4714270    -1.2985150    -0.6417240
  H        2.2239110    -1.2047570    -1.3723200
  H        2.2280730    -1.9316170     0.2368100
  H        3.2753640    -0.5218720    -0.0948010
units angstrom
no_reorient  #important for SAPT in psi4, default
symmetry c1  #important for SAPT in psi4, default
}

set PROPERTIES_ORIGIN ["COM"]
properties('MP2/aug-cc-pvtz', properties = ['dipole'])
--------------------------------------------------------------------------

    Molecular point group: c1
  Charge       = 0
  Multiplicity = 1
  Basis Set: AUG-CC-PVTZ
    Blend: AUG-CC-PVTZ
  Basis Set: (AUG-CC-PVTZ AUX)
    Blend: AUG-CC-PVTZ-JKFIT

    Orbital Energies [Eh]
    ---------------------

    Doubly Occupied:

       1A    -20.594154     2A    -20.554802     3A    -11.389091
       4A    -11.286889     5A    -11.242992     6A    -11.217735
       7A    -11.217124     8A     -1.433808     9A     -1.353067
      10A     -1.068225    11A     -1.006866    12A     -0.945652
      13A     -0.823108    14A     -0.765881    15A     -0.694915
      16A     -0.658804    17A     -0.650822    18A     -0.614706
      19A     -0.588868    20A     -0.575365    21A     -0.560236
      22A     -0.552455    23A     -0.520740    24A     -0.509400
      25A     -0.508331    26A     -0.485865    27A     -0.456751
      28A     -0.440166

  @DF-RHF Final Energy:  -345.02510419628959

   => Energetics <=

    Nuclear Repulsion Energy =            320.1367955107551779
    One-Electron Energy =               -1104.8901591791388910
    Two-Electron Energy =                 439.7282594720941233
    Total Energy =                       -345.0251041962895897
  Basis Set: (AUG-CC-PVTZ AUX)
    Blend: AUG-CC-PVTZ-RI
    Molecular point group: c1

    Geometry (in Angstrom), charge = 0, multiplicity = 1:

       Center              X                  Y                   Z               Mass
    ------------   -----------------  -----------------  -----------------  -----------------
         O           -0.042249428983    -0.641126873826    -0.184539568815    15.994914619570
         O            1.357396571017     1.025664226174     0.694548831185    15.994914619570
         C           -1.164046428983     0.200365226174     0.209138831185    12.000000000000
         C           -1.417058428983     1.279724226174    -0.825637168815    12.000000000000
         C           -2.240647128983    -0.858333473826     0.304268931185    12.000000000000
         C            1.208051571017    -0.041870773826     0.123436831185    12.000000000000
         C            2.314009571017    -0.969465773826    -0.303360168815    12.000000000000
         H           -0.946635428983     0.656124226174     1.178506831185     1.007825032230
         H           -2.314662428983     1.849105226174    -0.566748168815     1.007825032230
         H           -0.572596428983     1.968352226174    -0.870957168815     1.007825032230
         H           -1.564166428983     0.826235226174    -1.809308168815     1.007825032230
         H           -3.210879428983    -0.299596773826     0.639668831185     1.007825032230
         H           -2.047570428983    -1.573497773826     1.057482831185     1.007825032230
         H           -2.470565428983    -1.282059773826    -0.639436168815     1.007825032230
         H            2.224772571017    -1.188301773826    -1.370032168815     1.007825032230
         H            2.228934571017    -1.915161773826     0.239097831185     1.007825032230
         H            3.276225571017    -0.505416773826    -0.092513168815     1.007825032230

  Basis Set: AUG-CC-PVTZ
    Blend: AUG-CC-PVTZ
  Basis Set: (AUG-CC-PVTZ AUX)
    Blend: AUG-CC-PVTZ-JKFIT
	 Reference Energy          =    -345.0251041962895897 [Eh]
	 Singles Energy            =      -0.0000000000000000 [Eh]
	 Same-Spin Energy          =      -0.3428731812233756 [Eh]
	 Opposite-Spin Energy      =      -1.1359913390645957 [Eh]
	 Correlation Energy        =      -1.4788645202879713 [Eh]
	 Total Energy              =    -346.5039687165775604 [Eh]

	 ================> DF-SCS-MP2 Energies <==================
	-----------------------------------------------------------
	 SCS Same-Spin Scale       =       0.3333333333333333 [-]
	 SCS Opposite-Spin Scale   =       1.2000000000000000 [-]
	 SCS Same-Spin Energy      =      -0.1142910604077919 [Eh]
	 SCS Opposite-Spin Energy  =      -1.3631896068775149 [Eh]
	 SCS Correlation Energy    =      -1.4774806672853067 [Eh]
	 SCS Total Energy          =    -346.5025848635748957 [Eh]
	-----------------------------------------------------------

  Dipole Moment: [D]
     X:    -0.5710      Y:    -1.1918      Z:    -0.7155     Total:     1.5028

*** Psi4 exiting successfully. Buy a developer a beer!
