                               Psi4 1.3.2 release

  ==> Input File <==

--------------------------------------------------------------------------
#psi4
#
memory 32 gb

molecule  {
0 1
  O       -0.0362444    -0.6144892    -0.2516220
  O        1.3565350     1.0092090     0.6922610
  C       -1.1649080     0.1839100     0.2068510
  C       -1.4179200     1.2632690    -0.8279250
  C       -2.2926420    -0.8179640     0.3227230
  C        1.2071900    -0.0583260     0.1211490
  C        2.3131480    -0.9859210    -0.3056480
  H       -0.9994839     0.6635492     1.1749622
  H       -2.3155240     1.8326500    -0.5690360
  H       -0.5734580     1.9518970    -0.8732450
  H       -1.5650280     0.8097800    -1.8115960
  H       -3.2117410    -0.3160520     0.6373810
  H       -2.0484320    -1.5899530     1.0551950
  H       -2.4714270    -1.2985150    -0.6417240
  H        2.2239110    -1.2047570    -1.3723200
  H        2.2280730    -1.9316170     0.2368100
  H        3.2753640    -0.5218720    -0.0948010
units angstrom
no_reorient  #important for SAPT in psi4, default
symmetry c1  #important for SAPT in psi4, default
}

set PROPERTIES_ORIGIN ["COM"]
properties('MP2/aug-cc-pvtz', properties = ['dipole'])
--------------------------------------------------------------------------

    Molecular point group: c1
  Charge       = 0
  Multiplicity = 1
  Basis Set: AUG-CC-PVTZ
    Blend: AUG-CC-PVTZ
  Basis Set: (AUG-CC-PVTZ AUX)
    Blend: AUG-CC-PVTZ-JKFIT

    Orbital Energies [Eh]
    ---------------------

    Doubly Occupied:

       1A    -20.597007     2A    -20.553465     3A    -11.389452
       4A    -11.287142     5A    -11.243358     6A    -11.217722
       7A    -11.213704     8A     -1.435742     9A     -1.353165
      10A     -1.069614    11A     -1.007775    12A     -0.942895
      13A     -0.823979    14A     -0.767344    15A     -0.695284
      16A     -0.660940    17A     -0.648268    18A     -0.608280
      19A     -0.588337    20A     -0.579352    21A     -0.561620
      22A     -0.545978    23A     -0.530579    24A     -0.518018
      25A     -0.503796    26A     -0.480903    27A     -0.453130
      28A     -0.444775

  @DF-RHF Final Energy:  -345.03334851732774

   => Energetics <=

    Nuclear Repulsion Energy =            320.0302630505855177
    One-Electron Energy =               -1104.6839700314008041
    Two-Electron Energy =                 439.6203584634875483
    Total Energy =                       -345.0333485173277381
  Basis Set: (AUG-CC-PVTZ AUX)
    Blend: AUG-CC-PVTZ-RI
    Molecular point group: c1

    Geometry (in Angstrom), charge = 0, multiplicity = 1:

       Center              X                  Y                   Z               Mass
    ------------   -----------------  -----------------  -----------------  -----------------
         O           -0.029933891168    -0.611703582636    -0.241606503783    15.994914619570
         O            1.362845508832     1.011994617364     0.702276496217    15.994914619570
         C           -1.158597491168     0.186695617364     0.216866496217    12.000000000000
         C           -1.411609491168     1.266054617364    -0.817909503783    12.000000000000
         C           -2.286331491168    -0.815178382636     0.332738496217    12.000000000000
         C            1.213500508832    -0.055540382636     0.131164496217    12.000000000000
         C            2.319458508832    -0.983135382636    -0.295632503783    12.000000000000
         H           -0.993173391168     0.666334817364     1.184977696217     1.007825032230
         H           -2.309213491168     1.835435617364    -0.559020503783     1.007825032230
         H           -0.567147491168     1.954682617364    -0.863229503783     1.007825032230
         H           -1.558717491168     0.812565617364    -1.801580503783     1.007825032230
         H           -3.205430491168    -0.313266382636     0.647396496217     1.007825032230
         H           -2.042121491168    -1.587167382636     1.065210496217     1.007825032230
         H           -2.465116491168    -1.295729382636    -0.631708503783     1.007825032230
         H            2.230221508832    -1.201971382636    -1.362304503783     1.007825032230
         H            2.234383508832    -1.928831382636     0.246825496217     1.007825032230
         H            3.281674508832    -0.519086382636    -0.084785503783     1.007825032230

  Basis Set: AUG-CC-PVTZ
    Blend: AUG-CC-PVTZ
  Basis Set: (AUG-CC-PVTZ AUX)
    Blend: AUG-CC-PVTZ-JKFIT
	 Reference Energy          =    -345.0333485173277381 [Eh]
	 Singles Energy            =      -0.0000000000000000 [Eh]
	 Same-Spin Energy          =      -0.3424927552289848 [Eh]
	 Opposite-Spin Energy      =      -1.1351334041737198 [Eh]
	 Correlation Energy        =      -1.4776261594027047 [Eh]
	 Total Energy              =    -346.5109746767304273 [Eh]

	 ================> DF-SCS-MP2 Energies <==================
	-----------------------------------------------------------
	 SCS Same-Spin Scale       =       0.3333333333333333 [-]
	 SCS Opposite-Spin Scale   =       1.2000000000000000 [-]
	 SCS Same-Spin Energy      =      -0.1141642517429949 [Eh]
	 SCS Opposite-Spin Energy  =      -1.3621600850084636 [Eh]
	 SCS Correlation Energy    =      -1.4763243367514587 [Eh]
	 SCS Total Energy          =    -346.5096728540792128 [Eh]
	-----------------------------------------------------------

  Dipole Moment: [D]
     X:    -0.6352      Y:    -1.2704      Z:    -0.5965     Total:     1.5405

*** Psi4 exiting successfully. Buy a developer a beer!
