                               Psi4 1.4a3.dev225

  ==> Input File <==

--------------------------------------------------------------------------
#psi4
#
memory 32 gb

molecule  {
0 1
  O       -0.1077990    -0.5624470     0.2079430
  O       -1.3021290     1.1073090    -0.7840490
  C        1.1279890     0.0542050    -0.2592580
  C        1.5159640     1.1744160     0.6880040
  C        2.1417370    -1.0702820    -0.3128090
  C       -1.2545869     0.0357952    -0.1031462
  C       -2.4469700    -0.6645530     0.4162300
  H        0.9393410     0.4580410    -1.2580840
  H        2.4644540     1.6220060     0.3756670
  H        0.7505430     1.9525630     0.6895830
  H        1.6331200     0.7804540     1.7015330
  H        3.1019190    -0.6925110    -0.6758780
  H        1.8018300    -1.8630990    -0.9832080
  H        2.2880710    -1.4948000     0.6840490
  H       -2.3821170    -0.7144520     1.5057940
  H       -2.4521220    -1.6889170     0.0368310
  H       -3.3591990    -0.1487030     0.1192220
units angstrom
no_reorient  #important for SAPT in psi4, default
symmetry c1  #important for SAPT in psi4, default
}

set PROPERTIES_ORIGIN ["COM"]
properties('MP2/aug-cc-pvtz', properties = ['dipole'])
--------------------------------------------------------------------------

    Molecular point group: c1
  Charge       = 0
  Multiplicity = 1
  Basis Set: AUG-CC-PVTZ
    Blend: AUG-CC-PVTZ
  Basis Set: (AUG-CC-PVTZ AUX)
    Blend: AUG-CC-PVTZ-JKFIT

    Orbital Energies [Eh]
    ---------------------

    Doubly Occupied:

       1A    -20.604135     2A    -20.531999     3A    -11.384460
       4A    -11.294585     5A    -11.241608     6A    -11.223977
       7A    -11.218641     8A     -1.452375     9A     -1.322226
      10A     -1.081236    11A     -1.014540    12A     -0.946920
      13A     -0.844965    14A     -0.766740    15A     -0.687327
      16A     -0.666988    17A     -0.655216    18A     -0.611633
      19A     -0.585731    20A     -0.580482    21A     -0.557894
      22A     -0.550131    23A     -0.536182    24A     -0.519555
      25A     -0.495594    26A     -0.482577    27A     -0.444762
      28A     -0.437951

  @DF-RHF Final Energy:  -345.03474081278716

   => Energetics <=

    Nuclear Repulsion Energy =            320.7825702157822434
    One-Electron Energy =               -1106.1537617165056417
    Two-Electron Energy =                 440.3364506879362352
    Total Energy =                       -345.0347408127871631
  Basis Set: (AUG-CC-PVTZ AUX)
    Blend: AUG-CC-PVTZ-RI
    Molecular point group: c1

    Geometry (in Angstrom), charge = 0, multiplicity = 1:

       Center              X                  Y                   Z               Mass
    ------------   -----------------  -----------------  -----------------  -----------------
         O           -0.061567196210    -0.574856122630     0.226105659287    15.994914619570
         O           -1.255897196210     1.094899877370    -0.765886340713    15.994914619570
         C            1.174220803790     0.041795877370    -0.241095340713    12.000000000000
         C            1.562195803790     1.162006877370     0.706166659287    12.000000000000
         C            2.187968803790    -1.082691122630    -0.294646340713    12.000000000000
         C           -1.208355096210     0.023386077370    -0.084983540713    12.000000000000
         C           -2.400738196210    -0.676962122630     0.434392659287    12.000000000000
         H            0.985572803790     0.445631877370    -1.239921340713     1.007825032230
         H            2.510685803790     1.609596877370     0.393829659287     1.007825032230
         H            0.796774803790     1.940153877370     0.707745659287     1.007825032230
         H            1.679351803790     0.768044877370     1.719695659287     1.007825032230
         H            3.148150803790    -0.704920122630    -0.657715340713     1.007825032230
         H            1.848061803790    -1.875508122630    -0.965045340713     1.007825032230
         H            2.334302803790    -1.507209122630     0.702211659287     1.007825032230
         H           -2.335885196210    -0.726861122630     1.523956659287     1.007825032230
         H           -2.405890196210    -1.701326122630     0.054993659287     1.007825032230
         H           -3.312967196210    -0.161112122630     0.137384659287     1.007825032230

  Basis Set: AUG-CC-PVTZ
    Blend: AUG-CC-PVTZ
  Basis Set: (AUG-CC-PVTZ AUX)
    Blend: AUG-CC-PVTZ-JKFIT
	 Reference Energy          =    -345.0347408127871631 [Eh]
	 Singles Energy            =      -0.0000000000000000 [Eh]
	 Same-Spin Energy          =      -0.3423698358450852 [Eh]
	 Opposite-Spin Energy      =      -1.1338513900301397 [Eh]
	 Correlation Energy        =      -1.4762212258752250 [Eh]
	 Total Energy              =    -346.5109620386623988 [Eh]

	 ================> DF-SCS-MP2 Energies <==================
	-----------------------------------------------------------
	 SCS Same-Spin Scale       =       0.3333333333333333 [-]
	 SCS Opposite-Spin Scale   =       1.2000000000000000 [-]
	 SCS Same-Spin Energy      =      -0.1141232786150284 [Eh]
	 SCS Opposite-Spin Energy  =      -1.3606216680361676 [Eh]
	 SCS Correlation Energy    =      -1.4747449466511959 [Eh]
	 SCS Total Energy          =    -346.5094857594383484 [Eh]
	-----------------------------------------------------------

  Dipole Moment: [D]
     X:     1.0087      Y:    -1.6459      Z:     1.0473     Total:     2.1963

*** Psi4 exiting successfully. Buy a developer a beer!
