                               Psi4 1.3.2 release

  ==> Input File <==

--------------------------------------------------------------------------
#psi4
#
memory 32 gb

molecule  {
0 1
  O       -0.0299469    -0.5375415    -0.1599784
  O        1.3565350     1.0092090     0.6922610
  C       -1.1649080     0.1839100     0.2068510
  C       -1.4179200     1.2632690    -0.8279250
  C       -2.2926420    -0.8179640     0.3227230
  C        1.2071900    -0.0583260     0.1211490
  C        2.3650189    -0.9335737    -0.2777307
  H       -0.9474970     0.6396690     1.1762190
  H       -2.3155240     1.8326500    -0.5690360
  H       -0.5734580     1.9518970    -0.8732450
  H       -1.5650280     0.8097800    -1.8115960
  H       -3.2117410    -0.3160520     0.6373810
  H       -2.0484320    -1.5899530     1.0551950
  H       -2.4714270    -1.2985150    -0.6417240
  H        2.2239110    -1.2047570    -1.3723200
  H        2.2280730    -1.9316170     0.2368100
  H        3.2753640    -0.5218720    -0.0948010
units angstrom
no_reorient  #important for SAPT in psi4, default
symmetry c1  #important for SAPT in psi4, default
}

set PROPERTIES_ORIGIN ["COM"]
properties('MP2/aug-cc-pvtz', properties = ['dipole'])
--------------------------------------------------------------------------

    Molecular point group: c1
  Charge       = 0
  Multiplicity = 1
  Basis Set: AUG-CC-PVTZ
    Blend: AUG-CC-PVTZ
  Basis Set: (AUG-CC-PVTZ AUX)
    Blend: AUG-CC-PVTZ-JKFIT

    Orbital Energies [Eh]
    ---------------------

    Doubly Occupied:

       1A    -20.595407     2A    -20.538614     3A    -11.383779
       4A    -11.284942     5A    -11.247463     6A    -11.219416
       7A    -11.213366     8A     -1.460198     9A     -1.353904
      10A     -1.074726    11A     -1.010178    12A     -0.944312
      13A     -0.852789    14A     -0.764310    15A     -0.694682
      16A     -0.671383    17A     -0.657531    18A     -0.607735
      19A     -0.601782    20A     -0.579343    21A     -0.557197
      22A     -0.545647    23A     -0.538981    24A     -0.520172
      25A     -0.497454    26A     -0.475909    27A     -0.447697
      28A     -0.438977

  @DF-RHF Final Energy:  -345.03339830669961

   => Energetics <=

    Nuclear Repulsion Energy =            322.2803321443740288
    One-Electron Energy =               -1109.0716778573171268
    Two-Electron Energy =                 441.7579474062434883
    Total Energy =                       -345.0333983066996097
  Basis Set: (AUG-CC-PVTZ AUX)
    Blend: AUG-CC-PVTZ-RI
    Molecular point group: c1

    Geometry (in Angstrom), charge = 0, multiplicity = 1:

       Center              X                  Y                   Z               Mass
    ------------   -----------------  -----------------  -----------------  -----------------
         O           -0.031234971227    -0.552732829358    -0.167618823241    15.994914619570
         O            1.355246928773     0.994017670642     0.684620576759    15.994914619570
         C           -1.166196071227     0.168718670642     0.199210576759    12.000000000000
         C           -1.419208071227     1.248077670642    -0.835565423241    12.000000000000
         C           -2.293930071227    -0.833155329358     0.315082576759    12.000000000000
         C            1.205901928773    -0.073517329358     0.113508576759    12.000000000000
         C            2.363730828773    -0.948765029358    -0.285371123241    12.000000000000
         H           -0.948785071227     0.624477670642     1.168578576759     1.007825032230
         H           -2.316812071227     1.817458670642    -0.576676423241     1.007825032230
         H           -0.574746071227     1.936705670642    -0.880885423241     1.007825032230
         H           -1.566316071227     0.794588670642    -1.819236423241     1.007825032230
         H           -3.213029071227    -0.331243329358     0.629740576759     1.007825032230
         H           -2.049720071227    -1.605144329358     1.047554576759     1.007825032230
         H           -2.472715071227    -1.313706329358    -0.649364423241     1.007825032230
         H            2.222622928773    -1.219948329358    -1.379960423241     1.007825032230
         H            2.226784928773    -1.946808329358     0.229169576759     1.007825032230
         H            3.274075928773    -0.537063329358    -0.102441423241     1.007825032230

  Basis Set: AUG-CC-PVTZ
    Blend: AUG-CC-PVTZ
  Basis Set: (AUG-CC-PVTZ AUX)
    Blend: AUG-CC-PVTZ-JKFIT
	 Reference Energy          =    -345.0333983066996097 [Eh]
	 Singles Energy            =      -0.0000000000000000 [Eh]
	 Same-Spin Energy          =      -0.3410919593800292 [Eh]
	 Opposite-Spin Energy      =      -1.1305579978988223 [Eh]
	 Correlation Energy        =      -1.4716499572788515 [Eh]
	 Total Energy              =    -346.5050482639784377 [Eh]

	 ================> DF-SCS-MP2 Energies <==================
	-----------------------------------------------------------
	 SCS Same-Spin Scale       =       0.3333333333333333 [-]
	 SCS Opposite-Spin Scale   =       1.2000000000000000 [-]
	 SCS Same-Spin Energy      =      -0.1136973197933431 [Eh]
	 SCS Opposite-Spin Energy  =      -1.3566695974785867 [Eh]
	 SCS Correlation Energy    =      -1.4703669172719298 [Eh]
	 SCS Total Energy          =    -346.5037652239715271 [Eh]
	-----------------------------------------------------------

  Dipole Moment: [D]
     X:    -0.7357      Y:    -1.5520      Z:    -0.8089     Total:     1.8985

*** Psi4 exiting successfully. Buy a developer a beer!
