                               Psi4 1.3.2 release

  ==> Input File <==

--------------------------------------------------------------------------
#psi4
#
memory 32 gb

molecule  {
0 1
  O        0.0007480    -0.5952090    -0.1877880
  O        1.2930464     1.0161360     0.6923442
  C       -1.1649080     0.1839100     0.2068510
  C       -1.4179200     1.2632690    -0.8279250
  C       -2.2926420    -0.8179640     0.3227230
  C        1.2071900    -0.0583260     0.1211490
  C        2.2583369    -1.0346807    -0.3344307
  H       -0.9474970     0.6396690     1.1762190
  H       -2.3155240     1.8326500    -0.5690360
  H       -0.5734580     1.9518970    -0.8732450
  H       -1.5650280     0.8097800    -1.8115960
  H       -3.2117410    -0.3160520     0.6373810
  H       -2.0484320    -1.5899530     1.0551950
  H       -2.4714270    -1.2985150    -0.6417240
  H        2.2239110    -1.2047570    -1.3723200
  H        2.2280730    -1.9316170     0.2368100
  H        3.2753640    -0.5218720    -0.0948010
units angstrom
no_reorient  #important for SAPT in psi4, default
symmetry c1  #important for SAPT in psi4, default
}

set PROPERTIES_ORIGIN ["COM"]
properties('MP2/aug-cc-pvtz', properties = ['dipole'])
--------------------------------------------------------------------------

    Molecular point group: c1
  Charge       = 0
  Multiplicity = 1
  Basis Set: AUG-CC-PVTZ
    Blend: AUG-CC-PVTZ
  Basis Set: (AUG-CC-PVTZ AUX)
    Blend: AUG-CC-PVTZ-JKFIT

    Orbital Energies [Eh]
    ---------------------

    Doubly Occupied:

       1A    -20.591766     2A    -20.544094     3A    -11.382564
       4A    -11.287441     5A    -11.244596     6A    -11.219502
       7A    -11.215268     8A     -1.450304     9A     -1.347414
      10A     -1.075624    11A     -1.008600    12A     -0.943746
      13A     -0.835249    14A     -0.763252    15A     -0.694067
      16A     -0.667203    17A     -0.656265    18A     -0.614272
      19A     -0.594331    20A     -0.569617    21A     -0.556716
      22A     -0.547302    23A     -0.533038    24A     -0.509859
      25A     -0.501880    26A     -0.480468    27A     -0.452790
      28A     -0.443728

  @DF-RHF Final Energy:  -345.03301126208379

   => Energetics <=

    Nuclear Repulsion Energy =            321.9832077273583764
    One-Electron Energy =               -1108.5705254040985892
    Two-Electron Energy =                 441.5543064146564234
    Total Energy =                       -345.0330112620837895
  Basis Set: (AUG-CC-PVTZ AUX)
    Blend: AUG-CC-PVTZ-RI
    Molecular point group: c1

    Geometry (in Angstrom), charge = 0, multiplicity = 1:

       Center              X                  Y                   Z               Mass
    ------------   -----------------  -----------------  -----------------  -----------------
         O            0.017141425666    -0.590561864934    -0.184417327455    15.994914619570
         O            1.309439825666     1.020783135066     0.695714872545    15.994914619570
         C           -1.148514574334     0.188557135066     0.210221672545    12.000000000000
         C           -1.401526574334     1.267916135066    -0.824554327455    12.000000000000
         C           -2.276248574334    -0.813316864934     0.326093672545    12.000000000000
         C            1.223583425666    -0.053678864934     0.124519672545    12.000000000000
         C            2.274730325666    -1.030033564934    -0.331060027455    12.000000000000
         H           -0.931103574334     0.644316135066     1.179589672545     1.007825032230
         H           -2.299130574334     1.837297135066    -0.565665327455     1.007825032230
         H           -0.557064574334     1.956544135066    -0.869874327455     1.007825032230
         H           -1.548634574334     0.814427135066    -1.808225327455     1.007825032230
         H           -3.195347574334    -0.311404864934     0.640751672545     1.007825032230
         H           -2.032038574334    -1.585305864934     1.058565672545     1.007825032230
         H           -2.455033574334    -1.293867864934    -0.638353327455     1.007825032230
         H            2.240304425666    -1.200109864934    -1.368949327455     1.007825032230
         H            2.244466425666    -1.926969864934     0.240180672545     1.007825032230
         H            3.291757425666    -0.517224864934    -0.091430327455     1.007825032230

  Basis Set: AUG-CC-PVTZ
    Blend: AUG-CC-PVTZ
  Basis Set: (AUG-CC-PVTZ AUX)
    Blend: AUG-CC-PVTZ-JKFIT
	 Reference Energy          =    -345.0330112620837895 [Eh]
	 Singles Energy            =      -0.0000000000000000 [Eh]
	 Same-Spin Energy          =      -0.3419768378147405 [Eh]
	 Opposite-Spin Energy      =      -1.1332253744605501 [Eh]
	 Correlation Energy        =      -1.4752022122752906 [Eh]
	 Total Energy              =    -346.5082134743590814 [Eh]

	 ================> DF-SCS-MP2 Energies <==================
	-----------------------------------------------------------
	 SCS Same-Spin Scale       =       0.3333333333333333 [-]
	 SCS Opposite-Spin Scale   =       1.2000000000000000 [-]
	 SCS Same-Spin Energy      =      -0.1139922792715802 [Eh]
	 SCS Opposite-Spin Energy  =      -1.3598704493526601 [Eh]
	 SCS Correlation Energy    =      -1.4738627286242403 [Eh]
	 SCS Total Energy          =    -346.5068739907080158 [Eh]
	-----------------------------------------------------------

  Dipole Moment: [D]
     X:    -0.8151      Y:    -1.4038      Z:    -0.7500     Total:     1.7882

*** Psi4 exiting successfully. Buy a developer a beer!
