                               Psi4 1.3.2 release

  ==> Input File <==

--------------------------------------------------------------------------
#psi4
#
memory 32 gb

molecule  {
0 1
  O        0.0347496    -0.6514049    -0.2147508
  O        1.3565350     1.0092090     0.6922610
  C       -1.1649080     0.1839100     0.2068510
  C       -1.4179200     1.2632690    -0.8279250
  C       -2.2926420    -0.8179640     0.3227230
  C        1.2071900    -0.0583260     0.1211490
  C        2.2582457    -1.0357259    -0.3323955
  H       -0.9474970     0.6396690     1.1762190
  H       -2.3155240     1.8326500    -0.5690360
  H       -0.5734580     1.9518970    -0.8732450
  H       -1.5650280     0.8097800    -1.8115960
  H       -3.2117410    -0.3160520     0.6373810
  H       -2.0484320    -1.5899530     1.0551950
  H       -2.4714270    -1.2985150    -0.6417240
  H        2.2239110    -1.2047570    -1.3723200
  H        2.2280730    -1.9316170     0.2368100
  H        3.2753640    -0.5218720    -0.0948010
units angstrom
no_reorient  #important for SAPT in psi4, default
symmetry c1  #important for SAPT in psi4, default
}

set PROPERTIES_ORIGIN ["COM"]
properties('MP2/aug-cc-pvtz', properties = ['dipole'])
--------------------------------------------------------------------------

    Molecular point group: c1
  Charge       = 0
  Multiplicity = 1
  Basis Set: AUG-CC-PVTZ
    Blend: AUG-CC-PVTZ
  Basis Set: (AUG-CC-PVTZ AUX)
    Blend: AUG-CC-PVTZ-JKFIT

    Orbital Energies [Eh]
    ---------------------

    Doubly Occupied:

       1A    -20.597719     2A    -20.545589     3A    -11.380012
       4A    -11.297005     5A    -11.235336     6A    -11.223577
       7A    -11.221018     8A     -1.440545     9A     -1.348012
      10A     -1.077225    11A     -1.002703    12A     -0.947460
      13A     -0.824993    14A     -0.766596    15A     -0.689846
      16A     -0.662963    17A     -0.654204    18A     -0.615133
      19A     -0.591286    20A     -0.573515    21A     -0.554136
      22A     -0.551366    23A     -0.535160    24A     -0.505472
      25A     -0.499133    26A     -0.488628    27A     -0.457861
      28A     -0.443075

  @DF-RHF Final Energy:  -345.02717587532823

   => Energetics <=

    Nuclear Repulsion Energy =            320.1730754849241976
    One-Electron Energy =               -1104.9413643697064344
    Two-Electron Energy =                 439.7411130094540113
    Total Energy =                       -345.0271758753282256
  Basis Set: (AUG-CC-PVTZ AUX)
    Blend: AUG-CC-PVTZ-RI
    Molecular point group: c1

    Geometry (in Angstrom), charge = 0, multiplicity = 1:

       Center              X                  Y                   Z               Mass
    ------------   -----------------  -----------------  -----------------  -----------------
         O            0.035876224997    -0.636743000274    -0.207381070526    15.994914619570
         O            1.357661624997     1.023870899726     0.699630729474    15.994914619570
         C           -1.163781375003     0.198571899726     0.214220729474    12.000000000000
         C           -1.416793375003     1.277930899726    -0.820555270526    12.000000000000
         C           -2.291515375003    -0.803302100274     0.330092729474    12.000000000000
         C            1.208316624997    -0.043664100274     0.128518729474    12.000000000000
         C            2.259372324997    -1.021064000274    -0.325025770526    12.000000000000
         H           -0.946370375003     0.654330899726     1.183588729474     1.007825032230
         H           -2.314397375003     1.847311899726    -0.561666270526     1.007825032230
         H           -0.572331375003     1.966558899726    -0.865875270526     1.007825032230
         H           -1.563901375003     0.824441899726    -1.804226270526     1.007825032230
         H           -3.210614375003    -0.301390100274     0.644750729474     1.007825032230
         H           -2.047305375003    -1.575291100274     1.062564729474     1.007825032230
         H           -2.470300375003    -1.283853100274    -0.634354270526     1.007825032230
         H            2.225037624997    -1.190095100274    -1.364950270526     1.007825032230
         H            2.229199624997    -1.916955100274     0.244179729474     1.007825032230
         H            3.276490624997    -0.507210100274    -0.087431270526     1.007825032230

  Basis Set: AUG-CC-PVTZ
    Blend: AUG-CC-PVTZ
  Basis Set: (AUG-CC-PVTZ AUX)
    Blend: AUG-CC-PVTZ-JKFIT
	 Reference Energy          =    -345.0271758753282256 [Eh]
	 Singles Energy            =      -0.0000000000000000 [Eh]
	 Same-Spin Energy          =      -0.3424531073902374 [Eh]
	 Opposite-Spin Energy      =      -1.1352413811705422 [Eh]
	 Correlation Energy        =      -1.4776944885607795 [Eh]
	 Total Energy              =    -346.5048703638889833 [Eh]

	 ================> DF-SCS-MP2 Energies <==================
	-----------------------------------------------------------
	 SCS Same-Spin Scale       =       0.3333333333333333 [-]
	 SCS Opposite-Spin Scale   =       1.2000000000000000 [-]
	 SCS Same-Spin Energy      =      -0.1141510357967458 [Eh]
	 SCS Opposite-Spin Energy  =      -1.3622896574046506 [Eh]
	 SCS Correlation Energy    =      -1.4764406932013965 [Eh]
	 SCS Total Energy          =    -346.5036165685295941 [Eh]
	-----------------------------------------------------------

  Dipole Moment: [D]
     X:    -1.2822      Y:    -1.2044      Z:    -0.6959     Total:     1.8918

*** Psi4 exiting successfully. Buy a developer a beer!
