                               Psi4 1.3.2 release

  ==> Input File <==

--------------------------------------------------------------------------
#psi4
#
memory 32 gb

molecule  {
0 1
  O        0.0007480    -0.5952090    -0.1877880
  O        1.3565350     1.0092090     0.6922610
  C       -1.1649080     0.1839100     0.2068510
  C       -1.4179200     1.2632690    -0.8279250
  C       -2.2926420    -0.8179640     0.3227230
  C        1.2163929    -0.0401128     0.1046035
  C        2.3131480    -0.9859210    -0.3056480
  H       -0.9474970     0.6396690     1.1762190
  H       -2.3155240     1.8326500    -0.5690360
  H       -0.5734580     1.9518970    -0.8732450
  H       -1.5650280     0.8097800    -1.8115960
  H       -3.2117410    -0.3160520     0.6373810
  H       -2.0484320    -1.5899530     1.0551950
  H       -2.4714270    -1.2985150    -0.6417240
  H        2.2239110    -1.2047570    -1.3723200
  H        2.2434972    -1.9380854     0.2276166
  H        3.2753640    -0.5218720    -0.0948010
units angstrom
no_reorient  #important for SAPT in psi4, default
symmetry c1  #important for SAPT in psi4, default
}

set PROPERTIES_ORIGIN ["COM"]
properties('MP2/aug-cc-pvtz', properties = ['dipole'])
--------------------------------------------------------------------------

    Molecular point group: c1
  Charge       = 0
  Multiplicity = 1
  Basis Set: AUG-CC-PVTZ
    Blend: AUG-CC-PVTZ
  Basis Set: (AUG-CC-PVTZ AUX)
    Blend: AUG-CC-PVTZ-JKFIT

    Orbital Energies [Eh]
    ---------------------

    Doubly Occupied:

       1A    -20.593955     2A    -20.544911     3A    -11.381318
       4A    -11.289302     5A    -11.240470     6A    -11.220510
       7A    -11.216614     8A     -1.447285     9A     -1.353902
      10A     -1.073847    11A     -1.005997    12A     -0.944980
      13A     -0.834594    14A     -0.763719    15A     -0.694196
      16A     -0.664394    17A     -0.653744    18A     -0.611575
      19A     -0.585710    20A     -0.577732    21A     -0.561720
      22A     -0.547620    23A     -0.534156    24A     -0.517173
      25A     -0.502630    26A     -0.482407    27A     -0.453286
      28A     -0.443436

  @DF-RHF Final Energy:  -345.04137436673574

   => Energetics <=

    Nuclear Repulsion Energy =            321.0821679367995216
    One-Electron Energy =               -1106.7647141514539726
    Two-Electron Energy =                 440.6411718479186561
    Total Energy =                       -345.0413743667357380
  Basis Set: (AUG-CC-PVTZ AUX)
    Blend: AUG-CC-PVTZ-RI
    Molecular point group: c1

    Geometry (in Angstrom), charge = 0, multiplicity = 1:

       Center              X                  Y                   Z               Mass
    ------------   -----------------  -----------------  -----------------  -----------------
         O           -0.000486099403    -0.597286386586    -0.185752223585    15.994914619570
         O            1.355300900597     1.007131613414     0.694296776415    15.994914619570
         C           -1.166142099403     0.181832613414     0.208886776415    12.000000000000
         C           -1.419154099403     1.261191613414    -0.825889223585    12.000000000000
         C           -2.293876099403    -0.820041386586     0.324758776415    12.000000000000
         C            1.215158800597    -0.042190186586     0.106639276415    12.000000000000
         C            2.311913900597    -0.987998386586    -0.303612223585    12.000000000000
         H           -0.948731099403     0.637591613414     1.178254776415     1.007825032230
         H           -2.316758099403     1.830572613414    -0.567000223585     1.007825032230
         H           -0.574692099403     1.949819613414    -0.871209223585     1.007825032230
         H           -1.566262099403     0.807702613414    -1.809560223585     1.007825032230
         H           -3.212975099403    -0.318129386586     0.639416776415     1.007825032230
         H           -2.049666099403    -1.592030386586     1.057230776415     1.007825032230
         H           -2.472661099403    -1.300592386586    -0.639688223585     1.007825032230
         H            2.222676900597    -1.206834386586    -1.370284223585     1.007825032230
         H            2.242263100597    -1.940162786586     0.229652376415     1.007825032230
         H            3.274129900597    -0.523949386586    -0.092765223585     1.007825032230

  Basis Set: AUG-CC-PVTZ
    Blend: AUG-CC-PVTZ
  Basis Set: (AUG-CC-PVTZ AUX)
    Blend: AUG-CC-PVTZ-JKFIT
	 Reference Energy          =    -345.0413743667357380 [Eh]
	 Singles Energy            =      -0.0000000000000000 [Eh]
	 Same-Spin Energy          =      -0.3414340114115951 [Eh]
	 Opposite-Spin Energy      =      -1.1322158920087648 [Eh]
	 Correlation Energy        =      -1.4736499034203598 [Eh]
	 Total Energy              =    -346.5150242701561183 [Eh]

	 ================> DF-SCS-MP2 Energies <==================
	-----------------------------------------------------------
	 SCS Same-Spin Scale       =       0.3333333333333333 [-]
	 SCS Opposite-Spin Scale   =       1.2000000000000000 [-]
	 SCS Same-Spin Energy      =      -0.1138113371371984 [Eh]
	 SCS Opposite-Spin Energy  =      -1.3586590704105177 [Eh]
	 SCS Correlation Energy    =      -1.4724704075477160 [Eh]
	 SCS Total Energy          =    -346.5138447742834273 [Eh]
	-----------------------------------------------------------

  Dipole Moment: [D]
     X:    -0.8999      Y:    -1.3203      Z:    -0.7365     Total:     1.7594

*** Psi4 exiting successfully. Buy a developer a beer!
