                               Psi4 1.3.2 release

  ==> Input File <==

--------------------------------------------------------------------------
#psi4
#
memory 32 gb

molecule  {
0 1
  O        0.0230856    -0.6322260    -0.2070633
  O        1.3986908     1.0036208     0.6900956
  C       -1.1649080     0.1839100     0.2068510
  C       -1.4179200     1.2632690    -0.8279250
  C       -2.2926420    -0.8179640     0.3227230
  C        1.2071900    -0.0583260     0.1211490
  C        2.3131480    -0.9859210    -0.3056480
  H       -0.9474970     0.6396690     1.1762190
  H       -2.3155240     1.8326500    -0.5690360
  H       -0.5734580     1.9518970    -0.8732450
  H       -1.5650280     0.8097800    -1.8115960
  H       -3.2117410    -0.3160520     0.6373810
  H       -2.0484320    -1.5899530     1.0551950
  H       -2.4714270    -1.2985150    -0.6417240
  H        2.2239110    -1.2047570    -1.3723200
  H        2.2280730    -1.9316170     0.2368100
  H        3.2753640    -0.5218720    -0.0948010
units angstrom
no_reorient  #important for SAPT in psi4, default
symmetry c1  #important for SAPT in psi4, default
}

set PROPERTIES_ORIGIN ["COM"]
properties('MP2/aug-cc-pvtz', properties = ['dipole'])
--------------------------------------------------------------------------

    Molecular point group: c1
  Charge       = 0
  Multiplicity = 1
  Basis Set: AUG-CC-PVTZ
    Blend: AUG-CC-PVTZ
  Basis Set: (AUG-CC-PVTZ AUX)
    Blend: AUG-CC-PVTZ-JKFIT

    Orbital Energies [Eh]
    ---------------------

    Doubly Occupied:

       1A    -20.600668     2A    -20.542835     3A    -11.379425
       4A    -11.296992     5A    -11.233859     6A    -11.224054
       7A    -11.220900     8A     -1.442234     9A     -1.350591
      10A     -1.076953    11A     -1.001793    12A     -0.948097
      13A     -0.829856    14A     -0.767378    15A     -0.689575
      16A     -0.662326    17A     -0.652706    18A     -0.612102
      19A     -0.584916    20A     -0.576638    21A     -0.563335
      22A     -0.550464    23A     -0.532872    24A     -0.514840
      25A     -0.503026    26A     -0.488124    27A     -0.456887
      28A     -0.440579

  @DF-RHF Final Energy:  -345.03770933409839

   => Energetics <=

    Nuclear Repulsion Energy =            319.9886503657454000
    One-Electron Energy =               -1104.5646720385639128
    Two-Electron Energy =                 439.5383123387201749
    Total Energy =                       -345.0377093340983947
  Basis Set: (AUG-CC-PVTZ AUX)
    Blend: AUG-CC-PVTZ-RI
    Molecular point group: c1

    Geometry (in Angstrom), charge = 0, multiplicity = 1:

       Center              X                  Y                   Z               Mass
    ------------   -----------------  -----------------  -----------------  -----------------
         O            0.012979121146    -0.625549367457    -0.203703595205    15.994914619570
         O            1.388584321146     1.010297432543     0.693455304795    15.994914619570
         C           -1.175014478854     0.190586632543     0.210210704795    12.000000000000
         C           -1.428026478854     1.269945632543    -0.824565295205    12.000000000000
         C           -2.302748478854    -0.811287367457     0.326082704795    12.000000000000
         C            1.197083521146    -0.051649367457     0.124508704795    12.000000000000
         C            2.303041521146    -0.979244367457    -0.302288295205    12.000000000000
         H           -0.957603478854     0.646345632543     1.179578704795     1.007825032230
         H           -2.325630478854     1.839326632543    -0.565676295205     1.007825032230
         H           -0.583564478854     1.958573632543    -0.869885295205     1.007825032230
         H           -1.575134478854     0.816456632543    -1.808236295205     1.007825032230
         H           -3.221847478854    -0.309375367457     0.640740704795     1.007825032230
         H           -2.058538478854    -1.583276367457     1.058554704795     1.007825032230
         H           -2.481533478854    -1.291838367457    -0.638364295205     1.007825032230
         H            2.213804521146    -1.198080367457    -1.368960295205     1.007825032230
         H            2.217966521146    -1.924940367457     0.240169704795     1.007825032230
         H            3.265257521146    -0.515195367457    -0.091441295205     1.007825032230

  Basis Set: AUG-CC-PVTZ
    Blend: AUG-CC-PVTZ
  Basis Set: (AUG-CC-PVTZ AUX)
    Blend: AUG-CC-PVTZ-JKFIT
	 Reference Energy          =    -345.0377093340983947 [Eh]
	 Singles Energy            =      -0.0000000000000000 [Eh]
	 Same-Spin Energy          =      -0.3417824530250387 [Eh]
	 Opposite-Spin Energy      =      -1.1335786187488905 [Eh]
	 Correlation Energy        =      -1.4753610717739292 [Eh]
	 Total Energy              =    -346.5130704058723268 [Eh]

	 ================> DF-SCS-MP2 Energies <==================
	-----------------------------------------------------------
	 SCS Same-Spin Scale       =       0.3333333333333333 [-]
	 SCS Opposite-Spin Scale   =       1.2000000000000000 [-]
	 SCS Same-Spin Energy      =      -0.1139274843416796 [Eh]
	 SCS Opposite-Spin Energy  =      -1.3602943424986687 [Eh]
	 SCS Correlation Energy    =      -1.4742218268403482 [Eh]
	 SCS Total Energy          =    -346.5119311609387296 [Eh]
	-----------------------------------------------------------

  Dipole Moment: [D]
     X:    -1.3084      Y:    -1.2348      Z:    -0.7068     Total:     1.9329

*** Psi4 exiting successfully. Buy a developer a beer!
