                               Psi4 1.3.2 release

  ==> Input File <==

--------------------------------------------------------------------------
#psi4
#
memory 32 gb

molecule  {
0 1
  O        0.0077503    -0.5846012    -0.1878430
  O        1.3565350     1.0092090     0.6922610
  C       -1.1649080     0.1839100     0.2068510
  C       -1.4179200     1.2632690    -0.8279250
  C       -2.3008674    -0.8082219     0.3261506
  C        1.2071900    -0.0583260     0.1211490
  C        2.3131480    -0.9859210    -0.3056480
  H       -0.9474970     0.6396690     1.1762190
  H       -2.3155240     1.8326500    -0.5690360
  H       -0.5734580     1.9518970    -0.8732450
  H       -1.5650280     0.8097800    -1.8115960
  H       -3.2117410    -0.3160520     0.6373810
  H       -2.0484320    -1.5899530     1.0551950
  H       -2.4714270    -1.2985150    -0.6417240
  H        2.2239110    -1.2047570    -1.3723200
  H        2.2280730    -1.9316170     0.2368100
  H        3.2753640    -0.5218720    -0.0948010
units angstrom
no_reorient  #important for SAPT in psi4, default
symmetry c1  #important for SAPT in psi4, default
}

set PROPERTIES_ORIGIN ["COM"]
properties('MP2/aug-cc-pvtz', properties = ['dipole'])
--------------------------------------------------------------------------

    Molecular point group: c1
  Charge       = 0
  Multiplicity = 1
  Basis Set: AUG-CC-PVTZ
    Blend: AUG-CC-PVTZ
  Basis Set: (AUG-CC-PVTZ AUX)
    Blend: AUG-CC-PVTZ-JKFIT

    Orbital Energies [Eh]
    ---------------------

    Doubly Occupied:

       1A    -20.597253     2A    -20.539794     3A    -11.379785
       4A    -11.291467     5A    -11.239779     6A    -11.222239
       7A    -11.217149     8A     -1.452138     9A     -1.349695
      10A     -1.077020    11A     -1.005982    12A     -0.945803
      13A     -0.839736    14A     -0.765220    15A     -0.691581
      16A     -0.666547    17A     -0.655128    18A     -0.610579
      19A     -0.585072    20A     -0.579693    21A     -0.562845
      22A     -0.547875    23A     -0.536959    24A     -0.518117
      25A     -0.500229    26A     -0.482123    27A     -0.451892
      28A     -0.442191

  @DF-RHF Final Energy:  -345.04251208024965

   => Energetics <=

    Nuclear Repulsion Energy =            321.3469766335077793
    One-Electron Energy =               -1107.2711908759997641
    Two-Electron Energy =                 440.8817021622423340
    Total Energy =                       -345.0425120802496508
  Basis Set: (AUG-CC-PVTZ AUX)
    Blend: AUG-CC-PVTZ-RI
    Molecular point group: c1

    Geometry (in Angstrom), charge = 0, multiplicity = 1:

       Center              X                  Y                   Z               Mass
    ------------   -----------------  -----------------  -----------------  -----------------
         O            0.007620202012    -0.587408850847    -0.188237589861    15.994914619570
         O            1.356404902012     1.006401349153     0.691866410139    15.994914619570
         C           -1.165038097988     0.181102349153     0.206456410139    12.000000000000
         C           -1.418050097988     1.260461349153    -0.828319589861    12.000000000000
         C           -2.300997497988    -0.811029550847     0.325756010139    12.000000000000
         C            1.207059902012    -0.061133650847     0.120754410139    12.000000000000
         C            2.313017902012    -0.988728650847    -0.306042589861    12.000000000000
         H           -0.947627097988     0.636861349153     1.175824410139     1.007825032230
         H           -2.315654097988     1.829842349153    -0.569430589861     1.007825032230
         H           -0.573588097988     1.949089349153    -0.873639589861     1.007825032230
         H           -1.565158097988     0.806972349153    -1.811990589861     1.007825032230
         H           -3.211871097988    -0.318859650847     0.636986410139     1.007825032230
         H           -2.048562097988    -1.592760650847     1.054800410139     1.007825032230
         H           -2.471557097988    -1.301322650847    -0.642118589861     1.007825032230
         H            2.223780902012    -1.207564650847    -1.372714589861     1.007825032230
         H            2.227942902012    -1.934424650847     0.236415410139     1.007825032230
         H            3.275233902012    -0.524679650847    -0.095195589861     1.007825032230

  Basis Set: AUG-CC-PVTZ
    Blend: AUG-CC-PVTZ
  Basis Set: (AUG-CC-PVTZ AUX)
    Blend: AUG-CC-PVTZ-JKFIT
	 Reference Energy          =    -345.0425120802496508 [Eh]
	 Singles Energy            =      -0.0000000000000000 [Eh]
	 Same-Spin Energy          =      -0.3412812165631995 [Eh]
	 Opposite-Spin Energy      =      -1.1317077028441638 [Eh]
	 Correlation Energy        =      -1.4729889194073633 [Eh]
	 Total Energy              =    -346.5155009996570357 [Eh]

	 ================> DF-SCS-MP2 Energies <==================
	-----------------------------------------------------------
	 SCS Same-Spin Scale       =       0.3333333333333333 [-]
	 SCS Opposite-Spin Scale   =       1.2000000000000000 [-]
	 SCS Same-Spin Energy      =      -0.1137604055210665 [Eh]
	 SCS Opposite-Spin Energy  =      -1.3580492434129965 [Eh]
	 SCS Correlation Energy    =      -1.4718096489340631 [Eh]
	 SCS Total Energy          =    -346.5143217291837345 [Eh]
	-----------------------------------------------------------

  Dipole Moment: [D]
     X:    -1.0631      Y:    -1.4046      Z:    -0.7577     Total:     1.9176

*** Psi4 exiting successfully. Buy a developer a beer!
