                               Psi4 1.3.2 release

  ==> Input File <==

--------------------------------------------------------------------------
#psi4
#
memory 32 gb

molecule  {
0 1
  O        0.0007480    -0.5952090    -0.1877880
  O        1.3142440     1.0141534     0.6924905
  C       -1.1649080     0.1839100     0.2068510
  C       -1.4179200     1.2632690    -0.8279250
  C       -2.2926420    -0.8179640     0.3227230
  C        1.2071900    -0.0583260     0.1211490
  C        2.2769350    -1.0187184    -0.3249714
  H       -0.9474970     0.6396690     1.1762190
  H       -2.3155240     1.8326500    -0.5690360
  H       -0.5734580     1.9518970    -0.8732450
  H       -1.5650280     0.8097800    -1.8115960
  H       -3.2117410    -0.3160520     0.6373810
  H       -2.0484320    -1.5899530     1.0551950
  H       -2.4714270    -1.2985150    -0.6417240
  H        2.2239110    -1.2047570    -1.3723200
  H        2.2280730    -1.9316170     0.2368100
  H        3.2753640    -0.5218720    -0.0948010
units angstrom
no_reorient  #important for SAPT in psi4, default
symmetry c1  #important for SAPT in psi4, default
}

set PROPERTIES_ORIGIN ["COM"]
properties('MP2/aug-cc-pvtz', properties = ['dipole'])
--------------------------------------------------------------------------

    Molecular point group: c1
  Charge       = 0
  Multiplicity = 1
  Basis Set: AUG-CC-PVTZ
    Blend: AUG-CC-PVTZ
  Basis Set: (AUG-CC-PVTZ AUX)
    Blend: AUG-CC-PVTZ-JKFIT

    Orbital Energies [Eh]
    ---------------------

    Doubly Occupied:

       1A    -20.593410     2A    -20.543391     3A    -11.381982
       4A    -11.288498     5A    -11.242892     6A    -11.220105
       7A    -11.215861     8A     -1.449746     9A     -1.348394
      10A     -1.075569    11A     -1.007727    12A     -0.944370
      13A     -0.835712    14A     -0.763838    15A     -0.693414
      16A     -0.666208    17A     -0.655307    18A     -0.612971
      19A     -0.591499    20A     -0.570713    21A     -0.559594
      22A     -0.547771    23A     -0.533829    24A     -0.513271
      25A     -0.502047    26A     -0.481251    27A     -0.452668
      28A     -0.443582

  @DF-RHF Final Energy:  -345.03768926950067

   => Energetics <=

    Nuclear Repulsion Energy =            321.6965552290865844
    One-Electron Energy =               -1107.9972428321634652
    Two-Electron Energy =                 441.2629983335762063
    Total Energy =                       -345.0376892695006745
  Basis Set: (AUG-CC-PVTZ AUX)
    Blend: AUG-CC-PVTZ-RI
    Molecular point group: c1

    Geometry (in Angstrom), charge = 0, multiplicity = 1:

       Center              X                  Y                   Z               Mass
    ------------   -----------------  -----------------  -----------------  -----------------
         O            0.011633033575    -0.592127840143    -0.185552370423    15.994914619570
         O            1.325129033575     1.017234559857     0.694726129577    15.994914619570
         C           -1.154022966425     0.186991159857     0.209086629577    12.000000000000
         C           -1.407034966425     1.266350159857    -0.825689370423    12.000000000000
         C           -2.281756966425    -0.814882840143     0.324958629577    12.000000000000
         C            1.218075033575    -0.055244840143     0.123384629577    12.000000000000
         C            2.287820033575    -1.015637240143    -0.322735770423    12.000000000000
         H           -0.936611966425     0.642750159857     1.178454629577     1.007825032230
         H           -2.304638966425     1.835731159857    -0.566800370423     1.007825032230
         H           -0.562572966425     1.954978159857    -0.871009370423     1.007825032230
         H           -1.554142966425     0.812861159857    -1.809360370423     1.007825032230
         H           -3.200855966425    -0.312970840143     0.639616629577     1.007825032230
         H           -2.037546966425    -1.586871840143     1.057430629577     1.007825032230
         H           -2.460541966425    -1.295433840143    -0.639488370423     1.007825032230
         H            2.234796033575    -1.201675840143    -1.370084370423     1.007825032230
         H            2.238958033575    -1.928535840143     0.239045629577     1.007825032230
         H            3.286249033575    -0.518790840143    -0.092565370423     1.007825032230

  Basis Set: AUG-CC-PVTZ
    Blend: AUG-CC-PVTZ
  Basis Set: (AUG-CC-PVTZ AUX)
    Blend: AUG-CC-PVTZ-JKFIT
	 Reference Energy          =    -345.0376892695006745 [Eh]
	 Singles Energy            =      -0.0000000000000000 [Eh]
	 Same-Spin Energy          =      -0.3417667653859476 [Eh]
	 Opposite-Spin Energy      =      -1.1327890184053697 [Eh]
	 Correlation Energy        =      -1.4745557837913172 [Eh]
	 Total Energy              =    -346.5122450532920197 [Eh]

	 ================> DF-SCS-MP2 Energies <==================
	-----------------------------------------------------------
	 SCS Same-Spin Scale       =       0.3333333333333333 [-]
	 SCS Opposite-Spin Scale   =       1.2000000000000000 [-]
	 SCS Same-Spin Energy      =      -0.1139222551286492 [Eh]
	 SCS Opposite-Spin Energy  =      -1.3593468220864435 [Eh]
	 SCS Correlation Energy    =      -1.4732690772150927 [Eh]
	 SCS Total Energy          =    -346.5109583467157677 [Eh]
	-----------------------------------------------------------

  Dipole Moment: [D]
     X:    -0.8729      Y:    -1.3952      Z:    -0.7509     Total:     1.8090

*** Psi4 exiting successfully. Buy a developer a beer!
