                               Psi4 1.3.2 release

  ==> Input File <==

--------------------------------------------------------------------------
#psi4
#
memory 32 gb

molecule  {
0 1
  O       -0.0051705    -0.6235672    -0.1460085
  O        1.3565350     1.0092090     0.6922610
  C       -1.1649080     0.1839100     0.2068510
  C       -1.4595442     1.2794548    -0.7995105
  C       -2.2926420    -0.8179640     0.3227230
  C        1.2071900    -0.0583260     0.1211490
  C        2.3131480    -0.9859210    -0.3056480
  H       -0.9474970     0.6396690     1.1762190
  H       -2.3155240     1.8326500    -0.5690360
  H       -0.5734580     1.9518970    -0.8732450
  H       -1.5650280     0.8097800    -1.8115960
  H       -3.2117410    -0.3160520     0.6373810
  H       -2.0484320    -1.5899530     1.0551950
  H       -2.4714270    -1.2985150    -0.6417240
  H        2.2239110    -1.2047570    -1.3723200
  H        2.2280730    -1.9316170     0.2368100
  H        3.2753640    -0.5218720    -0.0948010
units angstrom
no_reorient  #important for SAPT in psi4, default
symmetry c1  #important for SAPT in psi4, default
}

set PROPERTIES_ORIGIN ["COM"]
properties('MP2/aug-cc-pvtz', properties = ['dipole'])
--------------------------------------------------------------------------

    Molecular point group: c1
  Charge       = 0
  Multiplicity = 1
  Basis Set: AUG-CC-PVTZ
    Blend: AUG-CC-PVTZ
  Basis Set: (AUG-CC-PVTZ AUX)
    Blend: AUG-CC-PVTZ-JKFIT

    Orbital Energies [Eh]
    ---------------------

    Doubly Occupied:

       1A    -20.598321     2A    -20.544178     3A    -11.382699
       4A    -11.290088     5A    -11.240940     6A    -11.219540
       7A    -11.218689     8A     -1.447311     9A     -1.351360
      10A     -1.075229    11A     -1.007117    12A     -0.945149
      13A     -0.836507    14A     -0.763773    15A     -0.692554
      16A     -0.665322    17A     -0.655706    18A     -0.609601
      19A     -0.591787    20A     -0.578578    21A     -0.558875
      22A     -0.544901    23A     -0.534071    24A     -0.526006
      25A     -0.499353    26A     -0.476872    27A     -0.455272
      28A     -0.441598

  @DF-RHF Final Energy:  -345.03716406064012

   => Energetics <=

    Nuclear Repulsion Energy =            320.6872729447188135
    One-Electron Energy =               -1105.9460789748716252
    Two-Electron Energy =                 440.2216419695126319
    Total Energy =                       -345.0371640606401229
  Basis Set: (AUG-CC-PVTZ AUX)
    Blend: AUG-CC-PVTZ-RI
    Molecular point group: c1

    Geometry (in Angstrom), charge = 0, multiplicity = 1:

       Center              X                  Y                   Z               Mass
    ------------   -----------------  -----------------  -----------------  -----------------
         O            0.000650848296    -0.621026132174    -0.155896577539    15.994914619570
         O            1.362356348296     1.011750067826     0.682372922461    15.994914619570
         C           -1.159086651704     0.186451067826     0.196962922461    12.000000000000
         C           -1.453722851704     1.281995867826    -0.809398577539    12.000000000000
         C           -2.286820651704    -0.815422932174     0.312834922461    12.000000000000
         C            1.213011348296    -0.055784932174     0.111260922461    12.000000000000
         C            2.318969348296    -0.983379932174    -0.315536077539    12.000000000000
         H           -0.941675651704     0.642210067826     1.166330922461     1.007825032230
         H           -2.309702651704     1.835191067826    -0.578924077539     1.007825032230
         H           -0.567636651704     1.954438067826    -0.883133077539     1.007825032230
         H           -1.559206651704     0.812321067826    -1.821484077539     1.007825032230
         H           -3.205919651704    -0.313510932174     0.627492922461     1.007825032230
         H           -2.042610651704    -1.587411932174     1.045306922461     1.007825032230
         H           -2.465605651704    -1.295973932174    -0.651612077539     1.007825032230
         H            2.229732348296    -1.202215932174    -1.382208077539     1.007825032230
         H            2.233894348296    -1.929075932174     0.226921922461     1.007825032230
         H            3.281185348296    -0.519330932174    -0.104689077539     1.007825032230

  Basis Set: AUG-CC-PVTZ
    Blend: AUG-CC-PVTZ
  Basis Set: (AUG-CC-PVTZ AUX)
    Blend: AUG-CC-PVTZ-JKFIT
	 Reference Energy          =    -345.0371640606401229 [Eh]
	 Singles Energy            =      -0.0000000000000000 [Eh]
	 Same-Spin Energy          =      -0.3416535753657148 [Eh]
	 Opposite-Spin Energy      =      -1.1327748371040665 [Eh]
	 Correlation Energy        =      -1.4744284124697813 [Eh]
	 Total Energy              =    -346.5115924731098858 [Eh]

	 ================> DF-SCS-MP2 Energies <==================
	-----------------------------------------------------------
	 SCS Same-Spin Scale       =       0.3333333333333333 [-]
	 SCS Opposite-Spin Scale   =       1.2000000000000000 [-]
	 SCS Same-Spin Energy      =      -0.1138845251219049 [Eh]
	 SCS Opposite-Spin Energy  =      -1.3593298045248796 [Eh]
	 SCS Correlation Energy    =      -1.4732143296467846 [Eh]
	 SCS Total Energy          =    -346.5103783902869168 [Eh]
	-----------------------------------------------------------

  Dipole Moment: [D]
     X:    -0.9195      Y:    -1.2968      Z:    -0.7858     Total:     1.7733

*** Psi4 exiting successfully. Buy a developer a beer!
