                               Psi4 1.4a3.dev225

  ==> Input File <==

--------------------------------------------------------------------------
#psi4
#
memory 32 gb

molecule  {
0 1
  O       -0.1077990    -0.5624470     0.2079430
  O       -1.3021290     1.1073090    -0.7840490
  C        1.0856089     0.0330575    -0.2432358
  C        1.5159640     1.1744160     0.6880040
  C        2.1417370    -1.0702820    -0.3128090
  C       -1.2564580     0.0779660    -0.1299440
  C       -2.4469700    -0.6645530     0.4162300
  H        0.9393410     0.4580410    -1.2580840
  H        2.4644540     1.6220060     0.3756670
  H        0.7505430     1.9525630     0.6895830
  H        1.6331200     0.7804540     1.7015330
  H        3.1019190    -0.6925110    -0.6758780
  H        1.8018300    -1.8630990    -0.9832080
  H        2.2880710    -1.4948000     0.6840490
  H       -2.3821170    -0.7144520     1.5057940
  H       -2.4521220    -1.6889170     0.0368310
  H       -3.3591990    -0.1487030     0.1192220
units angstrom
no_reorient  #important for SAPT in psi4, default
symmetry c1  #important for SAPT in psi4, default
}

set PROPERTIES_ORIGIN ["COM"]
properties('MP2/aug-cc-pvtz', properties = ['dipole'])
--------------------------------------------------------------------------

    Molecular point group: c1
  Charge       = 0
  Multiplicity = 1
  Basis Set: AUG-CC-PVTZ
    Blend: AUG-CC-PVTZ
  Basis Set: (AUG-CC-PVTZ AUX)
    Blend: AUG-CC-PVTZ-JKFIT

    Orbital Energies [Eh]
    ---------------------

    Doubly Occupied:

       1A    -20.603139     2A    -20.545987     3A    -11.385435
       4A    -11.289515     5A    -11.242728     6A    -11.220186
       7A    -11.215824     8A     -1.460789     9A     -1.358313
      10A     -1.071827    11A     -1.007188    12A     -0.941132
      13A     -0.845566    14A     -0.765785    15A     -0.695990
      16A     -0.670729    17A     -0.658256    18A     -0.607827
      19A     -0.587151    20A     -0.578759    21A     -0.563712
      22A     -0.544844    23A     -0.538404    24A     -0.524761
      25A     -0.498771    26A     -0.474240    27A     -0.452628
      28A     -0.442078

  @DF-RHF Final Energy:  -345.04038505476262

   => Energetics <=

    Nuclear Repulsion Energy =            321.5147448124060361
    One-Electron Energy =               -1107.5271333466755550
    Two-Electron Energy =                 440.9720034795069523
    Total Energy =                       -345.0403850547626234
  Basis Set: (AUG-CC-PVTZ AUX)
    Blend: AUG-CC-PVTZ-RI
    Molecular point group: c1

    Geometry (in Angstrom), charge = 0, multiplicity = 1:

       Center              X                  Y                   Z               Mass
    ------------   -----------------  -----------------  -----------------  -----------------
         O           -0.056364645106    -0.577327802328     0.227372531364    15.994914619570
         O           -1.250694645106     1.092428197672    -0.764619468636    15.994914619570
         C            1.137043254894     0.018176697672    -0.223806268636    12.000000000000
         C            1.567398354894     1.159535197672     0.707433531364    12.000000000000
         C            2.193171354894    -1.085162802328    -0.293379468636    12.000000000000
         C           -1.205023645106     0.063085197672    -0.110514468636    12.000000000000
         C           -2.395535645106    -0.679433802328     0.435659531364    12.000000000000
         H            0.990775354894     0.443160197672    -1.238654468636     1.007825032230
         H            2.515888354894     1.607125197672     0.395096531364     1.007825032230
         H            0.801977354894     1.937682197672     0.709012531364     1.007825032230
         H            1.684554354894     0.765573197672     1.720962531364     1.007825032230
         H            3.153353354894    -0.707391802328    -0.656448468636     1.007825032230
         H            1.853264354894    -1.877979802328    -0.963778468636     1.007825032230
         H            2.339505354894    -1.509680802328     0.703478531364     1.007825032230
         H           -2.330682645106    -0.729332802328     1.525223531364     1.007825032230
         H           -2.400687645106    -1.703797802328     0.056260531364     1.007825032230
         H           -3.307764645106    -0.163583802328     0.138651531364     1.007825032230

  Basis Set: AUG-CC-PVTZ
    Blend: AUG-CC-PVTZ
  Basis Set: (AUG-CC-PVTZ AUX)
    Blend: AUG-CC-PVTZ-JKFIT
	 Reference Energy          =    -345.0403850547626234 [Eh]
	 Singles Energy            =      -0.0000000000000000 [Eh]
	 Same-Spin Energy          =      -0.3413540055975527 [Eh]
	 Opposite-Spin Energy      =      -1.1318905554887770 [Eh]
	 Correlation Energy        =      -1.4732445610863296 [Eh]
	 Total Energy              =    -346.5136296158489699 [Eh]

	 ================> DF-SCS-MP2 Energies <==================
	-----------------------------------------------------------
	 SCS Same-Spin Scale       =       0.3333333333333333 [-]
	 SCS Opposite-Spin Scale   =       1.2000000000000000 [-]
	 SCS Same-Spin Energy      =      -0.1137846685325176 [Eh]
	 SCS Opposite-Spin Energy  =      -1.3582686665865324 [Eh]
	 SCS Correlation Energy    =      -1.4720533351190499 [Eh]
	 SCS Total Energy          =    -346.5124383898816518 [Eh]
	-----------------------------------------------------------

  Dipole Moment: [D]
     X:     0.6363      Y:    -1.4175      Z:     0.8910     Total:     1.7911

*** Psi4 exiting successfully. Buy a developer a beer!
