                               Psi4 1.3.2 release

  ==> Input File <==

--------------------------------------------------------------------------
#psi4
#
memory 32 gb

molecule  {
0 1
  O       -0.0005987    -0.6023889    -0.1773862
  O        1.3565350     1.0092090     0.6922610
  C       -1.1649080     0.1839100     0.2068510
  C       -1.4283569     1.2674395    -0.8209382
  C       -2.2926420    -0.8179640     0.3227230
  C        1.2071900    -0.0583260     0.1211490
  C        2.3131480    -0.9859210    -0.3056480
  H       -0.9474970     0.6396690     1.1762190
  H       -2.3155240     1.8326500    -0.5690360
  H       -0.5734580     1.9518970    -0.8732450
  H       -1.5650280     0.8097800    -1.8115960
  H       -3.2117410    -0.3160520     0.6373810
  H       -2.0484320    -1.5899530     1.0551950
  H       -2.4714270    -1.2985150    -0.6417240
  H        2.2239110    -1.2047570    -1.3723200
  H        2.2280730    -1.9316170     0.2368100
  H        3.2753640    -0.5218720    -0.0948010
units angstrom
no_reorient  #important for SAPT in psi4, default
symmetry c1  #important for SAPT in psi4, default
}

set PROPERTIES_ORIGIN ["COM"]
properties('MP2/aug-cc-pvtz', properties = ['dipole'])
--------------------------------------------------------------------------

    Molecular point group: c1
  Charge       = 0
  Multiplicity = 1
  Basis Set: AUG-CC-PVTZ
    Blend: AUG-CC-PVTZ
  Basis Set: (AUG-CC-PVTZ AUX)
    Blend: AUG-CC-PVTZ-JKFIT

    Orbital Energies [Eh]
    ---------------------

    Doubly Occupied:

       1A    -20.597188     2A    -20.542472     3A    -11.381486
       4A    -11.290496     5A    -11.240352     6A    -11.220910
       7A    -11.217419     8A     -1.448579     9A     -1.350653
      10A     -1.075564    11A     -1.006282    12A     -0.945501
      13A     -0.836947    14A     -0.764823    15A     -0.692174
      16A     -0.665182    17A     -0.654617    18A     -0.610576
      19A     -0.586920    20A     -0.578457    21A     -0.561150
      22A     -0.547447    23A     -0.534190    24A     -0.520417
      25A     -0.501195    26A     -0.481388    27A     -0.453480
      28A     -0.442251

  @DF-RHF Final Energy:  -345.04151979636504

   => Energetics <=

    Nuclear Repulsion Energy =            321.0450215056468437
    One-Electron Energy =               -1106.6768481977101146
    Two-Electron Energy =                 440.5903068956981770
    Total Energy =                       -345.0415197963650371
  Basis Set: (AUG-CC-PVTZ AUX)
    Blend: AUG-CC-PVTZ-RI
    Molecular point group: c1

    Geometry (in Angstrom), charge = 0, multiplicity = 1:

       Center              X                  Y                   Z               Mass
    ------------   -----------------  -----------------  -----------------  -----------------
         O            0.000839562491    -0.601754025581    -0.179837907268    15.994914619570
         O            1.357973262491     1.009843874419     0.689809292732    15.994914619570
         C           -1.163469737509     0.184544874419     0.204399292732    12.000000000000
         C           -1.426918637509     1.268074374419    -0.823389907268    12.000000000000
         C           -2.291203737509    -0.817329125581     0.320271292732    12.000000000000
         C            1.208628262491    -0.057691125581     0.118697292732    12.000000000000
         C            2.314586262491    -0.985286125581    -0.308099707268    12.000000000000
         H           -0.946058737509     0.640303874419     1.173767292732     1.007825032230
         H           -2.314085737509     1.833284874419    -0.571487707268     1.007825032230
         H           -0.572019737509     1.952531874419    -0.875696707268     1.007825032230
         H           -1.563589737509     0.810414874419    -1.814047707268     1.007825032230
         H           -3.210302737509    -0.315417125581     0.634929292732     1.007825032230
         H           -2.046993737509    -1.589318125581     1.052743292732     1.007825032230
         H           -2.469988737509    -1.297880125581    -0.644175707268     1.007825032230
         H            2.225349262491    -1.204122125581    -1.374771707268     1.007825032230
         H            2.229511262491    -1.930982125581     0.234358292732     1.007825032230
         H            3.276802262491    -0.521237125581    -0.097252707268     1.007825032230

  Basis Set: AUG-CC-PVTZ
    Blend: AUG-CC-PVTZ
  Basis Set: (AUG-CC-PVTZ AUX)
    Blend: AUG-CC-PVTZ-JKFIT
	 Reference Energy          =    -345.0415197963650371 [Eh]
	 Singles Energy            =      -0.0000000000000000 [Eh]
	 Same-Spin Energy          =      -0.3414925709811059 [Eh]
	 Opposite-Spin Energy      =      -1.1323025427022733 [Eh]
	 Correlation Energy        =      -1.4737951136833791 [Eh]
	 Total Energy              =    -346.5153149100484029 [Eh]

	 ================> DF-SCS-MP2 Energies <==================
	-----------------------------------------------------------
	 SCS Same-Spin Scale       =       0.3333333333333333 [-]
	 SCS Opposite-Spin Scale   =       1.2000000000000000 [-]
	 SCS Same-Spin Energy      =      -0.1138308569937019 [Eh]
	 SCS Opposite-Spin Energy  =      -1.3587630512427278 [Eh]
	 SCS Correlation Energy    =      -1.4725939082364297 [Eh]
	 SCS Total Energy          =    -346.5141137046014705 [Eh]
	-----------------------------------------------------------

  Dipole Moment: [D]
     X:    -0.9810      Y:    -1.3531      Z:    -0.7595     Total:     1.8358

*** Psi4 exiting successfully. Buy a developer a beer!
