                               Psi4 1.3.2 release

  ==> Input File <==

--------------------------------------------------------------------------
#psi4
#
memory 32 gb

molecule  {
0 1
  O        0.0007480    -0.5952090    -0.1877880
  O        1.3565350     1.0092090     0.6922610
  C       -1.1649080     0.1839100     0.2068510
  C       -1.4179200     1.2632690    -0.8279250
  C       -2.2926420    -0.8179640     0.3227230
  C        1.2316752     0.1166972     0.2147832
  C        2.3131480    -0.9859210    -0.3056480
  H       -0.9474970     0.6396690     1.1762190
  H       -2.3155240     1.8326500    -0.5690360
  H       -0.5734580     1.9518970    -0.8732450
  H       -1.5650280     0.8097800    -1.8115960
  H       -3.2117410    -0.3160520     0.6373810
  H       -2.0484320    -1.5899530     1.0551950
  H       -2.4714270    -1.2985150    -0.6417240
  H        2.2239110    -1.2047570    -1.3723200
  H        2.2280730    -1.9316170     0.2368100
  H        3.2753640    -0.5218720    -0.0948010
units angstrom
no_reorient  #important for SAPT in psi4, default
symmetry c1  #important for SAPT in psi4, default
}

set PROPERTIES_ORIGIN ["COM"]
properties('MP2/aug-cc-pvtz', properties = ['dipole'])
--------------------------------------------------------------------------

    Molecular point group: c1
  Charge       = 0
  Multiplicity = 1
  Basis Set: AUG-CC-PVTZ
    Blend: AUG-CC-PVTZ
  Basis Set: (AUG-CC-PVTZ AUX)
    Blend: AUG-CC-PVTZ-JKFIT

    Orbital Energies [Eh]
    ---------------------

    Doubly Occupied:

       1A    -20.582136     2A    -20.562406     3A    -11.365054
       4A    -11.276498     5A    -11.233357     6A    -11.213052
       7A    -11.212217     8A     -1.569327     9A     -1.352640
      10A     -1.052080    11A     -0.973227    12A     -0.938981
      13A     -0.806873    14A     -0.768121    15A     -0.738277
      16A     -0.692306    17A     -0.680999    18A     -0.617044
      19A     -0.597368    20A     -0.563129    21A     -0.560259
      22A     -0.554642    23A     -0.540254    24A     -0.514788
      25A     -0.508185    26A     -0.481029    27A     -0.442692
      28A     -0.414472

  @DF-RHF Final Energy:  -344.95880370474799

   => Energetics <=

    Nuclear Repulsion Energy =            322.4511990954252951
    One-Electron Energy =               -1109.1971825093075950
    Two-Electron Energy =                 441.7871797091343069
    Total Energy =                       -344.9588037047479929
  Basis Set: (AUG-CC-PVTZ AUX)
    Blend: AUG-CC-PVTZ-RI
    Molecular point group: c1

    Geometry (in Angstrom), charge = 0, multiplicity = 1:

       Center              X                  Y                   Z               Mass
    ------------   -----------------  -----------------  -----------------  -----------------
         O           -0.002130518558    -0.615786186166    -0.198796671413    15.994914619570
         O            1.353656481442     0.988631813834     0.681252328587    15.994914619570
         C           -1.167786518558     0.163332813834     0.195842328587    12.000000000000
         C           -1.420798518558     1.242691813834    -0.838933671413    12.000000000000
         C           -2.295520518558    -0.838541186166     0.311714328587    12.000000000000
         C            1.228796681442     0.096120013834     0.203774528587    12.000000000000
         C            2.310269481442    -1.006498186166    -0.316656671413    12.000000000000
         H           -0.950375518558     0.619091813834     1.165210328587     1.007825032230
         H           -2.318402518558     1.812072813834    -0.580044671413     1.007825032230
         H           -0.576336518558     1.931319813834    -0.884253671413     1.007825032230
         H           -1.567906518558     0.789202813834    -1.822604671413     1.007825032230
         H           -3.214619518558    -0.336629186166     0.626372328587     1.007825032230
         H           -2.051310518558    -1.610530186166     1.044186328587     1.007825032230
         H           -2.474305518558    -1.319092186166    -0.652732671413     1.007825032230
         H            2.221032481442    -1.225334186166    -1.383328671413     1.007825032230
         H            2.225194481442    -1.952194186166     0.225801328587     1.007825032230
         H            3.272485481442    -0.542449186166    -0.105809671413     1.007825032230

  Basis Set: AUG-CC-PVTZ
    Blend: AUG-CC-PVTZ
  Basis Set: (AUG-CC-PVTZ AUX)
    Blend: AUG-CC-PVTZ-JKFIT
	 Reference Energy          =    -344.9588037047479929 [Eh]
	 Singles Energy            =      -0.0000000000000000 [Eh]
	 Same-Spin Energy          =      -0.3389215607523980 [Eh]
	 Opposite-Spin Energy      =      -1.1278497645181778 [Eh]
	 Correlation Energy        =      -1.4667713252705759 [Eh]
	 Total Energy              =    -346.4255750300185923 [Eh]

	 ================> DF-SCS-MP2 Energies <==================
	-----------------------------------------------------------
	 SCS Same-Spin Scale       =       0.3333333333333333 [-]
	 SCS Opposite-Spin Scale   =       1.2000000000000000 [-]
	 SCS Same-Spin Energy      =      -0.1129738535841327 [Eh]
	 SCS Opposite-Spin Energy  =      -1.3534197174218132 [Eh]
	 SCS Correlation Energy    =      -1.4663935710059459 [Eh]
	 SCS Total Energy          =    -346.4251972757539306 [Eh]
	-----------------------------------------------------------

  Dipole Moment: [D]
     X:    -0.2495      Y:    -0.1599      Z:    -0.0731     Total:     0.3052

*** Psi4 exiting successfully. Buy a developer a beer!
