                               Psi4 1.3.2 release

  ==> Input File <==

--------------------------------------------------------------------------
#psi4
#
memory 32 gb

molecule  {
0 1
  O        0.0123736    -0.5883049    -0.1662609
  O        1.3565350     1.0092090     0.6922610
  C       -1.1649080     0.1839100     0.2068510
  C       -1.4179200     1.2632690    -0.8279250
  C       -2.2926420    -0.8179640     0.3227230
  C        1.2071900    -0.0583260     0.1211490
  C        2.3131480    -0.9859210    -0.3056480
  H       -0.9302935     0.6314280     1.1760475
  H       -2.3155240     1.8326500    -0.5690360
  H       -0.5734580     1.9518970    -0.8732450
  H       -1.5650280     0.8097800    -1.8115960
  H       -3.2117410    -0.3160520     0.6373810
  H       -2.0484320    -1.5899530     1.0551950
  H       -2.4714270    -1.2985150    -0.6417240
  H        2.2239110    -1.2047570    -1.3723200
  H        2.2280730    -1.9316170     0.2368100
  H        3.2753640    -0.5218720    -0.0948010
units angstrom
no_reorient  #important for SAPT in psi4, default
symmetry c1  #important for SAPT in psi4, default
}

set PROPERTIES_ORIGIN ["COM"]
properties('MP2/aug-cc-pvtz', properties = ['dipole'])
--------------------------------------------------------------------------

    Molecular point group: c1
  Charge       = 0
  Multiplicity = 1
  Basis Set: AUG-CC-PVTZ
    Blend: AUG-CC-PVTZ
  Basis Set: (AUG-CC-PVTZ AUX)
    Blend: AUG-CC-PVTZ-JKFIT

    Orbital Energies [Eh]
    ---------------------

    Doubly Occupied:

       1A    -20.596554     2A    -20.538092     3A    -11.378350
       4A    -11.291887     5A    -11.239231     6A    -11.222569
       7A    -11.218241     8A     -1.454235     9A     -1.348939
      10A     -1.077732    11A     -1.005568    12A     -0.946609
      13A     -0.841600    14A     -0.764456    15A     -0.691022
      16A     -0.666931    17A     -0.656305    18A     -0.612132
      19A     -0.584887    20A     -0.578063    21A     -0.561954
      22A     -0.549152    23A     -0.535640    24A     -0.518374
      25A     -0.501162    26A     -0.482791    27A     -0.452085
      28A     -0.441161

  @DF-RHF Final Energy:  -345.04299890162309

   => Energetics <=

    Nuclear Repulsion Energy =            321.5460339082683277
    One-Electron Energy =               -1107.6666259008852649
    Two-Electron Energy =                 441.0775930909938438
    Total Energy =                       -345.0429989016230934
  Basis Set: (AUG-CC-PVTZ AUX)
    Blend: AUG-CC-PVTZ-RI
    Molecular point group: c1

    Geometry (in Angstrom), charge = 0, multiplicity = 1:

       Center              X                  Y                   Z               Mass
    ------------   -----------------  -----------------  -----------------  -----------------
         O            0.010382075721    -0.589305413374    -0.169632912441    15.994914619570
         O            1.354543475721     1.008208486626     0.688888987559    15.994914619570
         C           -1.166899524279     0.182909486626     0.203478987559    12.000000000000
         C           -1.419911524279     1.262268486626    -0.831297012441    12.000000000000
         C           -2.294633524279    -0.818964513374     0.319350987559    12.000000000000
         C            1.205198475721    -0.059326513374     0.117776987559    12.000000000000
         C            2.311156475721    -0.986921513374    -0.309020012441    12.000000000000
         H           -0.932285024279     0.630427486626     1.172675487559     1.007825032230
         H           -2.317515524279     1.831649486626    -0.572408012441     1.007825032230
         H           -0.575449524279     1.950896486626    -0.876617012441     1.007825032230
         H           -1.567019524279     0.808779486626    -1.814968012441     1.007825032230
         H           -3.213732524279    -0.317052513374     0.634008987559     1.007825032230
         H           -2.050423524279    -1.590953513374     1.051822987559     1.007825032230
         H           -2.473418524279    -1.299515513374    -0.645096012441     1.007825032230
         H            2.221919475721    -1.205757513374    -1.375692012441     1.007825032230
         H            2.226081475721    -1.932617513374     0.233437987559     1.007825032230
         H            3.273372475721    -0.522872513374    -0.098173012441     1.007825032230

  Basis Set: AUG-CC-PVTZ
    Blend: AUG-CC-PVTZ
  Basis Set: (AUG-CC-PVTZ AUX)
    Blend: AUG-CC-PVTZ-JKFIT
	 Reference Energy          =    -345.0429989016230934 [Eh]
	 Singles Energy            =      -0.0000000000000000 [Eh]
	 Same-Spin Energy          =      -0.3411809465923513 [Eh]
	 Opposite-Spin Energy      =      -1.1313610330964381 [Eh]
	 Correlation Energy        =      -1.4725419796887893 [Eh]
	 Total Energy              =    -346.5155408813118925 [Eh]

	 ================> DF-SCS-MP2 Energies <==================
	-----------------------------------------------------------
	 SCS Same-Spin Scale       =       0.3333333333333333 [-]
	 SCS Opposite-Spin Scale   =       1.2000000000000000 [-]
	 SCS Same-Spin Energy      =      -0.1137269821974504 [Eh]
	 SCS Opposite-Spin Energy  =      -1.3576332397157256 [Eh]
	 SCS Correlation Energy    =      -1.4713602219131761 [Eh]
	 SCS Total Energy          =    -346.5143591235362805 [Eh]
	-----------------------------------------------------------

  Dipole Moment: [D]
     X:    -1.1130      Y:    -1.4104      Z:    -0.8015     Total:     1.9673

*** Psi4 exiting successfully. Buy a developer a beer!
