                               Psi4 1.3.2 release

  ==> Input File <==

--------------------------------------------------------------------------
#psi4
#
memory 32 gb

molecule  {
0 1
  O       -0.0299944    -0.5384713    -0.1581768
  O        1.2929763     1.0151509     0.6942039
  C       -1.1649080     0.1839100     0.2068510
  C       -1.4179200     1.2632690    -0.8279250
  C       -2.2926420    -0.8179640     0.3227230
  C        1.2071900    -0.0583260     0.1211490
  C        2.3131480    -0.9859210    -0.3056480
  H       -0.9474970     0.6396690     1.1762190
  H       -2.3155240     1.8326500    -0.5690360
  H       -0.5734580     1.9518970    -0.8732450
  H       -1.5650280     0.8097800    -1.8115960
  H       -3.2117410    -0.3160520     0.6373810
  H       -2.0484320    -1.5899530     1.0551950
  H       -2.4714270    -1.2985150    -0.6417240
  H        2.2239110    -1.2047570    -1.3723200
  H        2.2280730    -1.9316170     0.2368100
  H        3.2753640    -0.5218720    -0.0948010
units angstrom
no_reorient  #important for SAPT in psi4, default
symmetry c1  #important for SAPT in psi4, default
}

set PROPERTIES_ORIGIN ["COM"]
properties('MP2/aug-cc-pvtz', properties = ['dipole'])
--------------------------------------------------------------------------

    Molecular point group: c1
  Charge       = 0
  Multiplicity = 1
  Basis Set: AUG-CC-PVTZ
    Blend: AUG-CC-PVTZ
  Basis Set: (AUG-CC-PVTZ AUX)
    Blend: AUG-CC-PVTZ-JKFIT

    Orbital Energies [Eh]
    ---------------------

    Doubly Occupied:

       1A    -20.589654     2A    -20.540402     3A    -11.384218
       4A    -11.281505     5A    -11.249495     6A    -11.217365
       7A    -11.211444     8A     -1.460540     9A     -1.350348
      10A     -1.074536    11A     -1.011646    12A     -0.942219
      13A     -0.849422    14A     -0.761352    15A     -0.696449
      16A     -0.669696    17A     -0.656568    18A     -0.610602
      19A     -0.588871    20A     -0.581970    21A     -0.559319
      22A     -0.544525    23A     -0.538257    24A     -0.518744
      25A     -0.500146    26A     -0.473544    27A     -0.449301
      28A     -0.438214

  @DF-RHF Final Energy:  -345.03937915152756

   => Energetics <=

    Nuclear Repulsion Energy =            323.0456617362905831
    One-Electron Energy =               -1110.6693770162921737
    Two-Electron Energy =                 442.5843361284739785
    Total Energy =                       -345.0393791515275552
  Basis Set: (AUG-CC-PVTZ AUX)
    Blend: AUG-CC-PVTZ-RI
    Molecular point group: c1

    Geometry (in Angstrom), charge = 0, multiplicity = 1:

       Center              X                  Y                   Z               Mass
    ------------   -----------------  -----------------  -----------------  -----------------
         O           -0.015216463663    -0.548293668849    -0.163121819904    15.994914619570
         O            1.307754236337     1.005328531151     0.689258880096    15.994914619570
         C           -1.150130063663     0.174087631151     0.201905980096    12.000000000000
         C           -1.403142063663     1.253446631151    -0.832870019904    12.000000000000
         C           -2.277864063663    -0.827786368849     0.317777980096    12.000000000000
         C            1.221967936337    -0.068148368849     0.116203980096    12.000000000000
         C            2.327925936337    -0.995743368849    -0.310593019904    12.000000000000
         H           -0.932719063663     0.629846631151     1.171273980096     1.007825032230
         H           -2.300746063663     1.822827631151    -0.573981019904     1.007825032230
         H           -0.558680063663     1.942074631151    -0.878190019904     1.007825032230
         H           -1.550250063663     0.799957631151    -1.816541019904     1.007825032230
         H           -3.196963063663    -0.325874368849     0.632435980096     1.007825032230
         H           -2.033654063663    -1.599775368849     1.050249980096     1.007825032230
         H           -2.456649063663    -1.308337368849    -0.646669019904     1.007825032230
         H            2.238688936337    -1.214579368849    -1.377265019904     1.007825032230
         H            2.242850936337    -1.941439368849     0.231864980096     1.007825032230
         H            3.290141936337    -0.531694368849    -0.099746019904     1.007825032230

  Basis Set: AUG-CC-PVTZ
    Blend: AUG-CC-PVTZ
  Basis Set: (AUG-CC-PVTZ AUX)
    Blend: AUG-CC-PVTZ-JKFIT
	 Reference Energy          =    -345.0393791515275552 [Eh]
	 Singles Energy            =      -0.0000000000000000 [Eh]
	 Same-Spin Energy          =      -0.3413306445894576 [Eh]
	 Opposite-Spin Energy      =      -1.1308032432781254 [Eh]
	 Correlation Energy        =      -1.4721338878675829 [Eh]
	 Total Energy              =    -346.5115130393951404 [Eh]

	 ================> DF-SCS-MP2 Energies <==================
	-----------------------------------------------------------
	 SCS Same-Spin Scale       =       0.3333333333333333 [-]
	 SCS Opposite-Spin Scale   =       1.2000000000000000 [-]
	 SCS Same-Spin Energy      =      -0.1137768815298192 [Eh]
	 SCS Opposite-Spin Energy  =      -1.3569638919337506 [Eh]
	 SCS Correlation Energy    =      -1.4707407734635698 [Eh]
	 SCS Total Energy          =    -346.5101199249911019 [Eh]
	-----------------------------------------------------------

  Dipole Moment: [D]
     X:    -0.5260      Y:    -1.5847      Z:    -0.8182     Total:     1.8594

*** Psi4 exiting successfully. Buy a developer a beer!
