                               Psi4 1.3.2 release

  ==> Input File <==

--------------------------------------------------------------------------
#psi4
#
memory 32 gb

molecule  {
0 1
  O        0.0230539    -0.6328461    -0.2058619
  O        1.3565350     1.0092090     0.6922610
  C       -1.1649080     0.1839100     0.2068510
  C       -1.4179200     1.2632690    -0.8279250
  C       -2.2926420    -0.8179640     0.3227230
  C        1.2071900    -0.0583260     0.1211490
  C        2.2768742    -1.0194153    -0.3236142
  H       -0.9474970     0.6396690     1.1762190
  H       -2.3155240     1.8326500    -0.5690360
  H       -0.5734580     1.9518970    -0.8732450
  H       -1.5650280     0.8097800    -1.8115960
  H       -3.2117410    -0.3160520     0.6373810
  H       -2.0484320    -1.5899530     1.0551950
  H       -2.4714270    -1.2985150    -0.6417240
  H        2.2239110    -1.2047570    -1.3723200
  H        2.2280730    -1.9316170     0.2368100
  H        3.2753640    -0.5218720    -0.0948010
units angstrom
no_reorient  #important for SAPT in psi4, default
symmetry c1  #important for SAPT in psi4, default
}

set PROPERTIES_ORIGIN ["COM"]
properties('MP2/aug-cc-pvtz', properties = ['dipole'])
--------------------------------------------------------------------------

    Molecular point group: c1
  Charge       = 0
  Multiplicity = 1
  Basis Set: AUG-CC-PVTZ
    Blend: AUG-CC-PVTZ
  Basis Set: (AUG-CC-PVTZ AUX)
    Blend: AUG-CC-PVTZ-JKFIT

    Orbital Energies [Eh]
    ---------------------

    Doubly Occupied:

       1A    -20.597463     2A    -20.544367     3A    -11.380236
       4A    -11.294833     5A    -11.236672     6A    -11.222800
       7A    -11.219694     8A     -1.443044     9A     -1.348693
      10A     -1.076638    11A     -1.003755    12A     -0.946816
      13A     -0.828575    14A     -0.766105    15A     -0.690662
      16A     -0.663349    17A     -0.653886    18A     -0.613690
      19A     -0.589497    20A     -0.572455    21A     -0.558463
      22A     -0.550329    23A     -0.534346    24A     -0.508564
      25A     -0.502911    26A     -0.486811    27A     -0.456174
      28A     -0.443219

  @DF-RHF Final Energy:  -345.03441097434086

   => Energetics <=

    Nuclear Repulsion Energy =            320.4882532697643001
    One-Electron Energy =               -1105.5772347963384163
    Two-Electron Energy =                 440.0545705522332582
    Total Energy =                       -345.0344109743408580
  Basis Set: (AUG-CC-PVTZ AUX)
    Blend: AUG-CC-PVTZ-RI
    Molecular point group: c1

    Geometry (in Angstrom), charge = 0, multiplicity = 1:

       Center              X                  Y                   Z               Mass
    ------------   -----------------  -----------------  -----------------  -----------------
         O            0.023823211749    -0.623010132373    -0.200917539923    15.994914619570
         O            1.357304311749     1.019044967627     0.697205360077    15.994914619570
         C           -1.164138688251     0.193745967627     0.211795360077    12.000000000000
         C           -1.417150688251     1.273104967627    -0.822980639923    12.000000000000
         C           -2.291872688251    -0.808128032373     0.327667360077    12.000000000000
         C            1.207959311749    -0.048490032373     0.126093360077    12.000000000000
         C            2.277643511749    -1.009579332373    -0.318669839923    12.000000000000
         H           -0.946727688251     0.649504967627     1.181163360077     1.007825032230
         H           -2.314754688251     1.842485967627    -0.564091639923     1.007825032230
         H           -0.572688688251     1.961732967627    -0.868300639923     1.007825032230
         H           -1.564258688251     0.819615967627    -1.806651639923     1.007825032230
         H           -3.210971688251    -0.306216032373     0.642325360077     1.007825032230
         H           -2.047662688251    -1.580117032373     1.060139360077     1.007825032230
         H           -2.470657688251    -1.288679032373    -0.636779639923     1.007825032230
         H            2.224680311749    -1.194921032373    -1.367375639923     1.007825032230
         H            2.228842311749    -1.921781032373     0.241754360077     1.007825032230
         H            3.276133311749    -0.512036032373    -0.089856639923     1.007825032230

  Basis Set: AUG-CC-PVTZ
    Blend: AUG-CC-PVTZ
  Basis Set: (AUG-CC-PVTZ AUX)
    Blend: AUG-CC-PVTZ-JKFIT
	 Reference Energy          =    -345.0344109743408580 [Eh]
	 Singles Energy            =      -0.0000000000000000 [Eh]
	 Same-Spin Energy          =      -0.3420547847426558 [Eh]
	 Opposite-Spin Energy      =      -1.1340855735578081 [Eh]
	 Correlation Energy        =      -1.4761403583004640 [Eh]
	 Total Energy              =    -346.5105513326413416 [Eh]

	 ================> DF-SCS-MP2 Energies <==================
	-----------------------------------------------------------
	 SCS Same-Spin Scale       =       0.3333333333333333 [-]
	 SCS Opposite-Spin Scale   =       1.2000000000000000 [-]
	 SCS Same-Spin Energy      =      -0.1140182615808853 [Eh]
	 SCS Opposite-Spin Energy  =      -1.3609026882693698 [Eh]
	 SCS Correlation Energy    =      -1.4749209498502551 [Eh]
	 SCS Total Energy          =    -346.5093319241910876 [Eh]
	-----------------------------------------------------------

  Dipole Moment: [D]
     X:    -1.1846      Y:    -1.2593      Z:    -0.7133     Total:     1.8703

*** Psi4 exiting successfully. Buy a developer a beer!
