                               Psi4 1.3.2 release

  ==> Input File <==

--------------------------------------------------------------------------
#psi4
#
memory 32 gb

molecule  {
0 1
  O        0.0236405    -0.5811656    -0.1446202
  O        1.3565350     1.0092090     0.6922610
  C       -1.1649080     0.1839100     0.2068510
  C       -1.4179200     1.2632690    -0.8279250
  C       -2.2926420    -0.8179640     0.3227230
  C        1.2071900    -0.0583260     0.1211490
  C        2.3131480    -0.9859210    -0.3056480
  H       -0.9131614     0.6230507     1.1755807
  H       -2.3155240     1.8326500    -0.5690360
  H       -0.5734580     1.9518970    -0.8732450
  H       -1.5650280     0.8097800    -1.8115960
  H       -3.2117410    -0.3160520     0.6373810
  H       -2.0484320    -1.5899530     1.0551950
  H       -2.4714270    -1.2985150    -0.6417240
  H        2.2239110    -1.2047570    -1.3723200
  H        2.2280730    -1.9316170     0.2368100
  H        3.2753640    -0.5218720    -0.0948010
units angstrom
no_reorient  #important for SAPT in psi4, default
symmetry c1  #important for SAPT in psi4, default
}

set PROPERTIES_ORIGIN ["COM"]
properties('MP2/aug-cc-pvtz', properties = ['dipole'])
--------------------------------------------------------------------------

    Molecular point group: c1
  Charge       = 0
  Multiplicity = 1
  Basis Set: AUG-CC-PVTZ
    Blend: AUG-CC-PVTZ
  Basis Set: (AUG-CC-PVTZ AUX)
    Blend: AUG-CC-PVTZ-JKFIT

    Orbital Energies [Eh]
    ---------------------

    Doubly Occupied:

       1A    -20.596208     2A    -20.534178     3A    -11.375561
       4A    -11.293121     5A    -11.238302     6A    -11.223771
       7A    -11.219368     8A     -1.459852     9A     -1.347206
      10A     -1.079794    11A     -1.005136    12A     -0.947538
      13A     -0.846174    14A     -0.763628    15A     -0.690027
      16A     -0.668809    17A     -0.658192    18A     -0.613287
      19A     -0.584254    20A     -0.577829    21A     -0.561898
      22A     -0.549957    23A     -0.537066    24A     -0.518565
      25A     -0.500858    26A     -0.482393    27A     -0.451199
      28A     -0.439675

  @DF-RHF Final Energy:  -345.04312154489207

   => Energetics <=

    Nuclear Repulsion Energy =            321.9314151918301263
    One-Electron Energy =               -1108.4213833926698953
    Two-Electron Energy =                 441.4468466559476383
    Total Energy =                       -345.0431215448920739
  Basis Set: (AUG-CC-PVTZ AUX)
    Blend: AUG-CC-PVTZ-RI
    Molecular point group: c1

    Geometry (in Angstrom), charge = 0, multiplicity = 1:

       Center              X                  Y                   Z               Mass
    ------------   -----------------  -----------------  -----------------  -----------------
         O            0.019714195880    -0.583202183042    -0.151378880414    15.994914619570
         O            1.352608695880     1.007172416958     0.685502319586    15.994914619570
         C           -1.168834304120     0.181873416958     0.200092319586    12.000000000000
         C           -1.421846304120     1.261232416958    -0.834683680414    12.000000000000
         C           -2.296568304120    -0.820000583042     0.315964319586    12.000000000000
         C            1.203263695880    -0.060362583042     0.114390319586    12.000000000000
         C            2.309221695880    -0.987957583042    -0.312406680414    12.000000000000
         H           -0.917087704120     0.621014116958     1.168822019586     1.007825032230
         H           -2.319450304120     1.830613416958    -0.575794680414     1.007825032230
         H           -0.577384304120     1.949860416958    -0.880003680414     1.007825032230
         H           -1.568954304120     0.807743416958    -1.818354680414     1.007825032230
         H           -3.215667304120    -0.318088583042     0.630622319586     1.007825032230
         H           -2.052358304120    -1.591989583042     1.048436319586     1.007825032230
         H           -2.475353304120    -1.300551583042    -0.648482680414     1.007825032230
         H            2.219984695880    -1.206793583042    -1.379078680414     1.007825032230
         H            2.224146695880    -1.933653583042     0.230051319586     1.007825032230
         H            3.271437695880    -0.523908583042    -0.101559680414     1.007825032230

  Basis Set: AUG-CC-PVTZ
    Blend: AUG-CC-PVTZ
  Basis Set: (AUG-CC-PVTZ AUX)
    Blend: AUG-CC-PVTZ-JKFIT
	 Reference Energy          =    -345.0431215448920739 [Eh]
	 Singles Energy            =      -0.0000000000000000 [Eh]
	 Same-Spin Energy          =      -0.3409298268612200 [Eh]
	 Opposite-Spin Energy      =      -1.1305751180909276 [Eh]
	 Correlation Energy        =      -1.4715049449521476 [Eh]
	 Total Energy              =    -346.5146264898442041 [Eh]

	 ================> DF-SCS-MP2 Energies <==================
	-----------------------------------------------------------
	 SCS Same-Spin Scale       =       0.3333333333333333 [-]
	 SCS Opposite-Spin Scale   =       1.2000000000000000 [-]
	 SCS Same-Spin Energy      =      -0.1136432756204067 [Eh]
	 SCS Opposite-Spin Energy  =      -1.3566901417091131 [Eh]
	 SCS Correlation Energy    =      -1.4703334173295197 [Eh]
	 SCS Total Energy          =    -346.5134549622216014 [Eh]
	-----------------------------------------------------------

  Dipole Moment: [D]
     X:    -1.2260      Y:    -1.4485      Z:    -0.8531     Total:     2.0807

*** Psi4 exiting successfully. Buy a developer a beer!
