                               Psi4 1.3.2 release

  ==> Input File <==

--------------------------------------------------------------------------
#psi4
#
memory 32 gb

molecule  {
0 1
  O       -0.0086601    -0.6373795    -0.1249543
  O        1.3565350     1.0092090     0.6922610
  C       -1.1649080     0.1839100     0.2068510
  C       -1.4802249     1.2870483    -0.7848412
  C       -2.2926420    -0.8179640     0.3227230
  C        1.2071900    -0.0583260     0.1211490
  C        2.3131480    -0.9859210    -0.3056480
  H       -0.9474970     0.6396690     1.1762190
  H       -2.3155240     1.8326500    -0.5690360
  H       -0.5734580     1.9518970    -0.8732450
  H       -1.5650280     0.8097800    -1.8115960
  H       -3.2117410    -0.3160520     0.6373810
  H       -2.0484320    -1.5899530     1.0551950
  H       -2.4714270    -1.2985150    -0.6417240
  H        2.2239110    -1.2047570    -1.3723200
  H        2.2280730    -1.9316170     0.2368100
  H        3.2753640    -0.5218720    -0.0948010
units angstrom
no_reorient  #important for SAPT in psi4, default
symmetry c1  #important for SAPT in psi4, default
}

set PROPERTIES_ORIGIN ["COM"]
properties('MP2/aug-cc-pvtz', properties = ['dipole'])
--------------------------------------------------------------------------

    Molecular point group: c1
  Charge       = 0
  Multiplicity = 1
  Basis Set: AUG-CC-PVTZ
    Blend: AUG-CC-PVTZ
  Basis Set: (AUG-CC-PVTZ AUX)
    Blend: AUG-CC-PVTZ-JKFIT

    Orbital Energies [Eh]
    ---------------------

    Doubly Occupied:

       1A    -20.599061     2A    -20.545508     3A    -11.383651
       4A    -11.289913     5A    -11.241441     6A    -11.219808
       7A    -11.218614     8A     -1.446374     9A     -1.351879
      10A     -1.075010    11A     -1.007791    12A     -0.945076
      13A     -0.836173    14A     -0.763282    15A     -0.692888
      16A     -0.665738    17A     -0.656542    18A     -0.609523
      19A     -0.595047    20A     -0.578635    21A     -0.557565
      22A     -0.543922    23A     -0.533945    24A     -0.528389
      25A     -0.497992    26A     -0.473590    27A     -0.456063
      28A     -0.441063

  @DF-RHF Final Energy:  -345.03148546445601

   => Energetics <=

    Nuclear Repulsion Energy =            320.4450172325242647
    One-Electron Energy =               -1105.4440371477730878
    Two-Electron Energy =                 439.9675344507928116
    Total Energy =                       -345.0314854644560114
  Basis Set: (AUG-CC-PVTZ AUX)
    Blend: AUG-CC-PVTZ-RI
    Molecular point group: c1

    Geometry (in Angstrom), charge = 0, multiplicity = 1:

       Center              X                  Y                   Z               Mass
    ------------   -----------------  -----------------  -----------------  -----------------
         O            0.000139498257    -0.633566687279    -0.139866394191    15.994914619570
         O            1.365334598257     1.013021812721     0.677348905809    15.994914619570
         C           -1.156108401743     0.187722812721     0.191938905809    12.000000000000
         C           -1.471425301743     1.290861112721    -0.799753294191    12.000000000000
         C           -2.283842401743    -0.814151187279     0.307810905809    12.000000000000
         C            1.215989598257    -0.054513187279     0.106236905809    12.000000000000
         C            2.321947598257    -0.982108187279    -0.320560094191    12.000000000000
         H           -0.938697401743     0.643481812721     1.161306905809     1.007825032230
         H           -2.306724401743     1.836462812721    -0.583948094191     1.007825032230
         H           -0.564658401743     1.955709812721    -0.888157094191     1.007825032230
         H           -1.556228401743     0.813592812721    -1.826508094191     1.007825032230
         H           -3.202941401743    -0.312239187279     0.622468905809     1.007825032230
         H           -2.039632401743    -1.586140187279     1.040282905809     1.007825032230
         H           -2.462627401743    -1.294702187279    -0.656636094191     1.007825032230
         H            2.232710598257    -1.200944187279    -1.387232094191     1.007825032230
         H            2.236872598257    -1.927804187279     0.221897905809     1.007825032230
         H            3.284163598257    -0.518059187279    -0.109713094191     1.007825032230

  Basis Set: AUG-CC-PVTZ
    Blend: AUG-CC-PVTZ
  Basis Set: (AUG-CC-PVTZ AUX)
    Blend: AUG-CC-PVTZ-JKFIT
	 Reference Energy          =    -345.0314854644560114 [Eh]
	 Singles Energy            =      -0.0000000000000000 [Eh]
	 Same-Spin Energy          =      -0.3418213185807939 [Eh]
	 Opposite-Spin Energy      =      -1.1332576235302019 [Eh]
	 Correlation Energy        =      -1.4750789421109958 [Eh]
	 Total Energy              =    -346.5065644065670085 [Eh]

	 ================> DF-SCS-MP2 Energies <==================
	-----------------------------------------------------------
	 SCS Same-Spin Scale       =       0.3333333333333333 [-]
	 SCS Opposite-Spin Scale   =       1.2000000000000000 [-]
	 SCS Same-Spin Energy      =      -0.1139404395269313 [Eh]
	 SCS Opposite-Spin Energy  =      -1.3599091482362422 [Eh]
	 SCS Correlation Energy    =      -1.4738495877631734 [Eh]
	 SCS Total Energy          =    -346.5053350522192090 [Eh]
	-----------------------------------------------------------

  Dipole Moment: [D]
     X:    -0.8684      Y:    -1.2629      Z:    -0.8014     Total:     1.7295

*** Psi4 exiting successfully. Buy a developer a beer!
