                               Psi4 1.4a3.dev225

  ==> Input File <==

--------------------------------------------------------------------------
#psi4
#
memory 32 gb

molecule  {
0 1
  O       -0.1077990    -0.5624470     0.2079430
  O       -1.3021290     1.1073090    -0.7840490
  C        1.1279890     0.0542050    -0.2592580
  C        1.5159640     1.1744160     0.6880040
  C        2.1417370    -1.0702820    -0.3128090
  C       -1.2557096     0.0610977    -0.1192249
  C       -2.4469700    -0.6645530     0.4162300
  H        0.9393410     0.4580410    -1.2580840
  H        2.4644540     1.6220060     0.3756670
  H        0.7505430     1.9525630     0.6895830
  H        1.6331200     0.7804540     1.7015330
  H        3.1019190    -0.6925110    -0.6758780
  H        1.8018300    -1.8630990    -0.9832080
  H        2.2880710    -1.4948000     0.6840490
  H       -2.3821170    -0.7144520     1.5057940
  H       -2.4521220    -1.6889170     0.0368310
  H       -3.3591990    -0.1487030     0.1192220
units angstrom
no_reorient  #important for SAPT in psi4, default
symmetry c1  #important for SAPT in psi4, default
}

set PROPERTIES_ORIGIN ["COM"]
properties('MP2/aug-cc-pvtz', properties = ['dipole'])
--------------------------------------------------------------------------

    Molecular point group: c1
  Charge       = 0
  Multiplicity = 1
  Basis Set: AUG-CC-PVTZ
    Blend: AUG-CC-PVTZ
  Basis Set: (AUG-CC-PVTZ AUX)
    Blend: AUG-CC-PVTZ-JKFIT

    Orbital Energies [Eh]
    ---------------------

    Doubly Occupied:

       1A    -20.599774     2A    -20.538185     3A    -11.382741
       4A    -11.292473     5A    -11.240784     6A    -11.222719
       7A    -11.218010     8A     -1.448664     9A     -1.339654
      10A     -1.077477    11A     -1.009419    12A     -0.945972
      13A     -0.839920    14A     -0.765592    15A     -0.689733
      16A     -0.665261    17A     -0.654304    18A     -0.611006
      19A     -0.584882    20A     -0.579623    21A     -0.560849
      22A     -0.549025    23A     -0.534564    24A     -0.518905
      25A     -0.498709    26A     -0.482583    27A     -0.450283
      28A     -0.441148

  @DF-RHF Final Energy:  -345.03980638999849

   => Energetics <=

    Nuclear Repulsion Energy =            320.8561342455563477
    One-Electron Energy =               -1106.3073628193785680
    Two-Electron Energy =                 440.4114221838236745
    Total Energy =                       -345.0398063899984891
  Basis Set: (AUG-CC-PVTZ AUX)
    Blend: AUG-CC-PVTZ-RI
    Molecular point group: c1

    Geometry (in Angstrom), charge = 0, multiplicity = 1:

       Center              X                  Y                   Z               Mass
    ------------   -----------------  -----------------  -----------------  -----------------
         O           -0.061435201956    -0.577830901830     0.227996009344    15.994914619570
         O           -1.255765201956     1.091925098170    -0.763995990656    15.994914619570
         C            1.174352798044     0.038821098170    -0.239204990656    12.000000000000
         C            1.562327798044     1.159032098170     0.708057009344    12.000000000000
         C            2.188100798044    -1.085665901830    -0.292755990656    12.000000000000
         C           -1.209345801956     0.045713798170    -0.099171890656    12.000000000000
         C           -2.400606201956    -0.679936901830     0.436283009344    12.000000000000
         H            0.985704798044     0.442657098170    -1.238030990656     1.007825032230
         H            2.510817798044     1.606622098170     0.395720009344     1.007825032230
         H            0.796906798044     1.937179098170     0.709636009344     1.007825032230
         H            1.679483798044     0.765070098170     1.721586009344     1.007825032230
         H            3.148282798044    -0.707894901830    -0.655824990656     1.007825032230
         H            1.848193798044    -1.878482901830    -0.963154990656     1.007825032230
         H            2.334434798044    -1.510183901830     0.704102009344     1.007825032230
         H           -2.335753201956    -0.729835901830     1.525847009344     1.007825032230
         H           -2.405758201956    -1.704300901830     0.056884009344     1.007825032230
         H           -3.312835201956    -0.164086901830     0.139275009344     1.007825032230

  Basis Set: AUG-CC-PVTZ
    Blend: AUG-CC-PVTZ
  Basis Set: (AUG-CC-PVTZ AUX)
    Blend: AUG-CC-PVTZ-JKFIT
	 Reference Energy          =    -345.0398063899984891 [Eh]
	 Singles Energy            =      -0.0000000000000000 [Eh]
	 Same-Spin Energy          =      -0.3418148831916953 [Eh]
	 Opposite-Spin Energy      =      -1.1329282586116043 [Eh]
	 Correlation Energy        =      -1.4747431418032995 [Eh]
	 Total Energy              =    -346.5145495318017765 [Eh]

	 ================> DF-SCS-MP2 Energies <==================
	-----------------------------------------------------------
	 SCS Same-Spin Scale       =       0.3333333333333333 [-]
	 SCS Opposite-Spin Scale   =       1.2000000000000000 [-]
	 SCS Same-Spin Energy      =      -0.1139382943972318 [Eh]
	 SCS Opposite-Spin Energy  =      -1.3595139103339251 [Eh]
	 SCS Correlation Energy    =      -1.4734522047311569 [Eh]
	 SCS Total Energy          =    -346.5132585947296207 [Eh]
	-----------------------------------------------------------

  Dipole Moment: [D]
     X:     0.9197      Y:    -1.4911      Z:     0.9471     Total:     1.9915

*** Psi4 exiting successfully. Buy a developer a beer!
