                               Psi4 1.3.2 release

  ==> Input File <==

--------------------------------------------------------------------------
#psi4
#
memory 32 gb

molecule  {
0 1
  O       -0.0098554    -0.5761423    -0.1786085
  O        1.3565350     1.0092090     0.6922610
  C       -1.1649080     0.1839100     0.2068510
  C       -1.4179200     1.2632690    -0.8279250
  C       -2.2926420    -0.8179640     0.3227230
  C        1.2071900    -0.0583260     0.1211490
  C        2.3307823    -0.9687474    -0.2964685
  H       -0.9474970     0.6396690     1.1762190
  H       -2.3155240     1.8326500    -0.5690360
  H       -0.5734580     1.9518970    -0.8732450
  H       -1.5650280     0.8097800    -1.8115960
  H       -3.2117410    -0.3160520     0.6373810
  H       -2.0484320    -1.5899530     1.0551950
  H       -2.4714270    -1.2985150    -0.6417240
  H        2.2239110    -1.2047570    -1.3723200
  H        2.2280730    -1.9316170     0.2368100
  H        3.2753640    -0.5218720    -0.0948010
units angstrom
no_reorient  #important for SAPT in psi4, default
symmetry c1  #important for SAPT in psi4, default
}

set PROPERTIES_ORIGIN ["COM"]
properties('MP2/aug-cc-pvtz', properties = ['dipole'])
--------------------------------------------------------------------------

    Molecular point group: c1
  Charge       = 0
  Multiplicity = 1
  Basis Set: AUG-CC-PVTZ
    Blend: AUG-CC-PVTZ
  Basis Set: (AUG-CC-PVTZ AUX)
    Blend: AUG-CC-PVTZ-JKFIT

    Orbital Energies [Eh]
    ---------------------

    Doubly Occupied:

       1A    -20.596395     2A    -20.540832     3A    -11.381844
       4A    -11.288685     5A    -11.242370     6A    -11.220689
       7A    -11.215844     8A     -1.452389     9A     -1.351490
      10A     -1.075295    11A     -1.007321    12A     -0.945178
      13A     -0.841949    14A     -0.764872    15A     -0.692781
      16A     -0.666771    17A     -0.655060    18A     -0.609869
      19A     -0.586053    20A     -0.582989    21A     -0.560698
      22A     -0.547409    23A     -0.535529    24A     -0.520198
      25A     -0.500502    26A     -0.480588    27A     -0.451007
      28A     -0.441590

  @DF-RHF Final Energy:  -345.04187150395768

   => Energetics <=

    Nuclear Repulsion Energy =            321.5212628201255711
    One-Electron Energy =               -1107.6138719020250392
    Two-Electron Energy =                 441.0507375779417885
    Total Energy =                       -345.0418715039576796
  Basis Set: (AUG-CC-PVTZ AUX)
    Blend: AUG-CC-PVTZ-RI
    Molecular point group: c1

    Geometry (in Angstrom), charge = 0, multiplicity = 1:

       Center              X                  Y                   Z               Mass
    ------------   -----------------  -----------------  -----------------  -----------------
         O           -0.010266827193    -0.581149241598    -0.181126455363    15.994914619570
         O            1.356123572807     1.004202058402     0.689743044637    15.994914619570
         C           -1.165319427193     0.178903058402     0.204333044637    12.000000000000
         C           -1.418331427193     1.258262058402    -0.830442955363    12.000000000000
         C           -2.293053427193    -0.822970941598     0.320205044637    12.000000000000
         C            1.206778572807    -0.063332941598     0.118631044637    12.000000000000
         C            2.330370872807    -0.973754341598    -0.298986455363    12.000000000000
         H           -0.947908427193     0.634662058402     1.173701044637     1.007825032230
         H           -2.315935427193     1.827643058402    -0.571553955363     1.007825032230
         H           -0.573869427193     1.946890058402    -0.875762955363     1.007825032230
         H           -1.565439427193     0.804773058402    -1.814113955363     1.007825032230
         H           -3.212152427193    -0.321058941598     0.634863044637     1.007825032230
         H           -2.048843427193    -1.594959941598     1.052677044637     1.007825032230
         H           -2.471838427193    -1.303521941598    -0.644241955363     1.007825032230
         H            2.223499572807    -1.209763941598    -1.374837955363     1.007825032230
         H            2.227661572807    -1.936623941598     0.234292044637     1.007825032230
         H            3.274952572807    -0.526878941598    -0.097318955363     1.007825032230

  Basis Set: AUG-CC-PVTZ
    Blend: AUG-CC-PVTZ
  Basis Set: (AUG-CC-PVTZ AUX)
    Blend: AUG-CC-PVTZ-JKFIT
	 Reference Energy          =    -345.0418715039576796 [Eh]
	 Singles Energy            =      -0.0000000000000000 [Eh]
	 Same-Spin Energy          =      -0.3412699666846403 [Eh]
	 Opposite-Spin Energy      =      -1.1315007283662744 [Eh]
	 Correlation Energy        =      -1.4727706950509147 [Eh]
	 Total Energy              =    -346.5146421990086196 [Eh]

	 ================> DF-SCS-MP2 Energies <==================
	-----------------------------------------------------------
	 SCS Same-Spin Scale       =       0.3333333333333333 [-]
	 SCS Opposite-Spin Scale   =       1.2000000000000000 [-]
	 SCS Same-Spin Energy      =      -0.1137566555615468 [Eh]
	 SCS Opposite-Spin Energy  =      -1.3578008740395291 [Eh]
	 SCS Correlation Energy    =      -1.4715575296010759 [Eh]
	 SCS Total Energy          =    -346.5134290335587366 [Eh]
	-----------------------------------------------------------

  Dipole Moment: [D]
     X:    -0.9075      Y:    -1.4322      Z:    -0.7691     Total:     1.8618

*** Psi4 exiting successfully. Buy a developer a beer!
