                               Psi4 1.3.2 release

  ==> Input File <==

--------------------------------------------------------------------------
#psi4
#
memory 32 gb

molecule  {
0 1
  O        0.0007480    -0.5952090    -0.1877880
  O        1.3565350     1.0092090     0.6922610
  C       -1.0848791     0.1304191     0.1797568
  C       -1.4179200     1.2632690    -0.8279250
  C       -2.2926420    -0.8179640     0.3227230
  C        1.2071900    -0.0583260     0.1211490
  C        2.3131480    -0.9859210    -0.3056480
  H       -0.9474970     0.6396690     1.1762190
  H       -2.3155240     1.8326500    -0.5690360
  H       -0.5734580     1.9518970    -0.8732450
  H       -1.5650280     0.8097800    -1.8115960
  H       -3.2117410    -0.3160520     0.6373810
  H       -2.0484320    -1.5899530     1.0551950
  H       -2.4714270    -1.2985150    -0.6417240
  H        2.2239110    -1.2047570    -1.3723200
  H        2.2280730    -1.9316170     0.2368100
  H        3.2753640    -0.5218720    -0.0948010
units angstrom
no_reorient  #important for SAPT in psi4, default
symmetry c1  #important for SAPT in psi4, default
}

set PROPERTIES_ORIGIN ["COM"]
properties('MP2/aug-cc-pvtz', properties = ['dipole'])
--------------------------------------------------------------------------

    Molecular point group: c1
  Charge       = 0
  Multiplicity = 1
  Basis Set: AUG-CC-PVTZ
    Blend: AUG-CC-PVTZ
  Basis Set: (AUG-CC-PVTZ AUX)
    Blend: AUG-CC-PVTZ-JKFIT

    Orbital Energies [Eh]
    ---------------------

    Doubly Occupied:

       1A    -20.609017     2A    -20.549542     3A    -11.389007
       4A    -11.288494     5A    -11.245180     6A    -11.218211
       7A    -11.213683     8A     -1.477078     9A     -1.366573
      10A     -1.070594    11A     -1.007620    12A     -0.937513
      13A     -0.856687    14A     -0.767029    15A     -0.700036
      16A     -0.678419    17A     -0.663183    18A     -0.605591
      19A     -0.589920    20A     -0.578982    21A     -0.565227
      22A     -0.545653    23A     -0.541592    24A     -0.527488
      25A     -0.498016    26A     -0.465263    27A     -0.453877
      28A     -0.436410

  @DF-RHF Final Energy:  -345.03424066096687

   => Energetics <=

    Nuclear Repulsion Energy =            322.3902696850803409
    One-Electron Energy =               -1109.1572465186882255
    Two-Electron Energy =                 441.7327361726410686
    Total Energy =                       -345.0342406609668728
  Basis Set: (AUG-CC-PVTZ AUX)
    Blend: AUG-CC-PVTZ-RI
    Molecular point group: c1

    Geometry (in Angstrom), charge = 0, multiplicity = 1:

       Center              X                  Y                   Z               Mass
    ------------   -----------------  -----------------  -----------------  -----------------
         O           -0.008660712943    -0.588920106077    -0.184602803886    15.994914619570
         O            1.347126287057     1.015497893923     0.695446196114    15.994914619570
         C           -1.094287812943     0.136707993923     0.182941996114    12.000000000000
         C           -1.427328712943     1.269557893923    -0.824739803886    12.000000000000
         C           -2.302050712943    -0.811675106077     0.325908196114    12.000000000000
         C            1.197781287057    -0.052037106077     0.124334196114    12.000000000000
         C            2.303739287057    -0.979632106077    -0.302462803886    12.000000000000
         H           -0.956905712943     0.645957893923     1.179404196114     1.007825032230
         H           -2.324932712943     1.838938893923    -0.565850803886     1.007825032230
         H           -0.582866712943     1.958185893923    -0.870059803886     1.007825032230
         H           -1.574436712943     0.816068893923    -1.808410803886     1.007825032230
         H           -3.221149712943    -0.309763106077     0.640566196114     1.007825032230
         H           -2.057840712943    -1.583664106077     1.058380196114     1.007825032230
         H           -2.480835712943    -1.292226106077    -0.638538803886     1.007825032230
         H            2.214502287057    -1.198468106077    -1.369134803886     1.007825032230
         H            2.218664287057    -1.925328106077     0.239995196114     1.007825032230
         H            3.265955287057    -0.515583106077    -0.091615803886     1.007825032230

  Basis Set: AUG-CC-PVTZ
    Blend: AUG-CC-PVTZ
  Basis Set: (AUG-CC-PVTZ AUX)
    Blend: AUG-CC-PVTZ-JKFIT
	 Reference Energy          =    -345.0342406609668728 [Eh]
	 Singles Energy            =      -0.0000000000000000 [Eh]
	 Same-Spin Energy          =      -0.3414396852287392 [Eh]
	 Opposite-Spin Energy      =      -1.1316123665914182 [Eh]
	 Correlation Energy        =      -1.4730520518201575 [Eh]
	 Total Energy              =    -346.5072927127870344 [Eh]

	 ================> DF-SCS-MP2 Energies <==================
	-----------------------------------------------------------
	 SCS Same-Spin Scale       =       0.3333333333333333 [-]
	 SCS Opposite-Spin Scale   =       1.2000000000000000 [-]
	 SCS Same-Spin Energy      =      -0.1138132284095797 [Eh]
	 SCS Opposite-Spin Energy  =      -1.3579348399097018 [Eh]
	 SCS Correlation Energy    =      -1.4717480683192816 [Eh]
	 SCS Total Energy          =    -346.5059887292861731 [Eh]
	-----------------------------------------------------------

  Dipole Moment: [D]
     X:    -0.5573      Y:    -1.4917      Z:    -0.7635     Total:     1.7660

*** Psi4 exiting successfully. Buy a developer a beer!
