                               Psi4 1.3.2 release

  ==> Input File <==

--------------------------------------------------------------------------
#psi4
#
memory 32 gb

molecule  {
0 1
  O       -0.0051982    -0.5985722    -0.1985069
  O        1.3565350     1.0092090     0.6922610
  C       -1.1649080     0.1839100     0.2068510
  C       -1.4179200     1.2632690    -0.8279250
  C       -2.2926420    -0.8179640     0.3227230
  C        1.2071900    -0.0583260     0.1211490
  C        2.3131480    -0.9859210    -0.3056480
  H       -0.9561239     0.6437376     1.1761940
  H       -2.3155240     1.8326500    -0.5690360
  H       -0.5734580     1.9518970    -0.8732450
  H       -1.5650280     0.8097800    -1.8115960
  H       -3.2117410    -0.3160520     0.6373810
  H       -2.0484320    -1.5899530     1.0551950
  H       -2.4714270    -1.2985150    -0.6417240
  H        2.2239110    -1.2047570    -1.3723200
  H        2.2280730    -1.9316170     0.2368100
  H        3.2753640    -0.5218720    -0.0948010
units angstrom
no_reorient  #important for SAPT in psi4, default
symmetry c1  #important for SAPT in psi4, default
}

set PROPERTIES_ORIGIN ["COM"]
properties('MP2/aug-cc-pvtz', properties = ['dipole'])
--------------------------------------------------------------------------

    Molecular point group: c1
  Charge       = 0
  Multiplicity = 1
  Basis Set: AUG-CC-PVTZ
    Blend: AUG-CC-PVTZ
  Basis Set: (AUG-CC-PVTZ AUX)
    Blend: AUG-CC-PVTZ-JKFIT

    Orbital Energies [Eh]
    ---------------------

    Doubly Occupied:

       1A    -20.596896     2A    -20.543923     3A    -11.382538
       4A    -11.290066     5A    -11.240703     6A    -11.220754
       7A    -11.216541     8A     -1.446471     9A     -1.351095
      10A     -1.074651    11A     -1.006311    12A     -0.945211
      13A     -0.834835    14A     -0.765614    15A     -0.692632
      16A     -0.664407    17A     -0.653301    18A     -0.610534
      19A     -0.586032    20A     -0.578458    21A     -0.561946
      22A     -0.547948    23A     -0.533599    24A     -0.518210
      25A     -0.501943    26A     -0.482615    27A     -0.452951
      28A     -0.442996

  @DF-RHF Final Energy:  -345.04102823890105

   => Energetics <=

    Nuclear Repulsion Energy =            320.9717807913393131
    One-Electron Energy =               -1106.5392560552340910
    Two-Electron Energy =                 440.5264470249936721
    Total Energy =                       -345.0410282389010490
  Basis Set: (AUG-CC-PVTZ AUX)
    Blend: AUG-CC-PVTZ-RI
    Molecular point group: c1

    Geometry (in Angstrom), charge = 0, multiplicity = 1:

       Center              X                  Y                   Z               Mass
    ------------   -----------------  -----------------  -----------------  -----------------
         O           -0.004181026890    -0.598085287878    -0.196827143341    15.994914619570
         O            1.357552173110     1.009695912122     0.693940756659    15.994914619570
         C           -1.163890826890     0.184396912122     0.208530756659    12.000000000000
         C           -1.416902826890     1.263755912122    -0.826245243341    12.000000000000
         C           -2.291624826890    -0.817477087878     0.324402756659    12.000000000000
         C            1.208207173110    -0.057839087878     0.122828756659    12.000000000000
         C            2.314165173110    -0.985434087878    -0.303968243341    12.000000000000
         H           -0.955106726890     0.644224512122     1.177873756659     1.007825032230
         H           -2.314506826890     1.833136912122    -0.567356243341     1.007825032230
         H           -0.572440826890     1.952383912122    -0.871565243341     1.007825032230
         H           -1.564010826890     0.810266912122    -1.809916243341     1.007825032230
         H           -3.210723826890    -0.315565087878     0.639060756659     1.007825032230
         H           -2.047414826890    -1.589466087878     1.056874756659     1.007825032230
         H           -2.470409826890    -1.298028087878    -0.640044243341     1.007825032230
         H            2.224928173110    -1.204270087878    -1.370640243341     1.007825032230
         H            2.229090173110    -1.931130087878     0.238489756659     1.007825032230
         H            3.276381173110    -0.521385087878    -0.093121243341     1.007825032230

  Basis Set: AUG-CC-PVTZ
    Blend: AUG-CC-PVTZ
  Basis Set: (AUG-CC-PVTZ AUX)
    Blend: AUG-CC-PVTZ-JKFIT
	 Reference Energy          =    -345.0410282389010490 [Eh]
	 Singles Energy            =      -0.0000000000000000 [Eh]
	 Same-Spin Energy          =      -0.3416156506819863 [Eh]
	 Opposite-Spin Energy      =      -1.1326597200495814 [Eh]
	 Correlation Energy        =      -1.4742753707315677 [Eh]
	 Total Energy              =    -346.5153036096326105 [Eh]

	 ================> DF-SCS-MP2 Energies <==================
	-----------------------------------------------------------
	 SCS Same-Spin Scale       =       0.3333333333333333 [-]
	 SCS Opposite-Spin Scale   =       1.2000000000000000 [-]
	 SCS Same-Spin Energy      =      -0.1138718835606621 [Eh]
	 SCS Opposite-Spin Energy  =      -1.3591916640594977 [Eh]
	 SCS Correlation Energy    =      -1.4730635476201597 [Eh]
	 SCS Total Energy          =    -346.5140917865211918 [Eh]
	-----------------------------------------------------------

  Dipole Moment: [D]
     X:    -0.9384      Y:    -1.3554      Z:    -0.7242     Total:     1.8006

*** Psi4 exiting successfully. Buy a developer a beer!
