                               Psi4 1.3.2 release

  ==> Input File <==

--------------------------------------------------------------------------
#psi4
#
memory 32 gb

molecule  {
0 1
  O        0.0007480    -0.5952090    -0.1877880
  O        1.3565350     1.0092090     0.6922610
  C       -1.1724823     0.1749647     0.2019342
  C       -1.4179200     1.2632690    -0.8279250
  C       -2.2926420    -0.8179640     0.3227230
  C        1.2125461    -0.0676756     0.1162543
  C        2.3131480    -0.9859210    -0.3056480
  H       -0.9474970     0.6396690     1.1762190
  H       -2.3155240     1.8326500    -0.5690360
  H       -0.5734580     1.9518970    -0.8732450
  H       -1.5650280     0.8097800    -1.8115960
  H       -3.2117410    -0.3160520     0.6373810
  H       -2.0484320    -1.5899530     1.0551950
  H       -2.4714270    -1.2985150    -0.6417240
  H        2.2239110    -1.2047570    -1.3723200
  H        2.2280730    -1.9316170     0.2368100
  H        3.2753640    -0.5218720    -0.0948010
units angstrom
no_reorient  #important for SAPT in psi4, default
symmetry c1  #important for SAPT in psi4, default
}

set PROPERTIES_ORIGIN ["COM"]
properties('MP2/aug-cc-pvtz', properties = ['dipole'])
--------------------------------------------------------------------------

    Molecular point group: c1
  Charge       = 0
  Multiplicity = 1
  Basis Set: AUG-CC-PVTZ
    Blend: AUG-CC-PVTZ
  Basis Set: (AUG-CC-PVTZ AUX)
    Blend: AUG-CC-PVTZ-JKFIT

    Orbital Energies [Eh]
    ---------------------

    Doubly Occupied:

       1A    -20.596523     2A    -20.540493     3A    -11.382172
       4A    -11.291157     5A    -11.240954     6A    -11.221304
       7A    -11.216972     8A     -1.446566     9A     -1.344771
      10A     -1.077516    11A     -1.009615    12A     -0.946438
      13A     -0.837591    14A     -0.763021    15A     -0.691204
      16A     -0.664383    17A     -0.654140    18A     -0.611936
      19A     -0.585731    20A     -0.579826    21A     -0.561105
      22A     -0.548486    23A     -0.534708    24A     -0.518369
      25A     -0.500956    26A     -0.480075    27A     -0.451127
      28A     -0.442190

  @DF-RHF Final Energy:  -345.04055003223385

   => Energetics <=

    Nuclear Repulsion Energy =            321.0628413362153992
    One-Electron Energy =               -1106.7281263500619843
    Two-Electron Energy =                 440.6247349816127894
    Total Energy =                       -345.0405500322338526
  Basis Set: (AUG-CC-PVTZ AUX)
    Blend: AUG-CC-PVTZ-RI
    Molecular point group: c1

    Geometry (in Angstrom), charge = 0, multiplicity = 1:

       Center              X                  Y                   Z               Mass
    ------------   -----------------  -----------------  -----------------  -----------------
         O            0.001008962476    -0.593058050103    -0.186634706523    15.994914619570
         O            1.356795962476     1.011359949897     0.693414293477    15.994914619570
         C           -1.172221337524     0.177115649897     0.203087493477    12.000000000000
         C           -1.417659037524     1.265419949897    -0.826771706523    12.000000000000
         C           -2.292381037524    -0.815813050103     0.323876293477    12.000000000000
         C            1.212807062476    -0.065524650103     0.117407593477    12.000000000000
         C            2.313408962476    -0.983770050103    -0.304494706523    12.000000000000
         H           -0.947236037524     0.641819949897     1.177372293477     1.007825032230
         H           -2.315263037524     1.834800949897    -0.567882706523     1.007825032230
         H           -0.573197037524     1.954047949897    -0.872091706523     1.007825032230
         H           -1.564767037524     0.811930949897    -1.810442706523     1.007825032230
         H           -3.211480037524    -0.313901050103     0.638534293477     1.007825032230
         H           -2.048171037524    -1.587802050103     1.056348293477     1.007825032230
         H           -2.471166037524    -1.296364050103    -0.640570706523     1.007825032230
         H            2.224171962476    -1.202606050103    -1.371166706523     1.007825032230
         H            2.228333962476    -1.929466050103     0.237963293477     1.007825032230
         H            3.275624962476    -0.519721050103    -0.093647706523     1.007825032230

  Basis Set: AUG-CC-PVTZ
    Blend: AUG-CC-PVTZ
  Basis Set: (AUG-CC-PVTZ AUX)
    Blend: AUG-CC-PVTZ-JKFIT
	 Reference Energy          =    -345.0405500322338526 [Eh]
	 Singles Energy            =      -0.0000000000000000 [Eh]
	 Same-Spin Energy          =      -0.3417740968539048 [Eh]
	 Opposite-Spin Energy      =      -1.1326814350439540 [Eh]
	 Correlation Energy        =      -1.4744555318978589 [Eh]
	 Total Energy              =    -346.5150055641316840 [Eh]

	 ================> DF-SCS-MP2 Energies <==================
	-----------------------------------------------------------
	 SCS Same-Spin Scale       =       0.3333333333333333 [-]
	 SCS Opposite-Spin Scale   =       1.2000000000000000 [-]
	 SCS Same-Spin Energy      =      -0.1139246989513016 [Eh]
	 SCS Opposite-Spin Energy  =      -1.3592177220527448 [Eh]
	 SCS Correlation Energy    =      -1.4731424210040465 [Eh]
	 SCS Total Energy          =    -346.5136924532379226 [Eh]
	-----------------------------------------------------------

  Dipole Moment: [D]
     X:    -0.9924      Y:    -1.4421      Z:    -0.7789     Total:     1.9161

*** Psi4 exiting successfully. Buy a developer a beer!
