                               Psi4 1.3.2 release

  ==> Input File <==

--------------------------------------------------------------------------
#psi4
#
memory 32 gb

molecule  {
0 1
  O        0.0007480    -0.5952090    -0.1877880
  O        1.3565350     1.0092090     0.6922610
  C       -1.0048502     0.0769281     0.1526626
  C       -1.4179200     1.2632690    -0.8279250
  C       -2.2926420    -0.8179640     0.3227230
  C        1.2071900    -0.0583260     0.1211490
  C        2.3131480    -0.9859210    -0.3056480
  H       -0.9474970     0.6396690     1.1762190
  H       -2.3155240     1.8326500    -0.5690360
  H       -0.5734580     1.9518970    -0.8732450
  H       -1.5650280     0.8097800    -1.8115960
  H       -3.2117410    -0.3160520     0.6373810
  H       -2.0484320    -1.5899530     1.0551950
  H       -2.4714270    -1.2985150    -0.6417240
  H        2.2239110    -1.2047570    -1.3723200
  H        2.2280730    -1.9316170     0.2368100
  H        3.2753640    -0.5218720    -0.0948010
units angstrom
no_reorient  #important for SAPT in psi4, default
symmetry c1  #important for SAPT in psi4, default
}

set PROPERTIES_ORIGIN ["COM"]
properties('MP2/aug-cc-pvtz', properties = ['dipole'])
--------------------------------------------------------------------------

    Molecular point group: c1
  Charge       = 0
  Multiplicity = 1
  Basis Set: AUG-CC-PVTZ
    Blend: AUG-CC-PVTZ
  Basis Set: (AUG-CC-PVTZ AUX)
    Blend: AUG-CC-PVTZ-JKFIT

    Orbital Energies [Eh]
    ---------------------

    Doubly Occupied:

       1A    -20.620105     2A    -20.557779     3A    -11.397056
       4A    -11.289937     5A    -11.250245     6A    -11.215566
       7A    -11.210262     8A     -1.516785     9A     -1.381770
      10A     -1.071533    11A     -1.005470    12A     -0.930392
      13A     -0.880956    14A     -0.771144    15A     -0.708936
      16A     -0.696149    17A     -0.670839    18A     -0.604348
      19A     -0.598375    20A     -0.580220    21A     -0.567856
      22A     -0.556058    23A     -0.535545    24A     -0.528525
      25A     -0.501472    26A     -0.463507    27A     -0.439734
      28A     -0.414143

  @DF-RHF Final Energy:  -345.00207151799049

   => Energetics <=

    Nuclear Repulsion Energy =            323.7621161987000278
    One-Electron Energy =               -1111.5989640904990665
    Two-Electron Energy =                 442.8347763738085519
    Total Energy =                       -345.0020715179904869
  Basis Set: (AUG-CC-PVTZ AUX)
    Blend: AUG-CC-PVTZ-RI
    Molecular point group: c1

    Geometry (in Angstrom), charge = 0, multiplicity = 1:

       Center              X                  Y                   Z               Mass
    ------------   -----------------  -----------------  -----------------  -----------------
         O           -0.018069597720    -0.582631244734    -0.181417377047    15.994914619570
         O            1.337717402280     1.021786755266     0.698631622953    15.994914619570
         C           -1.023667797720     0.089505855266     0.159033222953    12.000000000000
         C           -1.436737597720     1.275846755266    -0.821554377047    12.000000000000
         C           -2.311459597720    -0.805386244734     0.329093622953    12.000000000000
         C            1.188372402280    -0.045748244734     0.127519622953    12.000000000000
         C            2.294330402280    -0.973343244734    -0.299277377047    12.000000000000
         H           -0.966314597720     0.652246755266     1.182589622953     1.007825032230
         H           -2.334341597720     1.845227755266    -0.562665377047     1.007825032230
         H           -0.592275597720     1.964474755266    -0.866874377047     1.007825032230
         H           -1.583845597720     0.822357755266    -1.805225377047     1.007825032230
         H           -3.230558597720    -0.303474244734     0.643751622953     1.007825032230
         H           -2.067249597720    -1.577375244734     1.061565622953     1.007825032230
         H           -2.490244597720    -1.285937244734    -0.635353377047     1.007825032230
         H            2.205093402280    -1.192179244734    -1.365949377047     1.007825032230
         H            2.209255402280    -1.919039244734     0.243180622953     1.007825032230
         H            3.256546402280    -0.509294244734    -0.088430377047     1.007825032230

  Basis Set: AUG-CC-PVTZ
    Blend: AUG-CC-PVTZ
  Basis Set: (AUG-CC-PVTZ AUX)
    Blend: AUG-CC-PVTZ-JKFIT
	 Reference Energy          =    -345.0020715179904869 [Eh]
	 Singles Energy            =      -0.0000000000000000 [Eh]
	 Same-Spin Energy          =      -0.3422809166575457 [Eh]
	 Opposite-Spin Energy      =      -1.1324338030222201 [Eh]
	 Correlation Energy        =      -1.4747147196797659 [Eh]
	 Total Energy              =    -346.4767862376702396 [Eh]

	 ================> DF-SCS-MP2 Energies <==================
	-----------------------------------------------------------
	 SCS Same-Spin Scale       =       0.3333333333333333 [-]
	 SCS Opposite-Spin Scale   =       1.2000000000000000 [-]
	 SCS Same-Spin Energy      =      -0.1140936388858486 [Eh]
	 SCS Opposite-Spin Energy  =      -1.3589205636266641 [Eh]
	 SCS Correlation Energy    =      -1.4730142025125128 [Eh]
	 SCS Total Energy          =    -346.4750857205029888 [Eh]
	-----------------------------------------------------------

  Dipole Moment: [D]
     X:    -0.0839      Y:    -1.6282      Z:    -0.7888     Total:     1.8112

*** Psi4 exiting successfully. Buy a developer a beer!
