                               Psi4 1.3.2 release

  ==> Input File <==

--------------------------------------------------------------------------
#psi4
#
memory 32 gb

molecule  {
0 1
  O        0.0007480    -0.5952090    -0.1877880
  O        1.3565350     1.0092090     0.6922610
  C       -1.1649080     0.1839100     0.2068510
  C       -1.4179200     1.2632690    -0.8279250
  C       -2.2926420    -0.8179640     0.3227230
  C        1.1182303    -0.0979143     0.0983688
  C        2.3131480    -0.9859210    -0.3056480
  H       -0.9474970     0.6396690     1.1762190
  H       -2.3155240     1.8326500    -0.5690360
  H       -0.5734580     1.9518970    -0.8732450
  H       -1.5650280     0.8097800    -1.8115960
  H       -3.2117410    -0.3160520     0.6373810
  H       -2.0484320    -1.5899530     1.0551950
  H       -2.4714270    -1.2985150    -0.6417240
  H        2.2239110    -1.2047570    -1.3723200
  H        2.2280730    -1.9316170     0.2368100
  H        3.2753640    -0.5218720    -0.0948010
units angstrom
no_reorient  #important for SAPT in psi4, default
symmetry c1  #important for SAPT in psi4, default
}

set PROPERTIES_ORIGIN ["COM"]
properties('MP2/aug-cc-pvtz', properties = ['dipole'])
--------------------------------------------------------------------------

    Molecular point group: c1
  Charge       = 0
  Multiplicity = 1
  Basis Set: AUG-CC-PVTZ
    Blend: AUG-CC-PVTZ
  Basis Set: (AUG-CC-PVTZ AUX)
    Blend: AUG-CC-PVTZ-JKFIT

    Orbital Energies [Eh]
    ---------------------

    Doubly Occupied:

       1A    -20.621035     2A    -20.521797     3A    -11.379869
       4A    -11.302432     5A    -11.236036     6A    -11.229181
       7A    -11.223826     8A     -1.492682     9A     -1.315977
      10A     -1.091174    11A     -0.994755    12A     -0.953686
      13A     -0.861357    14A     -0.780617    15A     -0.685356
      16A     -0.677807    17A     -0.665310    18A     -0.613573
      19A     -0.580903    20A     -0.575618    21A     -0.559282
      22A     -0.555631    23A     -0.541361    24A     -0.519420
      25A     -0.500575    26A     -0.491121    27A     -0.441680
      28A     -0.426118

  @DF-RHF Final Energy:  -345.02872916866170

   => Energetics <=

    Nuclear Repulsion Energy =            322.0147784301231013
    One-Electron Energy =               -1108.4106607693554452
    Two-Electron Energy =                 441.3671531705706457
    Total Energy =                       -345.0287291686616982
  Basis Set: (AUG-CC-PVTZ AUX)
    Blend: AUG-CC-PVTZ-RI
    Molecular point group: c1

    Geometry (in Angstrom), charge = 0, multiplicity = 1:

       Center              X                  Y                   Z               Mass
    ------------   -----------------  -----------------  -----------------  -----------------
         O            0.011207038158    -0.590554615130    -0.185109994775    15.994914619570
         O            1.366994038158     1.013863384870     0.694939005225    15.994914619570
         C           -1.154448961842     0.188564384870     0.209529005225    12.000000000000
         C           -1.407460961842     1.267923384870    -0.825246994775    12.000000000000
         C           -2.282182961842    -0.813309615130     0.325401005225    12.000000000000
         C            1.128689338158    -0.093259915130     0.101046805225    12.000000000000
         C            2.323607038158    -0.981266615130    -0.302969994775    12.000000000000
         H           -0.937037961842     0.644323384870     1.178897005225     1.007825032230
         H           -2.305064961842     1.837304384870    -0.566357994775     1.007825032230
         H           -0.562998961842     1.956551384870    -0.870566994775     1.007825032230
         H           -1.554568961842     0.814434384870    -1.808917994775     1.007825032230
         H           -3.201281961842    -0.311397615130     0.640059005225     1.007825032230
         H           -2.037972961842    -1.585298615130     1.057873005225     1.007825032230
         H           -2.460967961842    -1.293860615130    -0.639045994775     1.007825032230
         H            2.234370038158    -1.200102615130    -1.369641994775     1.007825032230
         H            2.238532038158    -1.926962615130     0.239488005225     1.007825032230
         H            3.285823038158    -0.517217615130    -0.092122994775     1.007825032230

  Basis Set: AUG-CC-PVTZ
    Blend: AUG-CC-PVTZ
  Basis Set: (AUG-CC-PVTZ AUX)
    Blend: AUG-CC-PVTZ-JKFIT
	 Reference Energy          =    -345.0287291686616982 [Eh]
	 Singles Energy            =      -0.0000000000000000 [Eh]
	 Same-Spin Energy          =      -0.3416960407107775 [Eh]
	 Opposite-Spin Energy      =      -1.1323720908349946 [Eh]
	 Correlation Energy        =      -1.4740681315457720 [Eh]
	 Total Energy              =    -346.5027973002074759 [Eh]

	 ================> DF-SCS-MP2 Energies <==================
	-----------------------------------------------------------
	 SCS Same-Spin Scale       =       0.3333333333333333 [-]
	 SCS Opposite-Spin Scale   =       1.2000000000000000 [-]
	 SCS Same-Spin Energy      =      -0.1138986802369258 [Eh]
	 SCS Opposite-Spin Energy  =      -1.3588465090019934 [Eh]
	 SCS Correlation Energy    =      -1.4727451892389194 [Eh]
	 SCS Total Energy          =    -346.5014743579006335 [Eh]
	-----------------------------------------------------------

  Dipole Moment: [D]
     X:    -1.9027      Y:    -1.6232      Z:    -0.9484     Total:     2.6748

*** Psi4 exiting successfully. Buy a developer a beer!
