                               Psi4 1.4a3.dev225

  ==> Input File <==

--------------------------------------------------------------------------
#psi4
#
memory 32 gb

molecule  {
0 1
  O       -0.1077990    -0.5624470     0.2079430
  O       -1.3021290     1.1073090    -0.7840490
  C        1.1279890     0.0542050    -0.2592580
  C        1.5159640     1.1744160     0.6880040
  C        2.1417370    -1.0702820    -0.3128090
  C       -1.2572064     0.0948343    -0.1406631
  C       -2.4469700    -0.6645530     0.4162300
  H        0.9393410     0.4580410    -1.2580840
  H        2.4644540     1.6220060     0.3756670
  H        0.7505430     1.9525630     0.6895830
  H        1.6331200     0.7804540     1.7015330
  H        3.1019190    -0.6925110    -0.6758780
  H        1.8018300    -1.8630990    -0.9832080
  H        2.2880710    -1.4948000     0.6840490
  H       -2.3821170    -0.7144520     1.5057940
  H       -2.4521220    -1.6889170     0.0368310
  H       -3.3591990    -0.1487030     0.1192220
units angstrom
no_reorient  #important for SAPT in psi4, default
symmetry c1  #important for SAPT in psi4, default
}

set PROPERTIES_ORIGIN ["COM"]
properties('MP2/aug-cc-pvtz', properties = ['dipole'])
--------------------------------------------------------------------------

    Molecular point group: c1
  Charge       = 0
  Multiplicity = 1
  Basis Set: AUG-CC-PVTZ
    Blend: AUG-CC-PVTZ
  Basis Set: (AUG-CC-PVTZ AUX)
    Blend: AUG-CC-PVTZ-JKFIT

    Orbital Energies [Eh]
    ---------------------

    Doubly Occupied:

       1A    -20.593753     2A    -20.546273     3A    -11.380131
       4A    -11.289656     5A    -11.239617     6A    -11.221013
       7A    -11.217178     8A     -1.449441     9A     -1.358896
      10A     -1.072518    11A     -1.002617    12A     -0.944694
      13A     -0.833302    14A     -0.764173    15A     -0.694904
      16A     -0.664538    17A     -0.653461    18A     -0.611053
      19A     -0.586708    20A     -0.576621    21A     -0.562785
      22A     -0.547560    23A     -0.533676    24A     -0.517602
      25A     -0.504797    26A     -0.482906    27A     -0.454075
      28A     -0.442872

  @DF-RHF Final Energy:  -345.04224957400515

   => Energetics <=

    Nuclear Repulsion Energy =            320.9867404979792127
    One-Electron Energy =               -1106.5643445671012159
    Two-Electron Energy =                 440.5353544951168487
    Total Energy =                       -345.0422495740051545
  Basis Set: (AUG-CC-PVTZ AUX)
    Blend: AUG-CC-PVTZ-RI
    Molecular point group: c1

    Geometry (in Angstrom), charge = 0, multiplicity = 1:

       Center              X                  Y                   Z               Mass
    ------------   -----------------  -----------------  -----------------  -----------------
         O           -0.061259225294    -0.581797266258     0.230516468248    15.994914619570
         O           -1.255589225294     1.087958733742    -0.761475531752    15.994914619570
         C            1.174528774706     0.034854733742    -0.236684531752    12.000000000000
         C            1.562503774706     1.155065733742     0.710577468248    12.000000000000
         C            2.188276774706    -1.089632266258    -0.290235531752    12.000000000000
         C           -1.210666625294     0.075484033742    -0.118089631752    12.000000000000
         C           -2.400430225294    -0.683903266258     0.438803468248    12.000000000000
         H            0.985880774706     0.438690733742    -1.235510531752     1.007825032230
         H            2.510993774706     1.602655733742     0.398240468248     1.007825032230
         H            0.797082774706     1.933212733742     0.712156468248     1.007825032230
         H            1.679659774706     0.761103733742     1.724106468248     1.007825032230
         H            3.148458774706    -0.711861266258    -0.653304531752     1.007825032230
         H            1.848369774706    -1.882449266258    -0.960634531752     1.007825032230
         H            2.334610774706    -1.514150266258     0.706622468248     1.007825032230
         H           -2.335577225294    -0.733802266258     1.528367468248     1.007825032230
         H           -2.405582225294    -1.708267266258     0.059404468248     1.007825032230
         H           -3.312659225294    -0.168053266258     0.141795468248     1.007825032230

  Basis Set: AUG-CC-PVTZ
    Blend: AUG-CC-PVTZ
  Basis Set: (AUG-CC-PVTZ AUX)
    Blend: AUG-CC-PVTZ-JKFIT
	 Reference Energy          =    -345.0422495740051545 [Eh]
	 Singles Energy            =      -0.0000000000000000 [Eh]
	 Same-Spin Energy          =      -0.3411270460032565 [Eh]
	 Opposite-Spin Energy      =      -1.1317798500932135 [Eh]
	 Correlation Energy        =      -1.4729068960964700 [Eh]
	 Total Energy              =    -346.5151564701016014 [Eh]

	 ================> DF-SCS-MP2 Energies <==================
	-----------------------------------------------------------
	 SCS Same-Spin Scale       =       0.3333333333333333 [-]
	 SCS Opposite-Spin Scale   =       1.2000000000000000 [-]
	 SCS Same-Spin Energy      =      -0.1137090153344188 [Eh]
	 SCS Opposite-Spin Energy  =      -1.3581358201118561 [Eh]
	 SCS Correlation Energy    =      -1.4718448354462750 [Eh]
	 SCS Total Energy          =    -346.5140944094514452 [Eh]
	-----------------------------------------------------------

  Dipole Moment: [D]
     X:     0.7990      Y:    -1.2752      Z:     0.8080     Total:     1.7081

*** Psi4 exiting successfully. Buy a developer a beer!
