                               Psi4 1.3.2 release

  ==> Input File <==

--------------------------------------------------------------------------
#psi4
#
memory 32 gb

molecule  {
0 1
  O        0.0007480    -0.5952090    -0.1877880
  O        1.3565350     1.0092090     0.6922610
  C       -1.1649080     0.1839100     0.2068510
  C       -1.4179200     1.2632690    -0.8279250
  C       -2.2926420    -0.8179640     0.3227230
  C        1.1897976    -0.0955944     0.1538449
  C        2.3131480    -0.9859210    -0.3056480
  H       -0.9474970     0.6396690     1.1762190
  H       -2.3155240     1.8326500    -0.5690360
  H       -0.5734580     1.9518970    -0.8732450
  H       -1.5650280     0.8097800    -1.8115960
  H       -3.2117410    -0.3160520     0.6373810
  H       -2.0484320    -1.5899530     1.0551950
  H       -2.4714270    -1.2985150    -0.6417240
  H        2.2239110    -1.2047570    -1.3723200
  H        2.1973071    -1.9178181     0.2546984
  H        3.2753640    -0.5218720    -0.0948010
units angstrom
no_reorient  #important for SAPT in psi4, default
symmetry c1  #important for SAPT in psi4, default
}

set PROPERTIES_ORIGIN ["COM"]
properties('MP2/aug-cc-pvtz', properties = ['dipole'])
--------------------------------------------------------------------------

    Molecular point group: c1
  Charge       = 0
  Multiplicity = 1
  Basis Set: AUG-CC-PVTZ
    Blend: AUG-CC-PVTZ
  Basis Set: (AUG-CC-PVTZ AUX)
    Blend: AUG-CC-PVTZ-JKFIT

    Orbital Energies [Eh]
    ---------------------

    Doubly Occupied:

       1A    -20.602332     2A    -20.536384     3A    -11.381391
       4A    -11.293296     5A    -11.240043     6A    -11.223000
       7A    -11.218049     8A     -1.454315     9A     -1.340171
      10A     -1.079273    11A     -1.006464    12A     -0.946996
      13A     -0.841987    14A     -0.768394    15A     -0.687673
      16A     -0.667713    17A     -0.655368    18A     -0.610062
      19A     -0.586938    20A     -0.578805    21A     -0.561273
      22A     -0.549743    23A     -0.534344    24A     -0.519888
      25A     -0.499803    26A     -0.483806    27A     -0.449838
      28A     -0.439381

  @DF-RHF Final Energy:  -345.03927569178444

   => Energetics <=

    Nuclear Repulsion Energy =            321.2682087919187666
    One-Electron Energy =               -1107.1015084153184489
    Two-Electron Energy =                 440.7940239316151860
    Total Energy =                       -345.0392756917844395
  Basis Set: (AUG-CC-PVTZ AUX)
    Blend: AUG-CC-PVTZ-RI
    Molecular point group: c1

    Geometry (in Angstrom), charge = 0, multiplicity = 1:

       Center              X                  Y                   Z               Mass
    ------------   -----------------  -----------------  -----------------  -----------------
         O            0.003096755693    -0.590963613487    -0.191808872428    15.994914619570
         O            1.358883755693     1.013454386513     0.688240127572    15.994914619570
         C           -1.162559244307     0.188155386513     0.202830127572    12.000000000000
         C           -1.415571244307     1.267514386513    -0.831945872428    12.000000000000
         C           -2.290293244307    -0.813718613487     0.318702127572    12.000000000000
         C            1.192146355693    -0.091349013487     0.149824027572    12.000000000000
         C            2.315496755693    -0.981675613487    -0.309668872428    12.000000000000
         H           -0.945148244307     0.643914386513     1.172198127572     1.007825032230
         H           -2.313175244307     1.836895386513    -0.573056872428     1.007825032230
         H           -0.571109244307     1.956142386513    -0.877265872428     1.007825032230
         H           -1.562679244307     0.814025386513    -1.815616872428     1.007825032230
         H           -3.209392244307    -0.311806613487     0.633360127572     1.007825032230
         H           -2.046083244307    -1.585707613487     1.051174127572     1.007825032230
         H           -2.469078244307    -1.294269613487    -0.645744872428     1.007825032230
         H            2.226259755693    -1.200511613487    -1.376340872428     1.007825032230
         H            2.199655855693    -1.913572713487     0.250677527572     1.007825032230
         H            3.277712755693    -0.517626613487    -0.098821872428     1.007825032230

  Basis Set: AUG-CC-PVTZ
    Blend: AUG-CC-PVTZ
  Basis Set: (AUG-CC-PVTZ AUX)
    Blend: AUG-CC-PVTZ-JKFIT
	 Reference Energy          =    -345.0392756917844395 [Eh]
	 Singles Energy            =      -0.0000000000000000 [Eh]
	 Same-Spin Energy          =      -0.3416985173070090 [Eh]
	 Opposite-Spin Energy      =      -1.1326105528540447 [Eh]
	 Correlation Energy        =      -1.4743090701610537 [Eh]
	 Total Energy              =    -346.5135847619454808 [Eh]

	 ================> DF-SCS-MP2 Energies <==================
	-----------------------------------------------------------
	 SCS Same-Spin Scale       =       0.3333333333333333 [-]
	 SCS Opposite-Spin Scale   =       1.2000000000000000 [-]
	 SCS Same-Spin Energy      =      -0.1138995057690030 [Eh]
	 SCS Opposite-Spin Energy  =      -1.3591326634248535 [Eh]
	 SCS Correlation Energy    =      -1.4730321691938566 [Eh]
	 SCS Total Energy          =    -346.5123078609782965 [Eh]
	-----------------------------------------------------------

  Dipole Moment: [D]
     X:    -1.1827      Y:    -1.4770      Z:    -0.7811     Total:     2.0471

*** Psi4 exiting successfully. Buy a developer a beer!
