                               Psi4 1.3.2 release

  ==> Input File <==

--------------------------------------------------------------------------
#psi4
#
memory 32 gb

molecule  {
0 1
  O        0.0007480    -0.5952090    -0.1877880
  O        1.3565350     1.0092090     0.6922610
  C       -1.1649080     0.1839100     0.2068510
  C       -1.4179200     1.2632690    -0.8279250
  C       -2.2926420    -0.8179640     0.3227230
  C        1.2357979    -0.0045563     0.0711428
  C        2.3131480    -0.9859210    -0.3056480
  H       -0.9474970     0.6396690     1.1762190
  H       -2.3155240     1.8326500    -0.5690360
  H       -0.5734580     1.9518970    -0.8732450
  H       -1.5650280     0.8097800    -1.8115960
  H       -3.2117410    -0.3160520     0.6373810
  H       -2.0484320    -1.5899530     1.0551950
  H       -2.4714270    -1.2985150    -0.6417240
  H        2.2239110    -1.2047570    -1.3723200
  H        2.2744045    -1.9501502     0.2087452
  H        3.2753640    -0.5218720    -0.0948010
units angstrom
no_reorient  #important for SAPT in psi4, default
symmetry c1  #important for SAPT in psi4, default
}

set PROPERTIES_ORIGIN ["COM"]
properties('MP2/aug-cc-pvtz', properties = ['dipole'])
--------------------------------------------------------------------------

    Molecular point group: c1
  Charge       = 0
  Multiplicity = 1
  Basis Set: AUG-CC-PVTZ
    Blend: AUG-CC-PVTZ
  Basis Set: (AUG-CC-PVTZ AUX)
    Blend: AUG-CC-PVTZ-JKFIT

    Orbital Energies [Eh]
    ---------------------

    Doubly Occupied:

       1A    -20.588106     2A    -20.550987     3A    -11.382290
       4A    -11.286483     5A    -11.241400     6A    -11.218757
       7A    -11.215575     8A     -1.446414     9A     -1.356923
      10A     -1.070174    11A     -1.006172    12A     -0.943516
      13A     -0.829657    14A     -0.760922    15A     -0.698002
      16A     -0.663971    17A     -0.652261    18A     -0.612533
      19A     -0.586671    20A     -0.576290    21A     -0.560375
      22A     -0.546114    23A     -0.533897    24A     -0.514696
      25A     -0.504395    26A     -0.482002    27A     -0.452778
      28A     -0.444259

  @DF-RHF Final Energy:  -345.03674511227376

   => Energetics <=

    Nuclear Repulsion Energy =            320.8648621609399925
    One-Electron Energy =               -1106.3519743735869270
    Two-Electron Energy =                 440.4503671003731711
    Total Energy =                       -345.0367451122737634
  Basis Set: (AUG-CC-PVTZ AUX)
    Blend: AUG-CC-PVTZ-RI
    Molecular point group: c1

    Geometry (in Angstrom), charge = 0, multiplicity = 1:

       Center              X                  Y                   Z               Mass
    ------------   -----------------  -----------------  -----------------  -----------------
         O           -0.003072697992    -0.601347585683    -0.181631959237    15.994914619570
         O            1.352714302008     1.003070414317     0.698417040763    15.994914619570
         C           -1.168728697992     0.177771414317     0.213007040763    12.000000000000
         C           -1.421740697992     1.257130414317    -0.821768959237    12.000000000000
         C           -2.296462697992    -0.824102585683     0.328879040763    12.000000000000
         C            1.231977202008    -0.010694885683     0.077298840763    12.000000000000
         C            2.309327302008    -0.992059585683    -0.299491959237    12.000000000000
         H           -0.951317697992     0.633530414317     1.182375040763     1.007825032230
         H           -2.319344697992     1.826511414317    -0.562879959237     1.007825032230
         H           -0.577278697992     1.945758414317    -0.867088959237     1.007825032230
         H           -1.568848697992     0.803641414317    -1.805439959237     1.007825032230
         H           -3.215561697992    -0.322190585683     0.643537040763     1.007825032230
         H           -2.052252697992    -1.596091585683     1.061351040763     1.007825032230
         H           -2.475247697992    -1.304653585683    -0.635567959237     1.007825032230
         H            2.220090302008    -1.210895585683    -1.366163959237     1.007825032230
         H            2.270583802008    -1.956288785683     0.214901240763     1.007825032230
         H            3.271543302008    -0.528010585683    -0.088644959237     1.007825032230

  Basis Set: AUG-CC-PVTZ
    Blend: AUG-CC-PVTZ
  Basis Set: (AUG-CC-PVTZ AUX)
    Blend: AUG-CC-PVTZ-JKFIT
	 Reference Energy          =    -345.0367451122737634 [Eh]
	 Singles Energy            =      -0.0000000000000000 [Eh]
	 Same-Spin Energy          =      -0.3415542189243701 [Eh]
	 Opposite-Spin Energy      =      -1.1326410127314945 [Eh]
	 Correlation Energy        =      -1.4741952316558646 [Eh]
	 Total Energy              =    -346.5109403439296329 [Eh]

	 ================> DF-SCS-MP2 Energies <==================
	-----------------------------------------------------------
	 SCS Same-Spin Scale       =       0.3333333333333333 [-]
	 SCS Opposite-Spin Scale   =       1.2000000000000000 [-]
	 SCS Same-Spin Energy      =      -0.1138514063081234 [Eh]
	 SCS Opposite-Spin Energy  =      -1.3591692152777934 [Eh]
	 SCS Correlation Energy    =      -1.4730206215859167 [Eh]
	 SCS Total Energy          =    -346.5097657338596946 [Eh]
	-----------------------------------------------------------

  Dipole Moment: [D]
     X:    -0.6971      Y:    -1.2130      Z:    -0.7139     Total:     1.5706

*** Psi4 exiting successfully. Buy a developer a beer!
