                               Psi4 1.3.2 release

  ==> Input File <==

--------------------------------------------------------------------------
#psi4
#
memory 32 gb

molecule  {
0 1
  O        0.0146633    -0.5739348    -0.1878679
  O        1.3565350     1.0092090     0.6922610
  C       -1.1649080     0.1839100     0.2068510
  C       -1.4179200     1.2632690    -0.8279250
  C       -2.3090062    -0.7984043     0.3295692
  C        1.2071900    -0.0583260     0.1211490
  C        2.3131480    -0.9859210    -0.3056480
  H       -0.9474970     0.6396690     1.1762190
  H       -2.3155240     1.8326500    -0.5690360
  H       -0.5734580     1.9518970    -0.8732450
  H       -1.5650280     0.8097800    -1.8115960
  H       -3.2117410    -0.3160520     0.6373810
  H       -2.0484320    -1.5899530     1.0551950
  H       -2.4714270    -1.2985150    -0.6417240
  H        2.2239110    -1.2047570    -1.3723200
  H        2.2280730    -1.9316170     0.2368100
  H        3.2753640    -0.5218720    -0.0948010
units angstrom
no_reorient  #important for SAPT in psi4, default
symmetry c1  #important for SAPT in psi4, default
}

set PROPERTIES_ORIGIN ["COM"]
properties('MP2/aug-cc-pvtz', properties = ['dipole'])
--------------------------------------------------------------------------

    Molecular point group: c1
  Charge       = 0
  Multiplicity = 1
  Basis Set: AUG-CC-PVTZ
    Blend: AUG-CC-PVTZ
  Basis Set: (AUG-CC-PVTZ AUX)
    Blend: AUG-CC-PVTZ-JKFIT

    Orbital Energies [Eh]
    ---------------------

    Doubly Occupied:

       1A    -20.597697     2A    -20.537587     3A    -11.378420
       4A    -11.292316     5A    -11.239368     6A    -11.223190
       7A    -11.217202     8A     -1.455477     9A     -1.348870
      10A     -1.078394    11A     -1.005933    12A     -0.945970
      13A     -0.842479    14A     -0.765229    15A     -0.691074
      16A     -0.667963    17A     -0.655992    18A     -0.610170
      19A     -0.584528    20A     -0.581525    21A     -0.563826
      22A     -0.547646    23A     -0.538923    24A     -0.517914
      25A     -0.498774    26A     -0.481442    27A     -0.451020
      28A     -0.441814

  @DF-RHF Final Energy:  -345.04241985578773

   => Energetics <=

    Nuclear Repulsion Energy =            321.5350680358392879
    One-Electron Energy =               -1107.6334909920515202
    Two-Electron Energy =                 441.0560031004245616
    Total Energy =                       -345.0424198557877276
  Basis Set: (AUG-CC-PVTZ AUX)
    Blend: AUG-CC-PVTZ-RI
    Molecular point group: c1

    Geometry (in Angstrom), charge = 0, multiplicity = 1:

       Center              X                  Y                   Z               Mass
    ------------   -----------------  -----------------  -----------------  -----------------
         O            0.014406744800    -0.579568205564    -0.188660507799    15.994914619570
         O            1.356278444800     1.003575594436     0.691468392201    15.994914619570
         C           -1.165164555200     0.178276594436     0.206058392201    12.000000000000
         C           -1.418176555200     1.257635594436    -0.828717607799    12.000000000000
         C           -2.309262755200    -0.804037705564     0.328776592201    12.000000000000
         C            1.206933444800    -0.063959405564     0.120356392201    12.000000000000
         C            2.312891444800    -0.991554405564    -0.306440607799    12.000000000000
         H           -0.947753555200     0.634035594436     1.175426392201     1.007825032230
         H           -2.315780555200     1.827016594436    -0.569828607799     1.007825032230
         H           -0.573714555200     1.946263594436    -0.874037607799     1.007825032230
         H           -1.565284555200     0.804146594436    -1.812388607799     1.007825032230
         H           -3.211997555200    -0.321685405564     0.636588392201     1.007825032230
         H           -2.048688555200    -1.595586405564     1.054402392201     1.007825032230
         H           -2.471683555200    -1.304148405564    -0.642516607799     1.007825032230
         H            2.223654444800    -1.210390405564    -1.373112607799     1.007825032230
         H            2.227816444800    -1.937250405564     0.236017392201     1.007825032230
         H            3.275107444800    -0.527505405564    -0.095593607799     1.007825032230

  Basis Set: AUG-CC-PVTZ
    Blend: AUG-CC-PVTZ
  Basis Set: (AUG-CC-PVTZ AUX)
    Blend: AUG-CC-PVTZ-JKFIT
	 Reference Energy          =    -345.0424198557877276 [Eh]
	 Singles Energy            =      -0.0000000000000000 [Eh]
	 Same-Spin Energy          =      -0.3411142034072204 [Eh]
	 Opposite-Spin Energy      =      -1.1312404541039571 [Eh]
	 Correlation Energy        =      -1.4723546575111777 [Eh]
	 Total Energy              =    -346.5147745132989030 [Eh]

	 ================> DF-SCS-MP2 Energies <==================
	-----------------------------------------------------------
	 SCS Same-Spin Scale       =       0.3333333333333333 [-]
	 SCS Opposite-Spin Scale   =       1.2000000000000000 [-]
	 SCS Same-Spin Energy      =      -0.1137047344690735 [Eh]
	 SCS Opposite-Spin Energy  =      -1.3574885449247485 [Eh]
	 SCS Correlation Energy    =      -1.4711932793938218 [Eh]
	 SCS Total Energy          =    -346.5136131351815720 [Eh]
	-----------------------------------------------------------

  Dipole Moment: [D]
     X:    -1.1276      Y:    -1.4359      Z:    -0.7661     Total:     1.9800

*** Psi4 exiting successfully. Buy a developer a beer!
