                               Psi4 1.3.2 release

  ==> Input File <==

--------------------------------------------------------------------------
#psi4
#
memory 32 gb

molecule  {
0 1
  O        0.0066054    -0.5917865    -0.1770391
  O        1.3565350     1.0092090     0.6922610
  C       -1.1649080     0.1839100     0.2068510
  C       -1.4179200     1.2632690    -0.8279250
  C       -2.2926420    -0.8179640     0.3227230
  C        1.2071900    -0.0583260     0.1211490
  C        2.3131480    -0.9859210    -0.3056480
  H       -0.9388866     0.6355657     1.1761701
  H       -2.3155240     1.8326500    -0.5690360
  H       -0.5734580     1.9518970    -0.8732450
  H       -1.5650280     0.8097800    -1.8115960
  H       -3.2117410    -0.3160520     0.6373810
  H       -2.0484320    -1.5899530     1.0551950
  H       -2.4714270    -1.2985150    -0.6417240
  H        2.2239110    -1.2047570    -1.3723200
  H        2.2280730    -1.9316170     0.2368100
  H        3.2753640    -0.5218720    -0.0948010
units angstrom
no_reorient  #important for SAPT in psi4, default
symmetry c1  #important for SAPT in psi4, default
}

set PROPERTIES_ORIGIN ["COM"]
properties('MP2/aug-cc-pvtz', properties = ['dipole'])
--------------------------------------------------------------------------

    Molecular point group: c1
  Charge       = 0
  Multiplicity = 1
  Basis Set: AUG-CC-PVTZ
    Blend: AUG-CC-PVTZ
  Basis Set: (AUG-CC-PVTZ AUX)
    Blend: AUG-CC-PVTZ-JKFIT

    Orbital Energies [Eh]
    ---------------------

    Doubly Occupied:

       1A    -20.596692     2A    -20.540042     3A    -11.379747
       4A    -11.291276     5A    -11.239711     6A    -11.221965
       7A    -11.217675     8A     -1.451552     9A     -1.349722
      10A     -1.076702    11A     -1.005804    12A     -0.946143
      13A     -0.839330    14A     -0.764853    15A     -0.691549
      16A     -0.666052    17A     -0.655319    18A     -0.611580
      19A     -0.585244    20A     -0.578187    21A     -0.561965
      22A     -0.548749    23A     -0.534945    24A     -0.518307
      25A     -0.501382    26A     -0.482827    27A     -0.452436
      28A     -0.441829

  @DF-RHF Final Energy:  -345.04257491793607

   => Energetics <=

    Nuclear Repulsion Energy =            321.3540205914779335
    One-Electron Energy =               -1107.2900254084242988
    Two-Electron Energy =                 440.8934298990103002
    Total Energy =                       -345.0425749179360650
  Basis Set: (AUG-CC-PVTZ AUX)
    Blend: AUG-CC-PVTZ-RI
    Molecular point group: c1

    Geometry (in Angstrom), charge = 0, multiplicity = 1:

       Center              X                  Y                   Z               Mass
    ------------   -----------------  -----------------  -----------------  -----------------
         O            0.005602649177    -0.592282273623    -0.178723289665    15.994914619570
         O            1.355532249177     1.008713226377     0.690576810335    15.994914619570
         C           -1.165910750823     0.183414226377     0.205166810335    12.000000000000
         C           -1.418922750823     1.262773226377    -0.829609189665    12.000000000000
         C           -2.293644750823    -0.818459773623     0.321038810335    12.000000000000
         C            1.206187249177    -0.058821773623     0.119464810335    12.000000000000
         C            2.312145249177    -0.986416773623    -0.307332189665    12.000000000000
         H           -0.939889350823     0.635069926377     1.174485910335     1.007825032230
         H           -2.316526750823     1.832154226377    -0.570720189665     1.007825032230
         H           -0.574460750823     1.951401226377    -0.874929189665     1.007825032230
         H           -1.566030750823     0.809284226377    -1.813280189665     1.007825032230
         H           -3.212743750823    -0.316547773623     0.635696810335     1.007825032230
         H           -2.049434750823    -1.590448773623     1.053510810335     1.007825032230
         H           -2.472429750823    -1.299010773623    -0.643408189665     1.007825032230
         H            2.222908249177    -1.205252773623    -1.374004189665     1.007825032230
         H            2.227070249177    -1.932112773623     0.235125810335     1.007825032230
         H            3.274361249177    -0.522367773623    -0.096485189665     1.007825032230

  Basis Set: AUG-CC-PVTZ
    Blend: AUG-CC-PVTZ
  Basis Set: (AUG-CC-PVTZ AUX)
    Blend: AUG-CC-PVTZ-JKFIT
	 Reference Energy          =    -345.0425749179360650 [Eh]
	 Singles Energy            =      -0.0000000000000000 [Eh]
	 Same-Spin Energy          =      -0.3413181519890086 [Eh]
	 Opposite-Spin Energy      =      -1.1317781453925824 [Eh]
	 Correlation Energy        =      -1.4730962973815909 [Eh]
	 Total Energy              =    -346.5156712153176386 [Eh]

	 ================> DF-SCS-MP2 Energies <==================
	-----------------------------------------------------------
	 SCS Same-Spin Scale       =       0.3333333333333333 [-]
	 SCS Opposite-Spin Scale   =       1.2000000000000000 [-]
	 SCS Same-Spin Energy      =      -0.1137727173296695 [Eh]
	 SCS Opposite-Spin Energy  =      -1.3581337744710988 [Eh]
	 SCS Correlation Energy    =      -1.4719064918007683 [Eh]
	 SCS Total Energy          =    -346.5144814097368453 [Eh]
	-----------------------------------------------------------

  Dipole Moment: [D]
     X:    -1.0554      Y:    -1.3918      Z:    -0.7757     Total:     1.9112

*** Psi4 exiting successfully. Buy a developer a beer!
