                               Psi4 1.3.2 release

  ==> Input File <==

--------------------------------------------------------------------------
#psi4
#
memory 32 gb

molecule  {
0 1
  O        0.0007480    -0.5952090    -0.1877880
  O        1.3565350     1.0092090     0.6922610
  C       -1.1649080     0.1839100     0.2068510
  C       -1.4179200     1.2632690    -0.8279250
  C       -2.2926420    -0.8179640     0.3227230
  C        1.0292706    -0.1375026     0.0755887
  C        2.3131480    -0.9859210    -0.3056480
  H       -0.9474970     0.6396690     1.1762190
  H       -2.3155240     1.8326500    -0.5690360
  H       -0.5734580     1.9518970    -0.8732450
  H       -1.5650280     0.8097800    -1.8115960
  H       -3.2117410    -0.3160520     0.6373810
  H       -2.0484320    -1.5899530     1.0551950
  H       -2.4714270    -1.2985150    -0.6417240
  H        2.2239110    -1.2047570    -1.3723200
  H        2.2280730    -1.9316170     0.2368100
  H        3.2753640    -0.5218720    -0.0948010
units angstrom
no_reorient  #important for SAPT in psi4, default
symmetry c1  #important for SAPT in psi4, default
}

set PROPERTIES_ORIGIN ["COM"]
properties('MP2/aug-cc-pvtz', properties = ['dipole'])
--------------------------------------------------------------------------

    Molecular point group: c1
  Charge       = 0
  Multiplicity = 1
  Basis Set: AUG-CC-PVTZ
    Blend: AUG-CC-PVTZ
  Basis Set: (AUG-CC-PVTZ AUX)
    Blend: AUG-CC-PVTZ-JKFIT

    Orbital Energies [Eh]
    ---------------------

    Doubly Occupied:

       1A    -20.644703     2A    -20.500059     3A    -11.376717
       4A    -11.314804     5A    -11.237500     6A    -11.232127
       7A    -11.230997     8A     -1.560230     9A     -1.270253
      10A     -1.110066    11A     -0.984017    12A     -0.962336
      13A     -0.887146    14A     -0.800061    15A     -0.715277
      16A     -0.692273    17A     -0.657518    18A     -0.622773
      19A     -0.581658    20A     -0.576642    21A     -0.561893
      22A     -0.556854    23A     -0.548230    24A     -0.510890
      25A     -0.502274    26A     -0.493872    27A     -0.419128
      28A     -0.401137

  @DF-RHF Final Energy:  -344.98280919357410

   => Energetics <=

    Nuclear Repulsion Energy =            323.1362282726925059
    One-Electron Energy =               -1110.3352033041835512
    Two-Electron Energy =                 442.2161658379169467
    Total Energy =                       -344.9828091935740986
  Basis Set: (AUG-CC-PVTZ AUX)
    Blend: AUG-CC-PVTZ-RI
    Molecular point group: c1

    Geometry (in Angstrom), charge = 0, multiplicity = 1:

       Center              X                  Y                   Z               Mass
    ------------   -----------------  -----------------  -----------------  -----------------
         O            0.021665904481    -0.585900274595    -0.182431770582    15.994914619570
         O            1.377452904481     1.018517725405     0.697617229418    15.994914619570
         C           -1.143990095519     0.193218725405     0.212207229418    12.000000000000
         C           -1.397002095519     1.272577725405    -0.822568770582    12.000000000000
         C           -2.271724095519    -0.808655274595     0.328079229418    12.000000000000
         C            1.050188504481    -0.128193874595     0.080944929418    12.000000000000
         C            2.334065904481    -0.976612274595    -0.300291770582    12.000000000000
         H           -0.926579095519     0.648977725405     1.181575229418     1.007825032230
         H           -2.294606095519     1.841958725405    -0.563679770582     1.007825032230
         H           -0.552540095519     1.961205725405    -0.867888770582     1.007825032230
         H           -1.544110095519     0.819088725405    -1.806239770582     1.007825032230
         H           -3.190823095519    -0.306743274595     0.642737229418     1.007825032230
         H           -2.027514095519    -1.580644274595     1.060551229418     1.007825032230
         H           -2.450509095519    -1.289206274595    -0.636367770582     1.007825032230
         H            2.244828904481    -1.195448274595    -1.366963770582     1.007825032230
         H            2.248990904481    -1.922308274595     0.242166229418     1.007825032230
         H            3.296281904481    -0.512563274595    -0.089444770582     1.007825032230

  Basis Set: AUG-CC-PVTZ
    Blend: AUG-CC-PVTZ
  Basis Set: (AUG-CC-PVTZ AUX)
    Blend: AUG-CC-PVTZ-JKFIT
	 Reference Energy          =    -344.9828091935740986 [Eh]
	 Singles Energy            =      -0.0000000000000000 [Eh]
	 Same-Spin Energy          =      -0.3420744213425388 [Eh]
	 Opposite-Spin Energy      =      -1.1328020651323953 [Eh]
	 Correlation Energy        =      -1.4748764864749342 [Eh]
	 Total Energy              =    -346.4576856800490532 [Eh]

	 ================> DF-SCS-MP2 Energies <==================
	-----------------------------------------------------------
	 SCS Same-Spin Scale       =       0.3333333333333333 [-]
	 SCS Opposite-Spin Scale   =       1.2000000000000000 [-]
	 SCS Same-Spin Energy      =      -0.1140248071141796 [Eh]
	 SCS Opposite-Spin Energy  =      -1.3593624781588745 [Eh]
	 SCS Correlation Energy    =      -1.4733872852730541 [Eh]
	 SCS Total Energy          =    -346.4561964788471755 [Eh]
	-----------------------------------------------------------

  Dipole Moment: [D]
     X:    -2.8070      Y:    -1.9032      Z:    -1.1660     Total:     3.5862

*** Psi4 exiting successfully. Buy a developer a beer!
