                               Psi4 1.3.2 release

  ==> Input File <==

--------------------------------------------------------------------------
#psi4
#
memory 32 gb

molecule  {
0 1
  O        0.0282194    -0.5524297    -0.1878275
  O        1.3565350     1.0092090     0.6922610
  C       -1.1649080     0.1839100     0.2068510
  C       -1.4179200     1.2632690    -0.8279250
  C       -2.3250219    -0.7785453     0.3363779
  C        1.2071900    -0.0583260     0.1211490
  C        2.3131480    -0.9859210    -0.3056480
  H       -0.9474970     0.6396690     1.1762190
  H       -2.3155240     1.8326500    -0.5690360
  H       -0.5734580     1.9518970    -0.8732450
  H       -1.5650280     0.8097800    -1.8115960
  H       -3.2117410    -0.3160520     0.6373810
  H       -2.0484320    -1.5899530     1.0551950
  H       -2.4714270    -1.2985150    -0.6417240
  H        2.2239110    -1.2047570    -1.3723200
  H        2.2280730    -1.9316170     0.2368100
  H        3.2753640    -0.5218720    -0.0948010
units angstrom
no_reorient  #important for SAPT in psi4, default
symmetry c1  #important for SAPT in psi4, default
}

set PROPERTIES_ORIGIN ["COM"]
properties('MP2/aug-cc-pvtz', properties = ['dipole'])
--------------------------------------------------------------------------

    Molecular point group: c1
  Charge       = 0
  Multiplicity = 1
  Basis Set: AUG-CC-PVTZ
    Blend: AUG-CC-PVTZ
  Basis Set: (AUG-CC-PVTZ AUX)
    Blend: AUG-CC-PVTZ-JKFIT

    Orbital Energies [Eh]
    ---------------------

    Doubly Occupied:

       1A    -20.598563     2A    -20.533128     3A    -11.375670
       4A    -11.294164     5A    -11.238576     6A    -11.225302
       7A    -11.217346     8A     -1.462609     9A     -1.347002
      10A     -1.081223    11A     -1.005898    12A     -0.946438
      13A     -0.848173    14A     -0.765340    15A     -0.690100
      16A     -0.671032    17A     -0.657848    18A     -0.609593
      19A     -0.586788    20A     -0.583445    21A     -0.565666
      22A     -0.548103    23A     -0.540488    24A     -0.517375
      25A     -0.495746    26A     -0.479942    27A     -0.449169
      28A     -0.440726

  @DF-RHF Final Energy:  -345.04008510332568

   => Energetics <=

    Nuclear Repulsion Energy =            321.9220574887100952
    One-Electron Energy =               -1108.3733740243255852
    Two-Electron Energy =                 441.4112314322897532
    Total Energy =                       -345.0400851033256799
  Basis Set: (AUG-CC-PVTZ AUX)
    Blend: AUG-CC-PVTZ-RI
    Molecular point group: c1

    Geometry (in Angstrom), charge = 0, multiplicity = 1:

       Center              X                  Y                   Z               Mass
    ------------   -----------------  -----------------  -----------------  -----------------
         O            0.027721434731    -0.563767927688    -0.189426928060    15.994914619570
         O            1.356037034731     0.997870772312     0.690661571940    15.994914619570
         C           -1.165405965269     0.172571772312     0.205251571940    12.000000000000
         C           -1.418417965269     1.251930772312    -0.829524428060    12.000000000000
         C           -2.325519865269    -0.789883527688     0.334778471940    12.000000000000
         C            1.206692034731    -0.069664227688     0.119549571940    12.000000000000
         C            2.312650034731    -0.997259227688    -0.307247428060    12.000000000000
         H           -0.947994965269     0.628330772312     1.174619571940     1.007825032230
         H           -2.316021965269     1.821311772312    -0.570635428060     1.007825032230
         H           -0.573955965269     1.940558772312    -0.874844428060     1.007825032230
         H           -1.565525965269     0.798441772312    -1.813195428060     1.007825032230
         H           -3.212238965269    -0.327390227688     0.635781571940     1.007825032230
         H           -2.048929965269    -1.601291227688     1.053595571940     1.007825032230
         H           -2.471924965269    -1.309853227688    -0.643323428060     1.007825032230
         H            2.223413034731    -1.216095227688    -1.373919428060     1.007825032230
         H            2.227575034731    -1.942955227688     0.235210571940     1.007825032230
         H            3.274866034731    -0.533210227688    -0.096400428060     1.007825032230

  Basis Set: AUG-CC-PVTZ
    Blend: AUG-CC-PVTZ
  Basis Set: (AUG-CC-PVTZ AUX)
    Blend: AUG-CC-PVTZ-JKFIT
	 Reference Energy          =    -345.0400851033256799 [Eh]
	 Singles Energy            =      -0.0000000000000000 [Eh]
	 Same-Spin Energy          =      -0.3408243787204475 [Eh]
	 Opposite-Spin Energy      =      -1.1304147340002113 [Eh]
	 Correlation Energy        =      -1.4712391127206588 [Eh]
	 Total Energy              =    -346.5113242160463187 [Eh]

	 ================> DF-SCS-MP2 Energies <==================
	-----------------------------------------------------------
	 SCS Same-Spin Scale       =       0.3333333333333333 [-]
	 SCS Opposite-Spin Scale   =       1.2000000000000000 [-]
	 SCS Same-Spin Energy      =      -0.1136081262401492 [Eh]
	 SCS Opposite-Spin Energy  =      -1.3564976808002536 [Eh]
	 SCS Correlation Energy    =      -1.4701058070404027 [Eh]
	 SCS Total Energy          =    -346.5101909103660773 [Eh]
	-----------------------------------------------------------

  Dipole Moment: [D]
     X:    -1.2526      Y:    -1.4990      Z:    -0.7844     Total:     2.1051

*** Psi4 exiting successfully. Buy a developer a beer!
