                               Psi4 1.3.2 release

  ==> Input File <==

--------------------------------------------------------------------------
#psi4
#
memory 32 gb

molecule  {
0 1
  O        0.0007480    -0.5952090    -0.1877880
  O        1.3565350     1.0092090     0.6922610
  C       -1.2449369     0.2374009     0.2339452
  C       -1.4179200     1.2632690    -0.8279250
  C       -2.2926420    -0.8179640     0.3227230
  C        1.2071900    -0.0583260     0.1211490
  C        2.3131480    -0.9859210    -0.3056480
  H       -0.9474970     0.6396690     1.1762190
  H       -2.3155240     1.8326500    -0.5690360
  H       -0.5734580     1.9518970    -0.8732450
  H       -1.5650280     0.8097800    -1.8115960
  H       -3.2117410    -0.3160520     0.6373810
  H       -2.0484320    -1.5899530     1.0551950
  H       -2.4714270    -1.2985150    -0.6417240
  H        2.2239110    -1.2047570    -1.3723200
  H        2.2280730    -1.9316170     0.2368100
  H        3.2753640    -0.5218720    -0.0948010
units angstrom
no_reorient  #important for SAPT in psi4, default
symmetry c1  #important for SAPT in psi4, default
}

set PROPERTIES_ORIGIN ["COM"]
properties('MP2/aug-cc-pvtz', properties = ['dipole'])
--------------------------------------------------------------------------

    Molecular point group: c1
  Charge       = 0
  Multiplicity = 1
  Basis Set: AUG-CC-PVTZ
    Blend: AUG-CC-PVTZ
  Basis Set: (AUG-CC-PVTZ AUX)
    Blend: AUG-CC-PVTZ-JKFIT

    Orbital Energies [Eh]
    ---------------------

    Doubly Occupied:

       1A    -20.582272     2A    -20.534448     3A    -11.372838
       4A    -11.296412     5A    -11.234822     6A    -11.225553
       7A    -11.221232     8A     -1.428271     9A     -1.333607
      10A     -1.084422    11A     -1.001788    12A     -0.954670
      13A     -0.825070    14A     -0.761286    15A     -0.684600
      16A     -0.655218    17A     -0.646495    18A     -0.617117
      19A     -0.585252    20A     -0.576994    21A     -0.560421
      22A     -0.553784    23A     -0.530980    24A     -0.513912
      25A     -0.499026    26A     -0.491671    27A     -0.450355
      28A     -0.435832

  @DF-RHF Final Energy:  -345.03297346114209

   => Energetics <=

    Nuclear Repulsion Energy =            320.0170435090701062
    One-Electron Energy =               -1104.7833428131261826
    Two-Electron Energy =                 439.7333258429139278
    Total Energy =                       -345.0329734611420918
  Basis Set: (AUG-CC-PVTZ AUX)
    Blend: AUG-CC-PVTZ-RI
    Molecular point group: c1

    Geometry (in Angstrom), charge = 0, multiplicity = 1:

       Center              X                  Y                   Z               Mass
    ------------   -----------------  -----------------  -----------------  -----------------
         O            0.010157056611    -0.601497805252    -0.190973657563    15.994914619570
         O            1.365944056611     1.002920194748     0.689075342437    15.994914619570
         C           -1.235527843389     0.231112094748     0.230759542437    12.000000000000
         C           -1.408510943389     1.256980194748    -0.831110657563    12.000000000000
         C           -2.283232943389    -0.824252805252     0.319537342437    12.000000000000
         C            1.216599056611    -0.064614805252     0.117963342437    12.000000000000
         C            2.322557056611    -0.992209805252    -0.308833657563    12.000000000000
         H           -0.938087943389     0.633380194748     1.173033342437     1.007825032230
         H           -2.306114943389     1.826361194748    -0.572221657563     1.007825032230
         H           -0.564048943389     1.945608194748    -0.876430657563     1.007825032230
         H           -1.555618943389     0.803491194748    -1.814781657563     1.007825032230
         H           -3.202331943389    -0.322340805252     0.634195342437     1.007825032230
         H           -2.039022943389    -1.596241805252     1.052009342437     1.007825032230
         H           -2.462017943389    -1.304803805252    -0.644909657563     1.007825032230
         H            2.233320056611    -1.211045805252    -1.375505657563     1.007825032230
         H            2.237482056611    -1.937905805252     0.233624342437     1.007825032230
         H            3.284773056611    -0.528160805252    -0.097986657563     1.007825032230

  Basis Set: AUG-CC-PVTZ
    Blend: AUG-CC-PVTZ
  Basis Set: (AUG-CC-PVTZ AUX)
    Blend: AUG-CC-PVTZ-JKFIT
	 Reference Energy          =    -345.0329734611420918 [Eh]
	 Singles Energy            =      -0.0000000000000000 [Eh]
	 Same-Spin Energy          =      -0.3421248555548524 [Eh]
	 Opposite-Spin Energy      =      -1.1337151790455948 [Eh]
	 Correlation Energy        =      -1.4758400346004472 [Eh]
	 Total Energy              =    -346.5088134957425154 [Eh]

	 ================> DF-SCS-MP2 Energies <==================
	-----------------------------------------------------------
	 SCS Same-Spin Scale       =       0.3333333333333333 [-]
	 SCS Opposite-Spin Scale   =       1.2000000000000000 [-]
	 SCS Same-Spin Energy      =      -0.1140416185182841 [Eh]
	 SCS Opposite-Spin Energy  =      -1.3604582148547137 [Eh]
	 SCS Correlation Energy    =      -1.4744998333729979 [Eh]
	 SCS Total Energy          =    -346.5074732945150799 [Eh]
	-----------------------------------------------------------

  Dipole Moment: [D]
     X:    -1.4349      Y:    -1.2597      Z:    -0.7432     Total:     2.0490

*** Psi4 exiting successfully. Buy a developer a beer!
