                               Psi4 1.3.2 release

  ==> Input File <==

--------------------------------------------------------------------------
#psi4
#
memory 32 gb

molecule  {
0 1
  O        0.0347972    -0.6504751    -0.2165525
  O        1.4196844     1.0003411     0.6887527
  C       -1.1649080     0.1839100     0.2068510
  C       -1.4179200     1.2632690    -0.8279250
  C       -2.2926420    -0.8179640     0.3227230
  C        1.2071900    -0.0583260     0.1211490
  C        2.3131480    -0.9859210    -0.3056480
  H       -0.9474970     0.6396690     1.1762190
  H       -2.3155240     1.8326500    -0.5690360
  H       -0.5734580     1.9518970    -0.8732450
  H       -1.5650280     0.8097800    -1.8115960
  H       -3.2117410    -0.3160520     0.6373810
  H       -2.0484320    -1.5899530     1.0551950
  H       -2.4714270    -1.2985150    -0.6417240
  H        2.2239110    -1.2047570    -1.3723200
  H        2.2280730    -1.9316170     0.2368100
  H        3.2753640    -0.5218720    -0.0948010
units angstrom
no_reorient  #important for SAPT in psi4, default
symmetry c1  #important for SAPT in psi4, default
}

set PROPERTIES_ORIGIN ["COM"]
properties('MP2/aug-cc-pvtz', properties = ['dipole'])
--------------------------------------------------------------------------

    Molecular point group: c1
  Charge       = 0
  Multiplicity = 1
  Basis Set: AUG-CC-PVTZ
    Blend: AUG-CC-PVTZ
  Basis Set: (AUG-CC-PVTZ AUX)
    Blend: AUG-CC-PVTZ-JKFIT

    Orbital Energies [Eh]
    ---------------------

    Doubly Occupied:

       1A    -20.602321     2A    -20.543196     3A    -11.378646
       4A    -11.300197     5A    -11.230643     6A    -11.225419
       7A    -11.222799     8A     -1.439144     9A     -1.350668
      10A     -1.077746    11A     -0.999515    12A     -0.949342
      13A     -0.826678    14A     -0.768205    15A     -0.688413
      16A     -0.660912    17A     -0.651904    18A     -0.612822
      19A     -0.585055    20A     -0.576024    21A     -0.563852
      22A     -0.551372    23A     -0.532456    24A     -0.512352
      25A     -0.503821    26A     -0.490525    27A     -0.458998
      28A     -0.438840

  @DF-RHF Final Energy:  -345.03403876904918

   => Energetics <=

    Nuclear Repulsion Energy =            319.4264651539041893
    One-Electron Energy =               -1103.4372778858369202
    Two-Electron Energy =                 438.9767739628834988
    Total Energy =                       -345.0340387690491752
  Basis Set: (AUG-CC-PVTZ AUX)
    Blend: AUG-CC-PVTZ-RI
    Molecular point group: c1

    Geometry (in Angstrom), charge = 0, multiplicity = 1:

       Center              X                  Y                   Z               Mass
    ------------   -----------------  -----------------  -----------------  -----------------
         O            0.019565545050    -0.640424725937    -0.211495315294    15.994914619570
         O            1.404452745050     1.010391474063     0.693809884706    15.994914619570
         C           -1.180139654950     0.193960374063     0.211908184706    12.000000000000
         C           -1.433151654950     1.273319374063    -0.822867815294    12.000000000000
         C           -2.307873654950    -0.807913625937     0.327780184706    12.000000000000
         C            1.191958345050    -0.048275625937     0.126206184706    12.000000000000
         C            2.297916345050    -0.975870625937    -0.300590815294    12.000000000000
         H           -0.962728654950     0.649719374063     1.181276184706     1.007825032230
         H           -2.330755654950     1.842700374063    -0.563978815294     1.007825032230
         H           -0.588689654950     1.961947374063    -0.868187815294     1.007825032230
         H           -1.580259654950     0.819830374063    -1.806538815294     1.007825032230
         H           -3.226972654950    -0.306001625937     0.642438184706     1.007825032230
         H           -2.063663654950    -1.579902625937     1.060252184706     1.007825032230
         H           -2.486658654950    -1.288464625937    -0.636666815294     1.007825032230
         H            2.208679345050    -1.194706625937    -1.367262815294     1.007825032230
         H            2.212841345050    -1.921566625937     0.241867184706     1.007825032230
         H            3.260132345050    -0.511821625937    -0.089743815294     1.007825032230

  Basis Set: AUG-CC-PVTZ
    Blend: AUG-CC-PVTZ
  Basis Set: (AUG-CC-PVTZ AUX)
    Blend: AUG-CC-PVTZ-JKFIT
	 Reference Energy          =    -345.0340387690491752 [Eh]
	 Singles Energy            =      -0.0000000000000000 [Eh]
	 Same-Spin Energy          =      -0.3420070762218160 [Eh]
	 Opposite-Spin Energy      =      -1.1343805204789532 [Eh]
	 Correlation Energy        =      -1.4763875967007691 [Eh]
	 Total Energy              =    -346.5104263657499359 [Eh]

	 ================> DF-SCS-MP2 Energies <==================
	-----------------------------------------------------------
	 SCS Same-Spin Scale       =       0.3333333333333333 [-]
	 SCS Opposite-Spin Scale   =       1.2000000000000000 [-]
	 SCS Same-Spin Energy      =      -0.1140023587406053 [Eh]
	 SCS Opposite-Spin Energy  =      -1.3612566245747437 [Eh]
	 SCS Correlation Energy    =      -1.4752589833153491 [Eh]
	 SCS Total Energy          =    -346.5092977523645459 [Eh]
	-----------------------------------------------------------

  Dipole Moment: [D]
     X:    -1.4628      Y:    -1.1662      Z:    -0.6858     Total:     1.9925

*** Psi4 exiting successfully. Buy a developer a beer!
