                               Psi4 1.3.2 release

  ==> Input File <==

--------------------------------------------------------------------------
#psi4
#
memory 32 gb

molecule  {
0 1
  O       -0.0112326    -0.6018758    -0.2091949
  O        1.3565350     1.0092090     0.6922610
  C       -1.1649080     0.1839100     0.2068510
  C       -1.4179200     1.2632690    -0.8279250
  C       -2.2926420    -0.8179640     0.3227230
  C        1.2071900    -0.0583260     0.1211490
  C        2.3131480    -0.9859210    -0.3056480
  H       -0.9647667     0.6477712     1.1760953
  H       -2.3155240     1.8326500    -0.5690360
  H       -0.5734580     1.9518970    -0.8732450
  H       -1.5650280     0.8097800    -1.8115960
  H       -3.2117410    -0.3160520     0.6373810
  H       -2.0484320    -1.5899530     1.0551950
  H       -2.4714270    -1.2985150    -0.6417240
  H        2.2239110    -1.2047570    -1.3723200
  H        2.2280730    -1.9316170     0.2368100
  H        3.2753640    -0.5218720    -0.0948010
units angstrom
no_reorient  #important for SAPT in psi4, default
symmetry c1  #important for SAPT in psi4, default
}

set PROPERTIES_ORIGIN ["COM"]
properties('MP2/aug-cc-pvtz', properties = ['dipole'])
--------------------------------------------------------------------------

    Molecular point group: c1
  Charge       = 0
  Multiplicity = 1
  Basis Set: AUG-CC-PVTZ
    Blend: AUG-CC-PVTZ
  Basis Set: (AUG-CC-PVTZ AUX)
    Blend: AUG-CC-PVTZ-JKFIT

    Orbital Energies [Eh]
    ---------------------

    Doubly Occupied:

       1A    -20.596964     2A    -20.545851     3A    -11.383930
       4A    -11.289469     5A    -11.241213     6A    -11.220148
       7A    -11.215974     8A     -1.444086     9A     -1.351675
      10A     -1.073632    11A     -1.006583    12A     -0.944746
      13A     -0.832615    14A     -0.765979    15A     -0.693178
      16A     -0.663640    17A     -0.652283    18A     -0.610041
      19A     -0.586458    20A     -0.578608    21A     -0.561915
      22A     -0.547550    23A     -0.532953    24A     -0.518172
      25A     -0.502273    26A     -0.482387    27A     -0.453114
      28A     -0.443488

  @DF-RHF Final Energy:  -345.03991663054120

   => Energetics <=

    Nuclear Repulsion Energy =            320.7817167777667464
    One-Electron Energy =               -1106.1654173941328736
    Two-Electron Energy =                 440.3437839858249276
    Total Energy =                       -345.0399166305411995
  Basis Set: (AUG-CC-PVTZ AUX)
    Blend: AUG-CC-PVTZ-RI
    Molecular point group: c1

    Geometry (in Angstrom), charge = 0, multiplicity = 1:

       Center              X                  Y                   Z               Mass
    ------------   -----------------  -----------------  -----------------  -----------------
         O           -0.009184446946    -0.600911014315    -0.205839270526    15.994914619570
         O            1.358583153054     1.010173785685     0.695616629474    15.994914619570
         C           -1.162859846946     0.184874785685     0.210206629474    12.000000000000
         C           -1.415871846946     1.264233785685    -0.824569370526    12.000000000000
         C           -2.290593846946    -0.816999214315     0.326078629474    12.000000000000
         C            1.209238153054    -0.057361214315     0.124504629474    12.000000000000
         C            2.315196153054    -0.984956214315    -0.302292370526    12.000000000000
         H           -0.962718546946     0.648735985685     1.179450929474     1.007825032230
         H           -2.313475846946     1.833614785685    -0.565680370526     1.007825032230
         H           -0.571409846946     1.952861785685    -0.869889370526     1.007825032230
         H           -1.562979846946     0.810744785685    -1.808240370526     1.007825032230
         H           -3.209692846946    -0.315087214315     0.640736629474     1.007825032230
         H           -2.046383846946    -1.588988214315     1.058550629474     1.007825032230
         H           -2.469378846946    -1.297550214315    -0.638368370526     1.007825032230
         H            2.225959153054    -1.203792214315    -1.368964370526     1.007825032230
         H            2.230121153054    -1.930652214315     0.240165629474     1.007825032230
         H            3.277412153054    -0.520907214315    -0.091445370526     1.007825032230

  Basis Set: AUG-CC-PVTZ
    Blend: AUG-CC-PVTZ
  Basis Set: (AUG-CC-PVTZ AUX)
    Blend: AUG-CC-PVTZ-JKFIT
	 Reference Energy          =    -345.0399166305411995 [Eh]
	 Singles Energy            =      -0.0000000000000000 [Eh]
	 Same-Spin Energy          =      -0.3417758791237629 [Eh]
	 Opposite-Spin Energy      =      -1.1331238635036658 [Eh]
	 Correlation Energy        =      -1.4748997426274286 [Eh]
	 Total Energy              =    -346.5148163731686282 [Eh]

	 ================> DF-SCS-MP2 Energies <==================
	-----------------------------------------------------------
	 SCS Same-Spin Scale       =       0.3333333333333333 [-]
	 SCS Opposite-Spin Scale   =       1.2000000000000000 [-]
	 SCS Same-Spin Energy      =      -0.1139252930412543 [Eh]
	 SCS Opposite-Spin Energy  =      -1.3597486362043989 [Eh]
	 SCS Correlation Energy    =      -1.4736739292456531 [Eh]
	 SCS Total Energy          =    -346.5135905597868486 [Eh]
	-----------------------------------------------------------

  Dipole Moment: [D]
     X:    -0.8789      Y:    -1.3378      Z:    -0.6985     Total:     1.7464

*** Psi4 exiting successfully. Buy a developer a beer!
