                               Psi4 1.3.2 release

  ==> Input File <==

--------------------------------------------------------------------------
#psi4
#
memory 32 gb

molecule  {
0 1
  O        0.0007480    -0.5952090    -0.1877880
  O        1.3565350     1.0092090     0.6922610
  C       -1.1494937     0.2016219     0.2165940
  C       -1.4179200     1.2632690    -0.8279250
  C       -2.2926420    -0.8179640     0.3227230
  C        1.1962027    -0.0397501     0.1308674
  C        2.3131480    -0.9859210    -0.3056480
  H       -0.9474970     0.6396690     1.1762190
  H       -2.3155240     1.8326500    -0.5690360
  H       -0.5734580     1.9518970    -0.8732450
  H       -1.5650280     0.8097800    -1.8115960
  H       -3.2117410    -0.3160520     0.6373810
  H       -2.0484320    -1.5899530     1.0551950
  H       -2.4714270    -1.2985150    -0.6417240
  H        2.2239110    -1.2047570    -1.3723200
  H        2.2280730    -1.9316170     0.2368100
  H        3.2753640    -0.5218720    -0.0948010
units angstrom
no_reorient  #important for SAPT in psi4, default
symmetry c1  #important for SAPT in psi4, default
}

set PROPERTIES_ORIGIN ["COM"]
properties('MP2/aug-cc-pvtz', properties = ['dipole'])
--------------------------------------------------------------------------

    Molecular point group: c1
  Charge       = 0
  Multiplicity = 1
  Basis Set: AUG-CC-PVTZ
    Blend: AUG-CC-PVTZ
  Basis Set: (AUG-CC-PVTZ AUX)
    Blend: AUG-CC-PVTZ-JKFIT

    Orbital Energies [Eh]
    ---------------------

    Doubly Occupied:

       1A    -20.597468     2A    -20.544984     3A    -11.379194
       4A    -11.289866     5A    -11.238542     6A    -11.221470
       7A    -11.217494     8A     -1.454474     9A     -1.361381
      10A     -1.072273    11A     -0.999080    12A     -0.944086
      13A     -0.836214    14A     -0.769757    15A     -0.694522
      16A     -0.667102    17A     -0.654950    18A     -0.609421
      19A     -0.585831    20A     -0.575265    21A     -0.563449
      22A     -0.548028    23A     -0.533758    24A     -0.518656
      25A     -0.504061    26A     -0.486515    27A     -0.455326
      28A     -0.441657

  @DF-RHF Final Energy:  -345.04196207984182

   => Energetics <=

    Nuclear Repulsion Energy =            321.3743192577484251
    One-Electron Energy =               -1107.3029208459531674
    Two-Electron Energy =                 440.8866395083629186
    Total Energy =                       -345.0419620798418237
  Basis Set: (AUG-CC-PVTZ AUX)
    Blend: AUG-CC-PVTZ-RI
    Molecular point group: c1

    Geometry (in Angstrom), charge = 0, multiplicity = 1:

       Center              X                  Y                   Z               Mass
    ------------   -----------------  -----------------  -----------------  -----------------
         O            0.000227695695    -0.599475261074    -0.190076280044    15.994914619570
         O            1.356014695695     1.004942738926     0.689972719956    15.994914619570
         C           -1.150014004305     0.197355638926     0.214305719956    12.000000000000
         C           -1.418440304305     1.259002738926    -0.830213280044    12.000000000000
         C           -2.293162304305    -0.822230261074     0.320434719956    12.000000000000
         C            1.195682395695    -0.044016361074     0.128579119956    12.000000000000
         C            2.312627695695    -0.990187261074    -0.307936280044    12.000000000000
         H           -0.948017304305     0.635402738926     1.173930719956     1.007825032230
         H           -2.316044304305     1.828383738926    -0.571324280044     1.007825032230
         H           -0.573978304305     1.947630738926    -0.875533280044     1.007825032230
         H           -1.565548304305     0.805513738926    -1.813884280044     1.007825032230
         H           -3.212261304305    -0.320318261074     0.635092719956     1.007825032230
         H           -2.048952304305    -1.594219261074     1.052906719956     1.007825032230
         H           -2.471947304305    -1.302781261074    -0.644012280044     1.007825032230
         H            2.223390695695    -1.209023261074    -1.374608280044     1.007825032230
         H            2.227552695695    -1.935883261074     0.234521719956     1.007825032230
         H            3.274843695695    -0.526138261074    -0.097089280044     1.007825032230

  Basis Set: AUG-CC-PVTZ
    Blend: AUG-CC-PVTZ
  Basis Set: (AUG-CC-PVTZ AUX)
    Blend: AUG-CC-PVTZ-JKFIT
	 Reference Energy          =    -345.0419620798418237 [Eh]
	 Singles Energy            =      -0.0000000000000000 [Eh]
	 Same-Spin Energy          =      -0.3409293927266723 [Eh]
	 Opposite-Spin Energy      =      -1.1314374327304808 [Eh]
	 Correlation Energy        =      -1.4723668254571531 [Eh]
	 Total Energy              =    -346.5143289052989530 [Eh]

	 ================> DF-SCS-MP2 Energies <==================
	-----------------------------------------------------------
	 SCS Same-Spin Scale       =       0.3333333333333333 [-]
	 SCS Opposite-Spin Scale   =       1.2000000000000000 [-]
	 SCS Same-Spin Energy      =      -0.1136431309088908 [Eh]
	 SCS Opposite-Spin Energy  =      -1.3577249192765770 [Eh]
	 SCS Correlation Energy    =      -1.4713680501854678 [Eh]
	 SCS Total Energy          =    -346.5133301300272706 [Eh]
	-----------------------------------------------------------

  Dipole Moment: [D]
     X:    -1.0105      Y:    -1.2340      Z:    -0.6913     Total:     1.7383

*** Psi4 exiting successfully. Buy a developer a beer!
