                               Psi4 1.3.2 release

  ==> Input File <==

--------------------------------------------------------------------------
#psi4
#
memory 32 gb

molecule  {
0 1
  O        0.0007480    -0.5952090    -0.1877880
  O        1.3565350     1.0092090     0.6922610
  C       -1.1572450     0.1927959     0.2117377
  C       -1.4179200     1.2632690    -0.8279250
  C       -2.2926420    -0.8179640     0.3227230
  C        1.2017421    -0.0490172     0.1260202
  C        2.3131480    -0.9859210    -0.3056480
  H       -0.9474970     0.6396690     1.1762190
  H       -2.3155240     1.8326500    -0.5690360
  H       -0.5734580     1.9518970    -0.8732450
  H       -1.5650280     0.8097800    -1.8115960
  H       -3.2117410    -0.3160520     0.6373810
  H       -2.0484320    -1.5899530     1.0551950
  H       -2.4714270    -1.2985150    -0.6417240
  H        2.2239110    -1.2047570    -1.3723200
  H        2.2280730    -1.9316170     0.2368100
  H        3.2753640    -0.5218720    -0.0948010
units angstrom
no_reorient  #important for SAPT in psi4, default
symmetry c1  #important for SAPT in psi4, default
}

set PROPERTIES_ORIGIN ["COM"]
properties('MP2/aug-cc-pvtz', properties = ['dipole'])
--------------------------------------------------------------------------

    Molecular point group: c1
  Charge       = 0
  Multiplicity = 1
  Basis Set: AUG-CC-PVTZ
    Blend: AUG-CC-PVTZ
  Basis Set: (AUG-CC-PVTZ AUX)
    Blend: AUG-CC-PVTZ-JKFIT

    Orbital Energies [Eh]
    ---------------------

    Doubly Occupied:

       1A    -20.597120     2A    -20.543482     3A    -11.380148
       4A    -11.290237     5A    -11.239399     6A    -11.221415
       7A    -11.217282     8A     -1.451590     9A     -1.355986
      10A     -1.073927    11A     -1.002540    12A     -0.944892
      13A     -0.836612    14A     -0.767487    15A     -0.693196
      16A     -0.666114    17A     -0.654584    18A     -0.610209
      19A     -0.585661    20A     -0.576790    21A     -0.562745
      22A     -0.548196    23A     -0.533944    24A     -0.518355
      25A     -0.502640    26A     -0.484928    27A     -0.454152
      28A     -0.442258

  @DF-RHF Final Energy:  -345.04238855800872

   => Energetics <=

    Nuclear Repulsion Energy =            321.2664166556937744
    One-Electron Energy =               -1107.1058290794740060
    Two-Electron Energy =                 440.7970238657715072
    Total Energy =                       -345.0423885580087244
  Basis Set: (AUG-CC-PVTZ AUX)
    Blend: AUG-CC-PVTZ-RI
    Molecular point group: c1

    Geometry (in Angstrom), charge = 0, multiplicity = 1:

       Center              X                  Y                   Z               Mass
    ------------   -----------------  -----------------  -----------------  -----------------
         O            0.000487745655    -0.597348080854    -0.188935453250    15.994914619570
         O            1.356274745655     1.007069919146     0.691113546750    15.994914619570
         C           -1.157505254345     0.190656819146     0.210590246750    12.000000000000
         C           -1.418180254345     1.261129919146    -0.829072453250    12.000000000000
         C           -2.292902254345    -0.820103080854     0.321575546750    12.000000000000
         C            1.201481845655    -0.051156280854     0.124872746750    12.000000000000
         C            2.312887745655    -0.988060080854    -0.306795453250    12.000000000000
         H           -0.947757254345     0.637529919146     1.175071546750     1.007825032230
         H           -2.315784254345     1.830510919146    -0.570183453250     1.007825032230
         H           -0.573718254345     1.949757919146    -0.874392453250     1.007825032230
         H           -1.565288254345     0.807640919146    -1.812743453250     1.007825032230
         H           -3.212001254345    -0.318191080854     0.636233546750     1.007825032230
         H           -2.048692254345    -1.592092080854     1.054047546750     1.007825032230
         H           -2.471687254345    -1.300654080854    -0.642871453250     1.007825032230
         H            2.223650745655    -1.206896080854    -1.373467453250     1.007825032230
         H            2.227812745655    -1.933756080854     0.235662546750     1.007825032230
         H            3.275103745655    -0.524011080854    -0.095948453250     1.007825032230

  Basis Set: AUG-CC-PVTZ
    Blend: AUG-CC-PVTZ
  Basis Set: (AUG-CC-PVTZ AUX)
    Blend: AUG-CC-PVTZ-JKFIT
	 Reference Energy          =    -345.0423885580087244 [Eh]
	 Singles Energy            =      -0.0000000000000000 [Eh]
	 Same-Spin Energy          =      -0.3411813970923465 [Eh]
	 Opposite-Spin Energy      =      -1.1317962042950724 [Eh]
	 Correlation Energy        =      -1.4729776013874190 [Eh]
	 Total Energy              =    -346.5153661593961374 [Eh]

	 ================> DF-SCS-MP2 Energies <==================
	-----------------------------------------------------------
	 SCS Same-Spin Scale       =       0.3333333333333333 [-]
	 SCS Opposite-Spin Scale   =       1.2000000000000000 [-]
	 SCS Same-Spin Energy      =      -0.1137271323641155 [Eh]
	 SCS Opposite-Spin Energy  =      -1.3581554451540869 [Eh]
	 SCS Correlation Energy    =      -1.4718825775182025 [Eh]
	 SCS Total Energy          =    -346.5142711355269398 [Eh]
	-----------------------------------------------------------

  Dipole Moment: [D]
     X:    -1.0032      Y:    -1.3041      Z:    -0.7208     Total:     1.7963

*** Psi4 exiting successfully. Buy a developer a beer!
