                               Psi4 1.3.2 release

  ==> Input File <==

--------------------------------------------------------------------------
#psi4
#
memory 32 gb

molecule  {
0 1
  O       -0.0046078    -0.5858508    -0.1829094
  O        1.3459656     1.0104030     0.6926937
  C       -1.1649080     0.1839100     0.2068510
  C       -1.4179200     1.2632690    -0.8279250
  C       -2.2926420    -0.8179640     0.3227230
  C        1.2071900    -0.0583260     0.1211490
  C        2.3131480    -0.9859210    -0.3056480
  H       -0.9474970     0.6396690     1.1762190
  H       -2.3155240     1.8326500    -0.5690360
  H       -0.5734580     1.9518970    -0.8732450
  H       -1.5650280     0.8097800    -1.8115960
  H       -3.2117410    -0.3160520     0.6373810
  H       -2.0484320    -1.5899530     1.0551950
  H       -2.4714270    -1.2985150    -0.6417240
  H        2.2239110    -1.2047570    -1.3723200
  H        2.2280730    -1.9316170     0.2368100
  H        3.2753640    -0.5218720    -0.0948010
units angstrom
no_reorient  #important for SAPT in psi4, default
symmetry c1  #important for SAPT in psi4, default
}

set PROPERTIES_ORIGIN ["COM"]
properties('MP2/aug-cc-pvtz', properties = ['dipole'])
--------------------------------------------------------------------------

    Molecular point group: c1
  Charge       = 0
  Multiplicity = 1
  Basis Set: AUG-CC-PVTZ
    Blend: AUG-CC-PVTZ
  Basis Set: (AUG-CC-PVTZ AUX)
    Blend: AUG-CC-PVTZ-JKFIT

    Orbital Energies [Eh]
    ---------------------

    Doubly Occupied:

       1A    -20.595725     2A    -20.541748     3A    -11.381611
       4A    -11.289111     5A    -11.241769     6A    -11.220693
       7A    -11.216162     8A     -1.450763     9A     -1.350411
      10A     -1.075420    11A     -1.007052    12A     -0.945086
      13A     -0.839026    14A     -0.764630    15A     -0.692762
      16A     -0.665943    17A     -0.654710    18A     -0.610873
      19A     -0.586005    20A     -0.578828    21A     -0.561558
      22A     -0.547754    23A     -0.534800    24A     -0.518700
      25A     -0.501348    26A     -0.481315    27A     -0.451847
      28A     -0.442410

  @DF-RHF Final Energy:  -345.04226739672697

   => Energetics <=

    Nuclear Repulsion Energy =            321.4663063447346190
    One-Electron Energy =               -1107.5210269450640226
    Two-Electron Energy =                 441.0124532036023766
    Total Energy =                       -345.0422673967269702
  Basis Set: (AUG-CC-PVTZ AUX)
    Blend: AUG-CC-PVTZ-RI
    Molecular point group: c1

    Geometry (in Angstrom), charge = 0, multiplicity = 1:

       Center              X                  Y                   Z               Mass
    ------------   -----------------  -----------------  -----------------  -----------------
         O           -0.002112017242    -0.587504372924    -0.183741955486    15.994914619570
         O            1.348461382758     1.008749427076     0.691861144514    15.994914619570
         C           -1.162412217242     0.182256427076     0.206018444514    12.000000000000
         C           -1.415424217242     1.261615427076    -0.828757555486    12.000000000000
         C           -2.290146217242    -0.819617572924     0.321890444514    12.000000000000
         C            1.209685782758    -0.059979572924     0.120316444514    12.000000000000
         C            2.315643782758    -0.987574572924    -0.306480555486    12.000000000000
         H           -0.945001217242     0.638015427076     1.175386444514     1.007825032230
         H           -2.313028217242     1.830996427076    -0.569868555486     1.007825032230
         H           -0.570962217242     1.950243427076    -0.874077555486     1.007825032230
         H           -1.562532217242     0.808126427076    -1.812428555486     1.007825032230
         H           -3.209245217242    -0.317705572924     0.636548444514     1.007825032230
         H           -2.045936217242    -1.591606572924     1.054362444514     1.007825032230
         H           -2.468931217242    -1.300168572924    -0.642556555486     1.007825032230
         H            2.226406782758    -1.206410572924    -1.373152555486     1.007825032230
         H            2.230568782758    -1.933270572924     0.235977444514     1.007825032230
         H            3.277859782758    -0.523525572924    -0.095633555486     1.007825032230

  Basis Set: AUG-CC-PVTZ
    Blend: AUG-CC-PVTZ
  Basis Set: (AUG-CC-PVTZ AUX)
    Blend: AUG-CC-PVTZ-JKFIT
	 Reference Energy          =    -345.0422673967269702 [Eh]
	 Singles Energy            =      -0.0000000000000000 [Eh]
	 Same-Spin Energy          =      -0.3414113396929283 [Eh]
	 Opposite-Spin Energy      =      -1.1319210393738632 [Eh]
	 Correlation Energy        =      -1.4733323790667914 [Eh]
	 Total Energy              =    -346.5155997757937598 [Eh]

	 ================> DF-SCS-MP2 Energies <==================
	-----------------------------------------------------------
	 SCS Same-Spin Scale       =       0.3333333333333333 [-]
	 SCS Opposite-Spin Scale   =       1.2000000000000000 [-]
	 SCS Same-Spin Energy      =      -0.1138037798976427 [Eh]
	 SCS Opposite-Spin Energy  =      -1.3583052472486359 [Eh]
	 SCS Correlation Energy    =      -1.4721090271462787 [Eh]
	 SCS Total Energy          =    -346.5143764238732729 [Eh]
	-----------------------------------------------------------

  Dipole Moment: [D]
     X:    -0.9191      Y:    -1.4084      Z:    -0.7610     Total:     1.8459

*** Psi4 exiting successfully. Buy a developer a beer!
