                               Psi4 1.3.2 release

  ==> Input File <==

--------------------------------------------------------------------------
#psi4
#
memory 32 gb

molecule  {
0 1
  O       -0.0020341    -0.6095089    -0.1669552
  O        1.3565350     1.0092090     0.6922610
  C       -1.1649080     0.1839100     0.2068510
  C       -1.4387738     1.2715276    -0.8138732
  C       -2.2926420    -0.8179640     0.3227230
  C        1.2071900    -0.0583260     0.1211490
  C        2.3131480    -0.9859210    -0.3056480
  H       -0.9474970     0.6396690     1.1762190
  H       -2.3155240     1.8326500    -0.5690360
  H       -0.5734580     1.9518970    -0.8732450
  H       -1.5650280     0.8097800    -1.8115960
  H       -3.2117410    -0.3160520     0.6373810
  H       -2.0484320    -1.5899530     1.0551950
  H       -2.4714270    -1.2985150    -0.6417240
  H        2.2239110    -1.2047570    -1.3723200
  H        2.2280730    -1.9316170     0.2368100
  H        3.2753640    -0.5218720    -0.0948010
units angstrom
no_reorient  #important for SAPT in psi4, default
symmetry c1  #important for SAPT in psi4, default
}

set PROPERTIES_ORIGIN ["COM"]
properties('MP2/aug-cc-pvtz', properties = ['dipole'])
--------------------------------------------------------------------------

    Molecular point group: c1
  Charge       = 0
  Multiplicity = 1
  Basis Set: AUG-CC-PVTZ
    Blend: AUG-CC-PVTZ
  Basis Set: (AUG-CC-PVTZ AUX)
    Blend: AUG-CC-PVTZ-JKFIT

    Orbital Energies [Eh]
    ---------------------

    Doubly Occupied:

       1A    -20.597568     2A    -20.543001     3A    -11.381860
       4A    -11.290341     5A    -11.240526     6A    -11.220457
       7A    -11.217787     8A     -1.448176     9A     -1.350877
      10A     -1.075452    11A     -1.006537    12A     -0.945354
      13A     -0.836810    14A     -0.764437    15A     -0.692281
      16A     -0.665185    17A     -0.654951    18A     -0.610168
      19A     -0.588434    20A     -0.578524    21A     -0.560357
      22A     -0.546546    23A     -0.534134    24A     -0.522475
      25A     -0.500639    26A     -0.479945    27A     -0.454155
      28A     -0.442049

  @DF-RHF Final Energy:  -345.04060477943023

   => Energetics <=

    Nuclear Repulsion Energy =            320.9265880465366081
    One-Electron Energy =               -1106.4363357052523043
    Two-Electron Energy =                 440.4691428792854708
    Total Energy =                       -345.0406047794302253
  Basis Set: (AUG-CC-PVTZ AUX)
    Blend: AUG-CC-PVTZ-RI
    Molecular point group: c1

    Geometry (in Angstrom), charge = 0, multiplicity = 1:

       Center              X                  Y                   Z               Mass
    ------------   -----------------  -----------------  -----------------  -----------------
         O            0.000853801801    -0.608238894672    -0.171872153557    15.994914619570
         O            1.359422901801     1.010479005328     0.687344046443    15.994914619570
         C           -1.162020098199     0.185180005328     0.201934046443    12.000000000000
         C           -1.435885898199     1.272797605328    -0.818790153557    12.000000000000
         C           -2.289754098199    -0.816693994672     0.317806046443    12.000000000000
         C            1.210077901801    -0.057055994672     0.116232046443    12.000000000000
         C            2.316035901801    -0.984650994672    -0.310564953557    12.000000000000
         H           -0.944609098199     0.640939005328     1.171302046443     1.007825032230
         H           -2.312636098199     1.833920005328    -0.573952953557     1.007825032230
         H           -0.570570098199     1.953167005328    -0.878161953557     1.007825032230
         H           -1.562140098199     0.811050005328    -1.816512953557     1.007825032230
         H           -3.208853098199    -0.314781994672     0.632464046443     1.007825032230
         H           -2.045544098199    -1.588682994672     1.050278046443     1.007825032230
         H           -2.468539098199    -1.297244994672    -0.646640953557     1.007825032230
         H            2.226798901801    -1.203486994672    -1.377236953557     1.007825032230
         H            2.230960901801    -1.930346994672     0.231893046443     1.007825032230
         H            3.278251901801    -0.520601994672    -0.099717953557     1.007825032230

  Basis Set: AUG-CC-PVTZ
    Blend: AUG-CC-PVTZ
  Basis Set: (AUG-CC-PVTZ AUX)
    Blend: AUG-CC-PVTZ-JKFIT
	 Reference Energy          =    -345.0406047794302253 [Eh]
	 Singles Energy            =      -0.0000000000000000 [Eh]
	 Same-Spin Energy          =      -0.3415341635740775 [Eh]
	 Opposite-Spin Energy      =      -1.1324268228524697 [Eh]
	 Correlation Energy        =      -1.4739609864265470 [Eh]
	 Total Energy              =    -346.5145657658567870 [Eh]

	 ================> DF-SCS-MP2 Energies <==================
	-----------------------------------------------------------
	 SCS Same-Spin Scale       =       0.3333333333333333 [-]
	 SCS Opposite-Spin Scale   =       1.2000000000000000 [-]
	 SCS Same-Spin Energy      =      -0.1138447211913591 [Eh]
	 SCS Opposite-Spin Energy  =      -1.3589121874229635 [Eh]
	 SCS Correlation Energy    =      -1.4727569086143226 [Eh]
	 SCS Total Energy          =    -346.5133616880445402 [Eh]
	-----------------------------------------------------------

  Dipole Moment: [D]
     X:    -0.9626      Y:    -1.3336      Z:    -0.7687     Total:     1.8155

*** Psi4 exiting successfully. Buy a developer a beer!
