                               Psi4 1.3.2 release

  ==> Input File <==

--------------------------------------------------------------------------
#psi4
#
memory 32 gb

molecule  {
0 1
  O        0.0007480    -0.5952090    -0.1877880
  O        1.3565350     1.0092090     0.6922610
  C       -1.2090021     0.1293724     0.1769129
  C       -1.4179200     1.2632690    -0.8279250
  C       -2.2926420    -0.8179640     0.3227230
  C        1.2379342    -0.1150121     0.0914411
  C        2.3131480    -0.9859210    -0.3056480
  H       -0.9474970     0.6396690     1.1762190
  H       -2.3155240     1.8326500    -0.5690360
  H       -0.5734580     1.9518970    -0.8732450
  H       -1.5650280     0.8097800    -1.8115960
  H       -3.2117410    -0.3160520     0.6373810
  H       -2.0484320    -1.5899530     1.0551950
  H       -2.4714270    -1.2985150    -0.6417240
  H        2.2239110    -1.2047570    -1.3723200
  H        2.2280730    -1.9316170     0.2368100
  H        3.2753640    -0.5218720    -0.0948010
units angstrom
no_reorient  #important for SAPT in psi4, default
symmetry c1  #important for SAPT in psi4, default
}

set PROPERTIES_ORIGIN ["COM"]
properties('MP2/aug-cc-pvtz', properties = ['dipole'])
--------------------------------------------------------------------------

    Molecular point group: c1
  Charge       = 0
  Multiplicity = 1
  Basis Set: AUG-CC-PVTZ
    Blend: AUG-CC-PVTZ
  Basis Set: (AUG-CC-PVTZ AUX)
    Blend: AUG-CC-PVTZ-JKFIT

    Orbital Energies [Eh]
    ---------------------

    Doubly Occupied:

       1A    -20.595513     2A    -20.532924     3A    -11.387627
       4A    -11.294391     5A    -11.244065     6A    -11.221003
       7A    -11.216810     8A     -1.437367     9A     -1.315292
      10A     -1.088081    11A     -1.028218    12A     -0.949791
      13A     -0.840784    14A     -0.752663    15A     -0.690095
      16A     -0.661380    17A     -0.654629    18A     -0.617085
      19A     -0.589367    20A     -0.585730    21A     -0.555916
      22A     -0.549190    23A     -0.538036    24A     -0.521318
      25A     -0.497726    26A     -0.462264    27A     -0.442863
      28A     -0.434192

  @DF-RHF Final Energy:  -345.02050349818484

   => Energetics <=

    Nuclear Repulsion Energy =            320.6269008807742011
    One-Electron Energy =               -1105.8861665447664109
    Two-Electron Energy =                 440.2387621658073726
    Total Energy =                       -345.0205034981848371
  Basis Set: (AUG-CC-PVTZ AUX)
    Blend: AUG-CC-PVTZ-RI
    Molecular point group: c1

    Geometry (in Angstrom), charge = 0, multiplicity = 1:

       Center              X                  Y                   Z               Mass
    ------------   -----------------  -----------------  -----------------  -----------------
         O            0.002317700728    -0.582132542297    -0.180775734721    15.994914619570
         O            1.358104700728     1.022285457703     0.699273265279    15.994914619570
         C           -1.207432399272     0.142448857703     0.183925165279    12.000000000000
         C           -1.416350299272     1.276345457703    -0.820912734721    12.000000000000
         C           -2.291072299272    -0.804887542297     0.329735265279    12.000000000000
         C            1.239503900728    -0.101935642297     0.098453365279    12.000000000000
         C            2.314717700728    -0.972844542297    -0.298635734721    12.000000000000
         H           -0.945927299272     0.652745457703     1.183231265279     1.007825032230
         H           -2.313954299272     1.845726457703    -0.562023734721     1.007825032230
         H           -0.571888299272     1.964973457703    -0.866232734721     1.007825032230
         H           -1.563458299272     0.822856457703    -1.804583734721     1.007825032230
         H           -3.210171299272    -0.302975542297     0.644393265279     1.007825032230
         H           -2.046862299272    -1.576876542297     1.062207265279     1.007825032230
         H           -2.469857299272    -1.285438542297    -0.634711734721     1.007825032230
         H            2.225480700728    -1.191680542297    -1.365307734721     1.007825032230
         H            2.229642700728    -1.918540542297     0.243822265279     1.007825032230
         H            3.276933700728    -0.508795542297    -0.087788734721     1.007825032230

  Basis Set: AUG-CC-PVTZ
    Blend: AUG-CC-PVTZ
  Basis Set: (AUG-CC-PVTZ AUX)
    Blend: AUG-CC-PVTZ-JKFIT
	 Reference Energy          =    -345.0205034981848371 [Eh]
	 Singles Energy            =      -0.0000000000000000 [Eh]
	 Same-Spin Energy          =      -0.3437569481158448 [Eh]
	 Opposite-Spin Energy      =      -1.1358348594046226 [Eh]
	 Correlation Energy        =      -1.4795918075204675 [Eh]
	 Total Energy              =    -346.5000953057053152 [Eh]

	 ================> DF-SCS-MP2 Energies <==================
	-----------------------------------------------------------
	 SCS Same-Spin Scale       =       0.3333333333333333 [-]
	 SCS Opposite-Spin Scale   =       1.2000000000000000 [-]
	 SCS Same-Spin Energy      =      -0.1145856493719483 [Eh]
	 SCS Opposite-Spin Energy  =      -1.3630018312855470 [Eh]
	 SCS Correlation Energy    =      -1.4775874806574953 [Eh]
	 SCS Total Energy          =    -346.4980909788423560 [Eh]
	-----------------------------------------------------------

  Dipole Moment: [D]
     X:    -0.9833      Y:    -1.7772      Z:    -0.9209     Total:     2.2301

*** Psi4 exiting successfully. Buy a developer a beer!
