                               Psi4 1.3.2 release

  ==> Input File <==

--------------------------------------------------------------------------
#psi4
#
memory 32 gb

molecule  {
0 1
  O        0.0007480    -0.5952090    -0.1877880
  O        1.3670813     1.0077694     0.6920949
  C       -1.1649080     0.1839100     0.2068510
  C       -1.4179200     1.2632690    -0.8279250
  C       -2.2926420    -0.8179640     0.3227230
  C        1.2071900    -0.0583260     0.1211490
  C        2.3219924    -0.9775435    -0.3007350
  H       -0.9474970     0.6396690     1.1762190
  H       -2.3155240     1.8326500    -0.5690360
  H       -0.5734580     1.9518970    -0.8732450
  H       -1.5650280     0.8097800    -1.8115960
  H       -3.2117410    -0.3160520     0.6373810
  H       -2.0484320    -1.5899530     1.0551950
  H       -2.4714270    -1.2985150    -0.6417240
  H        2.2239110    -1.2047570    -1.3723200
  H        2.2280730    -1.9316170     0.2368100
  H        3.2753640    -0.5218720    -0.0948010
units angstrom
no_reorient  #important for SAPT in psi4, default
symmetry c1  #important for SAPT in psi4, default
}

set PROPERTIES_ORIGIN ["COM"]
properties('MP2/aug-cc-pvtz', properties = ['dipole'])
--------------------------------------------------------------------------

    Molecular point group: c1
  Charge       = 0
  Multiplicity = 1
  Basis Set: AUG-CC-PVTZ
    Blend: AUG-CC-PVTZ
  Basis Set: (AUG-CC-PVTZ AUX)
    Blend: AUG-CC-PVTZ-JKFIT

    Orbital Energies [Eh]
    ---------------------

    Doubly Occupied:

       1A    -20.597677     2A    -20.541638     3A    -11.381005
       4A    -11.291222     5A    -11.239679     6A    -11.221684
       7A    -11.217433     8A     -1.448834     9A     -1.350977
      10A     -1.075745    11A     -1.005657    12A     -0.946016
      13A     -0.837509    14A     -0.765641    15A     -0.691770
      16A     -0.665184    17A     -0.654248    18A     -0.610682
      19A     -0.584527    20A     -0.580791    21A     -0.561962
      22A     -0.548448    23A     -0.534113    24A     -0.519151
      25A     -0.501402    26A     -0.483122    27A     -0.452820
      28A     -0.441952

  @DF-RHF Final Energy:  -345.04181175098444

   => Energetics <=

    Nuclear Repulsion Energy =            321.0375938553266337
    One-Electron Energy =               -1106.6570300454231983
    Two-Electron Energy =                 440.5776244391121850
    Total Energy =                       -345.0418117509844365
  Basis Set: (AUG-CC-PVTZ AUX)
    Blend: AUG-CC-PVTZ-RI
    Molecular point group: c1

    Geometry (in Angstrom), charge = 0, multiplicity = 1:

       Center              X                  Y                   Z               Mass
    ------------   -----------------  -----------------  -----------------  -----------------
         O           -0.001944344467    -0.595968289251    -0.188339815950    15.994914619570
         O            1.364388955533     1.007010110749     0.691543084050    15.994914619570
         C           -1.167600344467     0.183150710749     0.206299184050    12.000000000000
         C           -1.420612344467     1.262509710749    -0.828476815950    12.000000000000
         C           -2.295334344467    -0.818723289251     0.322171184050    12.000000000000
         C            1.204497655533    -0.059085289251     0.120597184050    12.000000000000
         C            2.319300055533    -0.978302789251    -0.301286815950    12.000000000000
         H           -0.950189344467     0.638909710749     1.175667184050     1.007825032230
         H           -2.318216344467     1.831890710749    -0.569587815950     1.007825032230
         H           -0.576150344467     1.951137710749    -0.873796815950     1.007825032230
         H           -1.567720344467     0.809020710749    -1.812147815950     1.007825032230
         H           -3.214433344467    -0.316811289251     0.636829184050     1.007825032230
         H           -2.051124344467    -1.590712289251     1.054643184050     1.007825032230
         H           -2.474119344467    -1.299274289251    -0.642275815950     1.007825032230
         H            2.221218655533    -1.205516289251    -1.372871815950     1.007825032230
         H            2.225380655533    -1.932376289251     0.236258184050     1.007825032230
         H            3.272671655533    -0.522631289251    -0.095352815950     1.007825032230

  Basis Set: AUG-CC-PVTZ
    Blend: AUG-CC-PVTZ
  Basis Set: (AUG-CC-PVTZ AUX)
    Blend: AUG-CC-PVTZ-JKFIT
	 Reference Energy          =    -345.0418117509844365 [Eh]
	 Singles Energy            =      -0.0000000000000000 [Eh]
	 Same-Spin Energy          =      -0.3414117743436864 [Eh]
	 Opposite-Spin Energy      =      -1.1321314213726248 [Eh]
	 Correlation Energy        =      -1.4735431957163112 [Eh]
	 Total Energy              =    -346.5153549467007679 [Eh]

	 ================> DF-SCS-MP2 Energies <==================
	-----------------------------------------------------------
	 SCS Same-Spin Scale       =       0.3333333333333333 [-]
	 SCS Opposite-Spin Scale   =       1.2000000000000000 [-]
	 SCS Same-Spin Energy      =      -0.1138039247812288 [Eh]
	 SCS Opposite-Spin Energy  =      -1.3585577056471496 [Eh]
	 SCS Correlation Energy    =      -1.4723616304283784 [Eh]
	 SCS Total Energy          =    -346.5141733814128315 [Eh]
	-----------------------------------------------------------

  Dipole Moment: [D]
     X:    -1.0302      Y:    -1.3669      Z:    -0.7490     Total:     1.8684

*** Psi4 exiting successfully. Buy a developer a beer!
