                               Psi4 1.3.2 release

  ==> Input File <==

--------------------------------------------------------------------------
#psi4
#
memory 32 gb

molecule  {
0 1
  O        0.0007480    -0.5952090    -0.1877880
  O        1.3776155     1.0062486     0.6918853
  C       -1.1649080     0.1839100     0.2068510
  C       -1.4179200     1.2632690    -0.8279250
  C       -2.2926420    -0.8179640     0.3227230
  C        1.2071900    -0.0583260     0.1211490
  C        2.3307519    -0.9690960    -0.2957898
  H       -0.9474970     0.6396690     1.1762190
  H       -2.3155240     1.8326500    -0.5690360
  H       -0.5734580     1.9518970    -0.8732450
  H       -1.5650280     0.8097800    -1.8115960
  H       -3.2117410    -0.3160520     0.6373810
  H       -2.0484320    -1.5899530     1.0551950
  H       -2.4714270    -1.2985150    -0.6417240
  H        2.2239110    -1.2047570    -1.3723200
  H        2.2280730    -1.9316170     0.2368100
  H        3.2753640    -0.5218720    -0.0948010
units angstrom
no_reorient  #important for SAPT in psi4, default
symmetry c1  #important for SAPT in psi4, default
}

set PROPERTIES_ORIGIN ["COM"]
properties('MP2/aug-cc-pvtz', properties = ['dipole'])
--------------------------------------------------------------------------

    Molecular point group: c1
  Charge       = 0
  Multiplicity = 1
  Basis Set: AUG-CC-PVTZ
    Blend: AUG-CC-PVTZ
  Basis Set: (AUG-CC-PVTZ AUX)
    Blend: AUG-CC-PVTZ-JKFIT

    Orbital Energies [Eh]
    ---------------------

    Doubly Occupied:

       1A    -20.598557     2A    -20.541292     3A    -11.380897
       4A    -11.291781     5A    -11.239216     6A    -11.222011
       7A    -11.217763     8A     -1.448735     9A     -1.351522
      10A     -1.075832    11A     -1.005276    12A     -0.946360
      13A     -0.837984    14A     -0.766067    15A     -0.691467
      16A     -0.665260    17A     -0.654246    18A     -0.610353
      19A     -0.585124    20A     -0.581772    21A     -0.561878
      22A     -0.548544    23A     -0.533868    24A     -0.519923
      25A     -0.501094    26A     -0.483464    27A     -0.452949
      28A     -0.441377

  @DF-RHF Final Energy:  -345.04121126689159

   => Energetics <=

    Nuclear Repulsion Energy =            320.9161263994670321
    One-Electron Energy =               -1106.4054583544059369
    Two-Electron Energy =                 440.4481206880473678
    Total Energy =                       -345.0412112668915938
  Basis Set: (AUG-CC-PVTZ AUX)
    Blend: AUG-CC-PVTZ-RI
    Molecular point group: c1

    Geometry (in Angstrom), charge = 0, multiplicity = 1:

       Center              X                  Y                   Z               Mass
    ------------   -----------------  -----------------  -----------------  -----------------
         O           -0.004624983025    -0.596723127925    -0.188888370073    15.994914619570
         O            1.372242516975     1.004734472075     0.690784929927    15.994914619570
         C           -1.170280983025     0.182395872075     0.205750629927    12.000000000000
         C           -1.423292983025     1.261754872075    -0.829025370073    12.000000000000
         C           -2.298014983025    -0.819478127925     0.321622629927    12.000000000000
         C            1.201817016975    -0.059840127925     0.120048629927    12.000000000000
         C            2.325378916975    -0.970610127925    -0.296890170073    12.000000000000
         H           -0.952869983025     0.638154872075     1.175118629927     1.007825032230
         H           -2.320896983025     1.831135872075    -0.570136370073     1.007825032230
         H           -0.578830983025     1.950382872075    -0.874345370073     1.007825032230
         H           -1.570400983025     0.808265872075    -1.812696370073     1.007825032230
         H           -3.217113983025    -0.317566127925     0.636280629927     1.007825032230
         H           -2.053804983025    -1.591467127925     1.054094629927     1.007825032230
         H           -2.476799983025    -1.300029127925    -0.642824370073     1.007825032230
         H            2.218538016975    -1.206271127925    -1.373420370073     1.007825032230
         H            2.222700016975    -1.933131127925     0.235709629927     1.007825032230
         H            3.269991016975    -0.523386127925    -0.095901370073     1.007825032230

  Basis Set: AUG-CC-PVTZ
    Blend: AUG-CC-PVTZ
  Basis Set: (AUG-CC-PVTZ AUX)
    Blend: AUG-CC-PVTZ-JKFIT
	 Reference Energy          =    -345.0412112668915938 [Eh]
	 Singles Energy            =      -0.0000000000000000 [Eh]
	 Same-Spin Energy          =      -0.3413705194732170 [Eh]
	 Opposite-Spin Energy      =      -1.1320787915298181 [Eh]
	 Correlation Energy        =      -1.4734493110030351 [Eh]
	 Total Energy              =    -346.5146605778946309 [Eh]

	 ================> DF-SCS-MP2 Energies <==================
	-----------------------------------------------------------
	 SCS Same-Spin Scale       =       0.3333333333333333 [-]
	 SCS Opposite-Spin Scale   =       1.2000000000000000 [-]
	 SCS Same-Spin Energy      =      -0.1137901731577390 [Eh]
	 SCS Opposite-Spin Energy  =      -1.3584945498357817 [Eh]
	 SCS Correlation Energy    =      -1.4722847229935208 [Eh]
	 SCS Total Energy          =    -346.5134959898850866 [Eh]
	-----------------------------------------------------------

  Dipole Moment: [D]
     X:    -1.0640      Y:    -1.3599      Z:    -0.7478     Total:     1.8817

*** Psi4 exiting successfully. Buy a developer a beer!
