                               Psi4 1.3.2 release

  ==> Input File <==

--------------------------------------------------------------------------
#psi4
#
memory 32 gb

molecule  {
0 1
  O        0.0414120    -0.5307004    -0.1876670
  O        1.3565350     1.0092090     0.6922610
  C       -1.1649080     0.1839100     0.2068510
  C       -1.4179200     1.2632690    -0.8279250
  C       -2.3406842    -0.7583932     0.3431473
  C        1.2071900    -0.0583260     0.1211490
  C        2.3131480    -0.9859210    -0.3056480
  H       -0.9474970     0.6396690     1.1762190
  H       -2.3155240     1.8326500    -0.5690360
  H       -0.5734580     1.9518970    -0.8732450
  H       -1.5650280     0.8097800    -1.8115960
  H       -3.2117410    -0.3160520     0.6373810
  H       -2.0484320    -1.5899530     1.0551950
  H       -2.4714270    -1.2985150    -0.6417240
  H        2.2239110    -1.2047570    -1.3723200
  H        2.2280730    -1.9316170     0.2368100
  H        3.2753640    -0.5218720    -0.0948010
units angstrom
no_reorient  #important for SAPT in psi4, default
symmetry c1  #important for SAPT in psi4, default
}

set PROPERTIES_ORIGIN ["COM"]
properties('MP2/aug-cc-pvtz', properties = ['dipole'])
--------------------------------------------------------------------------

    Molecular point group: c1
  Charge       = 0
  Multiplicity = 1
  Basis Set: AUG-CC-PVTZ
    Blend: AUG-CC-PVTZ
  Basis Set: (AUG-CC-PVTZ AUX)
    Blend: AUG-CC-PVTZ-JKFIT

    Orbital Energies [Eh]
    ---------------------

    Doubly Occupied:

       1A    -20.599390     2A    -20.528615     3A    -11.372904
       4A    -11.296216     5A    -11.237824     6A    -11.227682
       7A    -11.217540     8A     -1.470281     9A     -1.344877
      10A     -1.084157    11A     -1.005953    12A     -0.947104
      13A     -0.854093    14A     -0.765589    15A     -0.689279
      16A     -0.674378    17A     -0.659833    18A     -0.609611
      19A     -0.593606    20A     -0.582459    21A     -0.566884
      22A     -0.549087    23A     -0.540104    24A     -0.516714
      25A     -0.492572    26A     -0.478221    27A     -0.447190
      28A     -0.439262

  @DF-RHF Final Energy:  -345.03474197163206

   => Energetics <=

    Nuclear Repulsion Energy =            322.3229804299165835
    One-Electron Energy =               -1109.1325907479829311
    Two-Electron Energy =                 441.7748683464342889
    Total Energy =                       -345.0347419716320587
  Basis Set: (AUG-CC-PVTZ AUX)
    Blend: AUG-CC-PVTZ-RI
    Molecular point group: c1

    Geometry (in Angstrom), charge = 0, multiplicity = 1:

       Center              X                  Y                   Z               Mass
    ------------   -----------------  -----------------  -----------------  -----------------
         O            0.040688039389    -0.547813043164    -0.190087448541    15.994914619570
         O            1.355811039389     0.992096356836     0.689840551459    15.994914619570
         C           -1.165631960611     0.166797356836     0.204430551459    12.000000000000
         C           -1.418643960611     1.246156356836    -0.830345448541    12.000000000000
         C           -2.341408160611    -0.775505843164     0.340726851459    12.000000000000
         C            1.206466039389    -0.075438643164     0.118728551459    12.000000000000
         C            2.312424039389    -1.003033643164    -0.308068448541    12.000000000000
         H           -0.948220960611     0.622556356836     1.173798551459     1.007825032230
         H           -2.316247960611     1.815537356836    -0.571456448541     1.007825032230
         H           -0.574181960611     1.934784356836    -0.875665448541     1.007825032230
         H           -1.565751960611     0.792667356836    -1.814016448541     1.007825032230
         H           -3.212464960611    -0.333164643164     0.634960551459     1.007825032230
         H           -2.049155960611    -1.607065643164     1.052774551459     1.007825032230
         H           -2.472150960611    -1.315627643164    -0.644144448541     1.007825032230
         H            2.223187039389    -1.221869643164    -1.374740448541     1.007825032230
         H            2.227349039389    -1.948729643164     0.234389551459     1.007825032230
         H            3.274640039389    -0.538984643164    -0.097221448541     1.007825032230

  Basis Set: AUG-CC-PVTZ
    Blend: AUG-CC-PVTZ
  Basis Set: (AUG-CC-PVTZ AUX)
    Blend: AUG-CC-PVTZ-JKFIT
	 Reference Energy          =    -345.0347419716320587 [Eh]
	 Singles Energy            =      -0.0000000000000000 [Eh]
	 Same-Spin Energy          =      -0.3405931625914437 [Eh]
	 Opposite-Spin Energy      =      -1.1297352867588086 [Eh]
	 Correlation Energy        =      -1.4703284493502524 [Eh]
	 Total Energy              =    -346.5050704209822925 [Eh]

	 ================> DF-SCS-MP2 Energies <==================
	-----------------------------------------------------------
	 SCS Same-Spin Scale       =       0.3333333333333333 [-]
	 SCS Opposite-Spin Scale   =       1.2000000000000000 [-]
	 SCS Same-Spin Energy      =      -0.1135310541971479 [Eh]
	 SCS Opposite-Spin Energy  =      -1.3556823441105703 [Eh]
	 SCS Correlation Energy    =      -1.4692133983077182 [Eh]
	 SCS Total Energy          =    -346.5039553699397743 [Eh]
	-----------------------------------------------------------

  Dipole Moment: [D]
     X:    -1.3725      Y:    -1.5624      Z:    -0.8050     Total:     2.2300

*** Psi4 exiting successfully. Buy a developer a beer!
