                               Psi4 1.3.2 release

  ==> Input File <==

--------------------------------------------------------------------------
#psi4
#
memory 32 gb

molecule  {
0 1
  O        0.0007480    -0.5952090    -0.1877880
  O        1.3565350     1.0092090     0.6922610
  C       -1.3249658     0.2908919     0.2610394
  C       -1.4179200     1.2632690    -0.8279250
  C       -2.2926420    -0.8179640     0.3227230
  C        1.2071900    -0.0583260     0.1211490
  C        2.3131480    -0.9859210    -0.3056480
  H       -0.9474970     0.6396690     1.1762190
  H       -2.3155240     1.8326500    -0.5690360
  H       -0.5734580     1.9518970    -0.8732450
  H       -1.5650280     0.8097800    -1.8115960
  H       -3.2117410    -0.3160520     0.6373810
  H       -2.0484320    -1.5899530     1.0551950
  H       -2.4714270    -1.2985150    -0.6417240
  H        2.2239110    -1.2047570    -1.3723200
  H        2.2280730    -1.9316170     0.2368100
  H        3.2753640    -0.5218720    -0.0948010
units angstrom
no_reorient  #important for SAPT in psi4, default
symmetry c1  #important for SAPT in psi4, default
}

set PROPERTIES_ORIGIN ["COM"]
properties('MP2/aug-cc-pvtz', properties = ['dipole'])
--------------------------------------------------------------------------

    Molecular point group: c1
  Charge       = 0
  Multiplicity = 1
  Basis Set: AUG-CC-PVTZ
    Blend: AUG-CC-PVTZ
  Basis Set: (AUG-CC-PVTZ AUX)
    Blend: AUG-CC-PVTZ-JKFIT

    Orbital Energies [Eh]
    ---------------------

    Doubly Occupied:

       1A    -20.565057     2A    -20.526564     3A    -11.363771
       4A    -11.305490     5A    -11.231046     6A    -11.228785
       7A    -11.226449     8A     -1.411801     9A     -1.316393
      10A     -1.094988    11A     -0.995812    12A     -0.964310
      13A     -0.821067    14A     -0.753218    15A     -0.678251
      16A     -0.650180    17A     -0.640324    18A     -0.618370
      19A     -0.587887    20A     -0.579916    21A     -0.563216
      22A     -0.551581    23A     -0.532571    24A     -0.519158
      25A     -0.507359    26A     -0.468304    27A     -0.442302
      28A     -0.427155

  @DF-RHF Final Energy:  -345.01306979341018

   => Energetics <=

    Nuclear Repulsion Energy =            318.9024890027311585
    One-Electron Energy =               -1102.6884690340027646
    Two-Electron Energy =                 438.7729102378614243
    Total Energy =                       -345.0130697934101818
  Basis Set: (AUG-CC-PVTZ AUX)
    Blend: AUG-CC-PVTZ-RI
    Molecular point group: c1

    Geometry (in Angstrom), charge = 0, multiplicity = 1:

       Center              X                  Y                   Z               Mass
    ------------   -----------------  -----------------  -----------------  -----------------
         O            0.019565941388    -0.607786666595    -0.194159084402    15.994914619570
         O            1.375352941388     0.996631333405     0.685889915598    15.994914619570
         C           -1.306147858612     0.278314233405     0.254668315598    12.000000000000
         C           -1.399102058612     1.250691333405    -0.834296084402    12.000000000000
         C           -2.273824058612    -0.830541666595     0.316351915598    12.000000000000
         C            1.226007941388    -0.070903666595     0.114777915598    12.000000000000
         C            2.331965941388    -0.998498666595    -0.312019084402    12.000000000000
         H           -0.928679058612     0.627091333405     1.169847915598     1.007825032230
         H           -2.296706058612     1.820072333405    -0.575407084402     1.007825032230
         H           -0.554640058612     1.939319333405    -0.879616084402     1.007825032230
         H           -1.546210058612     0.797202333405    -1.817967084402     1.007825032230
         H           -3.192923058612    -0.328629666595     0.631009915598     1.007825032230
         H           -2.029614058612    -1.602530666595     1.048823915598     1.007825032230
         H           -2.452609058612    -1.311092666595    -0.648095084402     1.007825032230
         H            2.242728941388    -1.217334666595    -1.378691084402     1.007825032230
         H            2.246890941388    -1.944194666595     0.230438915598     1.007825032230
         H            3.294181941388    -0.534449666595    -0.101172084402     1.007825032230

  Basis Set: AUG-CC-PVTZ
    Blend: AUG-CC-PVTZ
  Basis Set: (AUG-CC-PVTZ AUX)
    Blend: AUG-CC-PVTZ-JKFIT
	 Reference Energy          =    -345.0130697934101818 [Eh]
	 Singles Energy            =      -0.0000000000000000 [Eh]
	 Same-Spin Energy          =      -0.3431597173043731 [Eh]
	 Opposite-Spin Energy      =      -1.1355668766934497 [Eh]
	 Correlation Energy        =      -1.4787265939978229 [Eh]
	 Total Energy              =    -346.4917963874079874 [Eh]

	 ================> DF-SCS-MP2 Energies <==================
	-----------------------------------------------------------
	 SCS Same-Spin Scale       =       0.3333333333333333 [-]
	 SCS Opposite-Spin Scale   =       1.2000000000000000 [-]
	 SCS Same-Spin Energy      =      -0.1143865724347910 [Eh]
	 SCS Opposite-Spin Energy  =      -1.3626802520321395 [Eh]
	 SCS Correlation Energy    =      -1.4770668244669305 [Eh]
	 SCS Total Energy          =    -346.4901366178771127 [Eh]
	-----------------------------------------------------------

  Dipole Moment: [D]
     X:    -1.8850      Y:    -1.1426      Z:    -0.7399     Total:     2.3251

*** Psi4 exiting successfully. Buy a developer a beer!
