                               Psi4 1.3.2 release

  ==> Input File <==

--------------------------------------------------------------------------
#psi4
#
memory 32 gb

molecule  {
0 1
  O        0.0117189    -0.6141122    -0.1968734
  O        1.3565350     1.0092090     0.6922610
  C       -1.1649080     0.1839100     0.2068510
  C       -1.4179200     1.2632690    -0.8279250
  C       -2.2926420    -0.8179640     0.3227230
  C        1.2071900    -0.0583260     0.1211490
  C        2.2951768    -1.0028120    -0.3146975
  H       -0.9474970     0.6396690     1.1762190
  H       -2.3155240     1.8326500    -0.5690360
  H       -0.5734580     1.9518970    -0.8732450
  H       -1.5650280     0.8097800    -1.8115960
  H       -3.2117410    -0.3160520     0.6373810
  H       -2.0484320    -1.5899530     1.0551950
  H       -2.4714270    -1.2985150    -0.6417240
  H        2.2239110    -1.2047570    -1.3723200
  H        2.2280730    -1.9316170     0.2368100
  H        3.2753640    -0.5218720    -0.0948010
units angstrom
no_reorient  #important for SAPT in psi4, default
symmetry c1  #important for SAPT in psi4, default
}

set PROPERTIES_ORIGIN ["COM"]
properties('MP2/aug-cc-pvtz', properties = ['dipole'])
--------------------------------------------------------------------------

    Molecular point group: c1
  Charge       = 0
  Multiplicity = 1
  Basis Set: AUG-CC-PVTZ
    Blend: AUG-CC-PVTZ
  Basis Set: (AUG-CC-PVTZ AUX)
    Blend: AUG-CC-PVTZ-JKFIT

    Orbital Energies [Eh]
    ---------------------

    Doubly Occupied:

       1A    -20.597161     2A    -20.543165     3A    -11.380610
       4A    -11.292719     5A    -11.238299     6A    -11.222063
       7A    -11.218391     8A     -1.445848     9A     -1.349507
      10A     -1.076122    11A     -1.004867    12A     -0.946222
      13A     -0.832608    14A     -0.765651    15A     -0.691400
      16A     -0.664086    17A     -0.653922    18A     -0.612321
      19A     -0.587581    20A     -0.573556    21A     -0.561607
      22A     -0.549322    23A     -0.533923    24A     -0.514223
      25A     -0.502546    26A     -0.484840    27A     -0.454455
      28A     -0.442990

  @DF-RHF Final Energy:  -345.03937674219856

   => Energetics <=

    Nuclear Repulsion Energy =            320.8181596629196974
    One-Electron Energy =               -1106.2350604309328901
    Two-Electron Energy =                 440.3775240258146368
    Total Energy =                       -345.0393767421985558
  Basis Set: (AUG-CC-PVTZ AUX)
    Blend: AUG-CC-PVTZ-RI
    Molecular point group: c1

    Geometry (in Angstrom), charge = 0, multiplicity = 1:

       Center              X                  Y                   Z               Mass
    ------------   -----------------  -----------------  -----------------  -----------------
         O            0.012112689422    -0.609164016420    -0.194385936253    15.994914619570
         O            1.356928789422     1.014157183580     0.694748463747    15.994914619570
         C           -1.164514210578     0.188858183580     0.209338463747    12.000000000000
         C           -1.417526210578     1.268217183580    -0.825437536253    12.000000000000
         C           -2.292248210578    -0.813015816420     0.325210463747    12.000000000000
         C            1.207583789422    -0.053377816420     0.123636463747    12.000000000000
         C            2.295570589422    -0.997863816420    -0.312210036253    12.000000000000
         H           -0.947103210578     0.644617183580     1.178706463747     1.007825032230
         H           -2.315130210578     1.837598183580    -0.566548536253     1.007825032230
         H           -0.573064210578     1.956845183580    -0.870757536253     1.007825032230
         H           -1.564634210578     0.814728183580    -1.809108536253     1.007825032230
         H           -3.211347210578    -0.311103816420     0.639868463747     1.007825032230
         H           -2.048038210578    -1.585004816420     1.057682463747     1.007825032230
         H           -2.471033210578    -1.293566816420    -0.639236536253     1.007825032230
         H            2.224304789422    -1.199808816420    -1.369832536253     1.007825032230
         H            2.228466789422    -1.926668816420     0.239297463747     1.007825032230
         H            3.275757789422    -0.516923816420    -0.092313536253     1.007825032230

  Basis Set: AUG-CC-PVTZ
    Blend: AUG-CC-PVTZ
  Basis Set: (AUG-CC-PVTZ AUX)
    Blend: AUG-CC-PVTZ-JKFIT
	 Reference Energy          =    -345.0393767421985558 [Eh]
	 Singles Energy            =      -0.0000000000000000 [Eh]
	 Same-Spin Energy          =      -0.3417247746728493 [Eh]
	 Opposite-Spin Energy      =      -1.1330741834921669 [Eh]
	 Correlation Energy        =      -1.4747989581650163 [Eh]
	 Total Energy              =    -346.5141757003635803 [Eh]

	 ================> DF-SCS-MP2 Energies <==================
	-----------------------------------------------------------
	 SCS Same-Spin Scale       =       0.3333333333333333 [-]
	 SCS Opposite-Spin Scale   =       1.2000000000000000 [-]
	 SCS Same-Spin Energy      =      -0.1139082582242831 [Eh]
	 SCS Opposite-Spin Energy  =      -1.3596890201906002 [Eh]
	 SCS Correlation Energy    =      -1.4735972784148834 [Eh]
	 SCS Total Energy          =    -346.5129740206134557 [Eh]
	-----------------------------------------------------------

  Dipole Moment: [D]
     X:    -1.0896      Y:    -1.3158      Z:    -0.7313     Total:     1.8583

*** Psi4 exiting successfully. Buy a developer a beer!
