                               Psi4 1.3.2 release

  ==> Input File <==

--------------------------------------------------------------------------
#psi4
#
memory 32 gb

molecule  {
0 1
  O        0.0007480    -0.5952090    -0.1877880
  O        1.3565350     1.0092090     0.6922610
  C       -1.1649080     0.1839100     0.2068510
  C       -1.4179200     1.2632690    -0.8279250
  C       -2.2926420    -0.8179640     0.3227230
  C        1.2117495    -0.0491838     0.1128922
  C        2.3131480    -0.9859210    -0.3056480
  H       -0.9474970     0.6396690     1.1762190
  H       -2.3155240     1.8326500    -0.5690360
  H       -0.5734580     1.9518970    -0.8732450
  H       -1.5650280     0.8097800    -1.8115960
  H       -3.2117410    -0.3160520     0.6373810
  H       -2.0484320    -1.5899530     1.0551950
  H       -2.4714270    -1.2985150    -0.6417240
  H        2.2239110    -1.2047570    -1.3723200
  H        2.2357821    -1.9348873     0.2322338
  H        3.2753640    -0.5218720    -0.0948010
units angstrom
no_reorient  #important for SAPT in psi4, default
symmetry c1  #important for SAPT in psi4, default
}

set PROPERTIES_ORIGIN ["COM"]
properties('MP2/aug-cc-pvtz', properties = ['dipole'])
--------------------------------------------------------------------------

    Molecular point group: c1
  Charge       = 0
  Multiplicity = 1
  Basis Set: AUG-CC-PVTZ
    Blend: AUG-CC-PVTZ
  Basis Set: (AUG-CC-PVTZ AUX)
    Blend: AUG-CC-PVTZ-JKFIT

    Orbital Energies [Eh]
    ---------------------

    Doubly Occupied:

       1A    -20.595387     2A    -20.543439     3A    -11.381205
       4A    -11.289989     5A    -11.240320     6A    -11.220938
       7A    -11.216863     8A     -1.448026     9A     -1.352327
      10A     -1.074762    11A     -1.006012    12A     -0.945331
      13A     -0.835834    14A     -0.764471    15A     -0.693155
      16A     -0.664758    17A     -0.654039    18A     -0.611312
      19A     -0.585618    20A     -0.578048    21A     -0.561885
      22A     -0.547987    23A     -0.534214    24A     -0.517730
      25A     -0.502138    26A     -0.482572    27A     -0.453077
      28A     -0.442986

  @DF-RHF Final Energy:  -345.04179725691006

   => Energetics <=

    Nuclear Repulsion Energy =            321.1246996969662746
    One-Electron Energy =               -1106.8441464319480474
    Two-Electron Energy =                 440.6776494780717712
    Total Energy =                       -345.0417972569100584
  Basis Set: (AUG-CC-PVTZ AUX)
    Blend: AUG-CC-PVTZ-RI
    Molecular point group: c1

    Geometry (in Angstrom), charge = 0, multiplicity = 1:

       Center              X                  Y                   Z               Mass
    ------------   -----------------  -----------------  -----------------  -----------------
         O            0.000135997840    -0.596251500114    -0.186772304792    15.994914619570
         O            1.355922997840     1.008166499886     0.693276695208    15.994914619570
         C           -1.165520002160     0.182867499886     0.207866695208    12.000000000000
         C           -1.418532002160     1.262226499886    -0.826909304792    12.000000000000
         C           -2.293254002160    -0.819006500114     0.323738695208    12.000000000000
         C            1.211137497840    -0.050226300114     0.113907895208    12.000000000000
         C            2.312535997840    -0.986963500114    -0.304632304792    12.000000000000
         H           -0.948109002160     0.638626499886     1.177234695208     1.007825032230
         H           -2.316136002160     1.831607499886    -0.568020304792     1.007825032230
         H           -0.574070002160     1.950854499886    -0.872229304792     1.007825032230
         H           -1.565640002160     0.808737499886    -1.810580304792     1.007825032230
         H           -3.212353002160    -0.317094500114     0.638396695208     1.007825032230
         H           -2.049044002160    -1.590995500114     1.056210695208     1.007825032230
         H           -2.472039002160    -1.299557500114    -0.640708304792     1.007825032230
         H            2.223298997840    -1.205799500114    -1.371304304792     1.007825032230
         H            2.235170097840    -1.935929800114     0.233249495208     1.007825032230
         H            3.274751997840    -0.522914500114    -0.093785304792     1.007825032230

  Basis Set: AUG-CC-PVTZ
    Blend: AUG-CC-PVTZ
  Basis Set: (AUG-CC-PVTZ AUX)
    Blend: AUG-CC-PVTZ-JKFIT
	 Reference Energy          =    -345.0417972569100584 [Eh]
	 Singles Energy            =      -0.0000000000000000 [Eh]
	 Same-Spin Energy          =      -0.3414411241039217 [Eh]
	 Opposite-Spin Energy      =      -1.1321963301890492 [Eh]
	 Correlation Energy        =      -1.4736374542929709 [Eh]
	 Total Energy              =    -346.5154347112030564 [Eh]

	 ================> DF-SCS-MP2 Energies <==================
	-----------------------------------------------------------
	 SCS Same-Spin Scale       =       0.3333333333333333 [-]
	 SCS Opposite-Spin Scale   =       1.2000000000000000 [-]
	 SCS Same-Spin Energy      =      -0.1138137080346406 [Eh]
	 SCS Opposite-Spin Energy  =      -1.3586355962268590 [Eh]
	 SCS Correlation Energy    =      -1.4724493042614997 [Eh]
	 SCS Total Energy          =    -346.5142465611715465 [Eh]
	-----------------------------------------------------------

  Dipole Moment: [D]
     X:    -0.9489      Y:    -1.3470      Z:    -0.7430     Total:     1.8074

*** Psi4 exiting successfully. Buy a developer a beer!
