                               Psi4 1.4a3.dev225

  ==> Input File <==

--------------------------------------------------------------------------
#psi4
#
memory 32 gb

molecule  {
0 1
  O       -0.1077990    -0.5624470     0.2079430
  O       -1.3021290     1.1073090    -0.7840490
  C        1.1279890     0.0542050    -0.2592580
  C        1.5159640     1.1744160     0.6880040
  C        2.1417370    -1.0702820    -0.3128090
  C       -1.2987555     0.1015481    -0.1423861
  C       -2.4469700    -0.6645530     0.4162300
  H        0.9393410     0.4580410    -1.2580840
  H        2.4644540     1.6220060     0.3756670
  H        0.7505430     1.9525630     0.6895830
  H        1.6331200     0.7804540     1.7015330
  H        3.1019190    -0.6925110    -0.6758780
  H        1.8018300    -1.8630990    -0.9832080
  H        2.2880710    -1.4948000     0.6840490
  H       -2.3821170    -0.7144520     1.5057940
  H       -2.4521220    -1.6889170     0.0368310
  H       -3.3591990    -0.1487030     0.1192220
units angstrom
no_reorient  #important for SAPT in psi4, default
symmetry c1  #important for SAPT in psi4, default
}

set PROPERTIES_ORIGIN ["COM"]
properties('MP2/aug-cc-pvtz', properties = ['dipole'])
--------------------------------------------------------------------------

    Molecular point group: c1
  Charge       = 0
  Multiplicity = 1
  Basis Set: AUG-CC-PVTZ
    Blend: AUG-CC-PVTZ
  Basis Set: (AUG-CC-PVTZ AUX)
    Blend: AUG-CC-PVTZ-JKFIT

    Orbital Energies [Eh]
    ---------------------

    Doubly Occupied:

       1A    -20.584213     2A    -20.551908     3A    -11.382032
       4A    -11.285299     5A    -11.242773     6A    -11.218031
       7A    -11.214328     8A     -1.443791     9A     -1.353646
      10A     -1.068933    11A     -1.011186    12A     -0.941457
      13A     -0.825741    14A     -0.759093    15A     -0.698201
      16A     -0.662331    17A     -0.650213    18A     -0.612165
      19A     -0.589959    20A     -0.577699    21A     -0.560753
      22A     -0.544616    23A     -0.532003    24A     -0.514540
      25A     -0.505180    26A     -0.480147    27A     -0.452418
      28A     -0.443191

  @DF-RHF Final Energy:  -345.03902610135356

   => Energetics <=

    Nuclear Repulsion Energy =            320.5671141282477379
    One-Electron Energy =               -1105.8005832805952195
    Two-Electron Energy =                 440.1944430509938684
    Total Energy =                       -345.0390261013535564
  Basis Set: (AUG-CC-PVTZ AUX)
    Blend: AUG-CC-PVTZ-RI
    Molecular point group: c1

    Geometry (in Angstrom), charge = 0, multiplicity = 1:

       Center              X                  Y                   Z               Mass
    ------------   -----------------  -----------------  -----------------  -----------------
         O           -0.056374356272    -0.582586598244     0.230719038925    15.994914619570
         O           -1.250704356272     1.087169401756    -0.761272961075    15.994914619570
         C            1.179413643728     0.034065401756    -0.236481961075    12.000000000000
         C            1.567388643728     1.154276401756     0.710780038925    12.000000000000
         C            2.193161643728    -1.090421598244    -0.290032961075    12.000000000000
         C           -1.247330856272     0.081408501756    -0.119610061075    12.000000000000
         C           -2.395545356272    -0.684692598244     0.439006038925    12.000000000000
         H            0.990765643728     0.437901401756    -1.235307961075     1.007825032230
         H            2.515878643728     1.601866401756     0.398443038925     1.007825032230
         H            0.801967643728     1.932423401756     0.712359038925     1.007825032230
         H            1.684544643728     0.760314401756     1.724309038925     1.007825032230
         H            3.153343643728    -0.712650598244    -0.653101961075     1.007825032230
         H            1.853254643728    -1.883238598244    -0.960431961075     1.007825032230
         H            2.339495643728    -1.514939598244     0.706825038925     1.007825032230
         H           -2.330692356272    -0.734591598244     1.528570038925     1.007825032230
         H           -2.400697356272    -1.709056598244     0.059607038925     1.007825032230
         H           -3.307774356272    -0.168842598244     0.141998038925     1.007825032230

  Basis Set: AUG-CC-PVTZ
    Blend: AUG-CC-PVTZ
  Basis Set: (AUG-CC-PVTZ AUX)
    Blend: AUG-CC-PVTZ-JKFIT
	 Reference Energy          =    -345.0390261013535564 [Eh]
	 Singles Energy            =      -0.0000000000000000 [Eh]
	 Same-Spin Energy          =      -0.3415133102930773 [Eh]
	 Opposite-Spin Energy      =      -1.1325462651913101 [Eh]
	 Correlation Energy        =      -1.4740595754843873 [Eh]
	 Total Energy              =    -346.5130856768379317 [Eh]

	 ================> DF-SCS-MP2 Energies <==================
	-----------------------------------------------------------
	 SCS Same-Spin Scale       =       0.3333333333333333 [-]
	 SCS Opposite-Spin Scale   =       1.2000000000000000 [-]
	 SCS Same-Spin Energy      =      -0.1138377700976924 [Eh]
	 SCS Opposite-Spin Energy  =      -1.3590555182295720 [Eh]
	 SCS Correlation Energy    =      -1.4728932883272645 [Eh]
	 SCS Total Energy          =    -346.5119193896808270 [Eh]
	-----------------------------------------------------------

  Dipole Moment: [D]
     X:     0.4100      Y:    -1.2198      Z:     0.7792     Total:     1.5044

*** Psi4 exiting successfully. Buy a developer a beer!
