                               Psi4 1.3.2 release

  ==> Input File <==

--------------------------------------------------------------------------
#psi4
#
memory 32 gb

molecule  {
0 1
  O        0.0007480    -0.5952090    -0.1877880
  O        1.3565350     1.0092090     0.6922610
  C       -1.1649080     0.1839100     0.2068510
  C       -1.4179200     1.2632690    -0.8279250
  C       -2.2926420    -0.8179640     0.3227230
  C        1.2961497    -0.0187377     0.1439292
  C        2.3131480    -0.9859210    -0.3056480
  H       -0.9474970     0.6396690     1.1762190
  H       -2.3155240     1.8326500    -0.5690360
  H       -0.5734580     1.9518970    -0.8732450
  H       -1.5650280     0.8097800    -1.8115960
  H       -3.2117410    -0.3160520     0.6373810
  H       -2.0484320    -1.5899530     1.0551950
  H       -2.4714270    -1.2985150    -0.6417240
  H        2.2239110    -1.2047570    -1.3723200
  H        2.2280730    -1.9316170     0.2368100
  H        3.2753640    -0.5218720    -0.0948010
units angstrom
no_reorient  #important for SAPT in psi4, default
symmetry c1  #important for SAPT in psi4, default
}

set PROPERTIES_ORIGIN ["COM"]
properties('MP2/aug-cc-pvtz', properties = ['dipole'])
--------------------------------------------------------------------------

    Molecular point group: c1
  Charge       = 0
  Multiplicity = 1
  Basis Set: AUG-CC-PVTZ
    Blend: AUG-CC-PVTZ
  Basis Set: (AUG-CC-PVTZ AUX)
    Blend: AUG-CC-PVTZ-JKFIT

    Orbital Energies [Eh]
    ---------------------

    Doubly Occupied:

       1A    -20.571051     2A    -20.561292     3A    -11.382620
       4A    -11.279091     5A    -11.245836     6A    -11.213628
       7A    -11.210589     8A     -1.453882     9A     -1.346144
      10A     -1.065009    11A     -1.015458    12A     -0.937909
      13A     -0.816319    14A     -0.755371    15A     -0.703641
      16A     -0.665648    17A     -0.648914    18A     -0.613344
      19A     -0.593045    20A     -0.576651    21A     -0.559438
      22A     -0.541257    23A     -0.534321    24A     -0.510834
      25A     -0.505667    26A     -0.479615    27A     -0.448030
      28A     -0.439089

  @DF-RHF Final Energy:  -345.03153577661510

   => Energetics <=

    Nuclear Repulsion Energy =            320.4931175584582093
    One-Electron Energy =               -1105.7019240323093072
    Two-Electron Energy =                 440.1772706972360538
    Total Energy =                       -345.0315357766151010
  Basis Set: (AUG-CC-PVTZ AUX)
    Blend: AUG-CC-PVTZ-RI
    Molecular point group: c1

    Geometry (in Angstrom), charge = 0, multiplicity = 1:

       Center              X                  Y                   Z               Mass
    ------------   -----------------  -----------------  -----------------  -----------------
         O           -0.009710694489    -0.599863296199    -0.190466466674    15.994914619570
         O            1.346076305511     1.004554703801     0.689582533326    15.994914619570
         C           -1.175366694489     0.179255703801     0.204172533326    12.000000000000
         C           -1.428378694489     1.258614703801    -0.830603466674    12.000000000000
         C           -2.303100694489    -0.822618296199     0.320044533326    12.000000000000
         C            1.285691005511    -0.023391996199     0.141250733326    12.000000000000
         C            2.302689305511    -0.990575296199    -0.308326466674    12.000000000000
         H           -0.957955694489     0.635014703801     1.173540533326     1.007825032230
         H           -2.325982694489     1.827995703801    -0.571714466674     1.007825032230
         H           -0.583916694489     1.947242703801    -0.875923466674     1.007825032230
         H           -1.575486694489     0.805125703801    -1.814274466674     1.007825032230
         H           -3.222199694489    -0.320706296199     0.634702533326     1.007825032230
         H           -2.058890694489    -1.594607296199     1.052516533326     1.007825032230
         H           -2.481885694489    -1.303169296199    -0.644402466674     1.007825032230
         H            2.213452305511    -1.209411296199    -1.374998466674     1.007825032230
         H            2.217614305511    -1.936271296199     0.234131533326     1.007825032230
         H            3.264905305511    -0.526526296199    -0.097479466674     1.007825032230

  Basis Set: AUG-CC-PVTZ
    Blend: AUG-CC-PVTZ
  Basis Set: (AUG-CC-PVTZ AUX)
    Blend: AUG-CC-PVTZ-JKFIT
	 Reference Energy          =    -345.0315357766151010 [Eh]
	 Singles Energy            =      -0.0000000000000000 [Eh]
	 Same-Spin Energy          =      -0.3417085855933994 [Eh]
	 Opposite-Spin Energy      =      -1.1328676590078075 [Eh]
	 Correlation Energy        =      -1.4745762446012070 [Eh]
	 Total Energy              =    -346.5061120212163246 [Eh]

	 ================> DF-SCS-MP2 Energies <==================
	-----------------------------------------------------------
	 SCS Same-Spin Scale       =       0.3333333333333333 [-]
	 SCS Opposite-Spin Scale   =       1.2000000000000000 [-]
	 SCS Same-Spin Energy      =      -0.1139028618644665 [Eh]
	 SCS Opposite-Spin Energy  =      -1.3594411908093689 [Eh]
	 SCS Correlation Energy    =      -1.4733440526738353 [Eh]
	 SCS Total Energy          =    -346.5048798292889387 [Eh]
	-----------------------------------------------------------

  Dipole Moment: [D]
     X:    -0.0600      Y:    -1.1289      Z:    -0.5567     Total:     1.2601

*** Psi4 exiting successfully. Buy a developer a beer!
