                               Psi4 1.3.2 release

  ==> Input File <==

--------------------------------------------------------------------------
#psi4
#
memory 32 gb

molecule  {
0 1
  O        0.0069611    -0.5509030    -0.2495401
  O        1.3565350     1.0092090     0.6922610
  C       -1.1649080     0.1839100     0.2068510
  C       -1.3549216     1.2365312    -0.8681726
  C       -2.2926420    -0.8179640     0.3227230
  C        1.2071900    -0.0583260     0.1211490
  C        2.3131480    -0.9859210    -0.3056480
  H       -0.9474970     0.6396690     1.1762190
  H       -2.3155240     1.8326500    -0.5690360
  H       -0.5734580     1.9518970    -0.8732450
  H       -1.5650280     0.8097800    -1.8115960
  H       -3.2117410    -0.3160520     0.6373810
  H       -2.0484320    -1.5899530     1.0551950
  H       -2.4714270    -1.2985150    -0.6417240
  H        2.2239110    -1.2047570    -1.3723200
  H        2.2280730    -1.9316170     0.2368100
  H        3.2753640    -0.5218720    -0.0948010
units angstrom
no_reorient  #important for SAPT in psi4, default
symmetry c1  #important for SAPT in psi4, default
}

set PROPERTIES_ORIGIN ["COM"]
properties('MP2/aug-cc-pvtz', properties = ['dipole'])
--------------------------------------------------------------------------

    Molecular point group: c1
  Charge       = 0
  Multiplicity = 1
  Basis Set: AUG-CC-PVTZ
    Blend: AUG-CC-PVTZ
  Basis Set: (AUG-CC-PVTZ AUX)
    Blend: AUG-CC-PVTZ-JKFIT

    Orbital Energies [Eh]
    ---------------------

    Doubly Occupied:

       1A    -20.594526     2A    -20.540011     3A    -11.379796
       4A    -11.292027     5A    -11.239808     6A    -11.223962
       7A    -11.216514     8A     -1.450823     9A     -1.349553
      10A     -1.076313    11A     -1.005185    12A     -0.947235
      13A     -0.837589    14A     -0.768197    15A     -0.692124
      16A     -0.665776    17A     -0.652991    18A     -0.614932
      19A     -0.584813    20A     -0.575571    21A     -0.566064
      22A     -0.552993    23A     -0.535118    24A     -0.509674
      25A     -0.497143    26A     -0.489438    27A     -0.446011
      28A     -0.443353

  @DF-RHF Final Energy:  -345.03418012593846

   => Energetics <=

    Nuclear Repulsion Energy =            321.8474719690032089
    One-Electron Energy =               -1108.2682213685693569
    Two-Electron Energy =                 441.3865692736276856
    Total Energy =                       -345.0341801259384624
  Basis Set: (AUG-CC-PVTZ AUX)
    Blend: AUG-CC-PVTZ-RI
    Molecular point group: c1

    Geometry (in Angstrom), charge = 0, multiplicity = 1:

       Center              X                  Y                   Z               Mass
    ------------   -----------------  -----------------  -----------------  -----------------
         O           -0.001419005405    -0.554702547944    -0.235131410978    15.994914619570
         O            1.348154894595     1.005409452056     0.706669689022    15.994914619570
         C           -1.173288105405     0.180110452056     0.221259689022    12.000000000000
         C           -1.363301705405     1.232731652056    -0.853763910978    12.000000000000
         C           -2.301022105405    -0.821763547944     0.337131689022    12.000000000000
         C            1.198809894595    -0.062125547944     0.135557689022    12.000000000000
         C            2.304767894595    -0.989720547944    -0.291239310978    12.000000000000
         H           -0.955877105405     0.635869452056     1.190627689022     1.007825032230
         H           -2.323904105405     1.828850452056    -0.554627310978     1.007825032230
         H           -0.581838105405     1.948097452056    -0.858836310978     1.007825032230
         H           -1.573408105405     0.805980452056    -1.797187310978     1.007825032230
         H           -3.220121105405    -0.319851547944     0.651789689022     1.007825032230
         H           -2.056812105405    -1.593752547944     1.069603689022     1.007825032230
         H           -2.479807105405    -1.302314547944    -0.627315310978     1.007825032230
         H            2.215530894595    -1.208556547944    -1.357911310978     1.007825032230
         H            2.219692894595    -1.935416547944     0.251218689022     1.007825032230
         H            3.266983894595    -0.525671547944    -0.080392310978     1.007825032230

  Basis Set: AUG-CC-PVTZ
    Blend: AUG-CC-PVTZ
  Basis Set: (AUG-CC-PVTZ AUX)
    Blend: AUG-CC-PVTZ-JKFIT
	 Reference Energy          =    -345.0341801259384624 [Eh]
	 Singles Energy            =      -0.0000000000000000 [Eh]
	 Same-Spin Energy          =      -0.3415420060331393 [Eh]
	 Opposite-Spin Energy      =      -1.1323467297223628 [Eh]
	 Correlation Energy        =      -1.4738887357555022 [Eh]
	 Total Energy              =    -346.5080688616939710 [Eh]

	 ================> DF-SCS-MP2 Energies <==================
	-----------------------------------------------------------
	 SCS Same-Spin Scale       =       0.3333333333333333 [-]
	 SCS Opposite-Spin Scale   =       1.2000000000000000 [-]
	 SCS Same-Spin Energy      =      -0.1138473353443798 [Eh]
	 SCS Opposite-Spin Energy  =      -1.3588160756668353 [Eh]
	 SCS Correlation Energy    =      -1.4726634110112151 [Eh]
	 SCS Total Energy          =    -346.5068435369497024 [Eh]
	-----------------------------------------------------------

  Dipole Moment: [D]
     X:    -1.0455      Y:    -1.5116      Z:    -0.6842     Total:     1.9612

*** Psi4 exiting successfully. Buy a developer a beer!
