                               Psi4 1.3.2 release

  ==> Input File <==

--------------------------------------------------------------------------
#psi4
#
memory 32 gb

molecule  {
0 1
  O        0.0007480    -0.5952090    -0.1877880
  O        1.3354090     1.0118442     0.6924628
  C       -1.1649080     0.1839100     0.2068510
  C       -1.4179200     1.2632690    -0.8279250
  C       -2.2926420    -0.8179640     0.3227230
  C        1.2071900    -0.0583260     0.1211490
  C        2.2952072    -1.0024635    -0.3153762
  H       -0.9474970     0.6396690     1.1762190
  H       -2.3155240     1.8326500    -0.5690360
  H       -0.5734580     1.9518970    -0.8732450
  H       -1.5650280     0.8097800    -1.8115960
  H       -3.2117410    -0.3160520     0.6373810
  H       -2.0484320    -1.5899530     1.0551950
  H       -2.4714270    -1.2985150    -0.6417240
  H        2.2239110    -1.2047570    -1.3723200
  H        2.2280730    -1.9316170     0.2368100
  H        3.2753640    -0.5218720    -0.0948010
units angstrom
no_reorient  #important for SAPT in psi4, default
symmetry c1  #important for SAPT in psi4, default
}

set PROPERTIES_ORIGIN ["COM"]
properties('MP2/aug-cc-pvtz', properties = ['dipole'])
--------------------------------------------------------------------------

    Molecular point group: c1
  Charge       = 0
  Multiplicity = 1
  Basis Set: AUG-CC-PVTZ
    Blend: AUG-CC-PVTZ
  Basis Set: (AUG-CC-PVTZ AUX)
    Blend: AUG-CC-PVTZ-JKFIT

    Orbital Energies [Eh]
    ---------------------

    Doubly Occupied:

       1A    -20.595090     2A    -20.542687     3A    -11.381507
       4A    -11.289574     5A    -11.241428     6A    -11.220725
       7A    -11.216475     8A     -1.449299     9A     -1.349401
      10A     -1.075587    11A     -1.006873    12A     -0.945013
      13A     -0.836319    14A     -0.764498    15A     -0.692747
      16A     -0.665540    17A     -0.654660    18A     -0.611907
      19A     -0.588502    20A     -0.573646    21A     -0.561415
      22A     -0.548107    23A     -0.534254    24A     -0.516060
      25A     -0.501952    26A     -0.482021    27A     -0.452634
      28A     -0.443169

  @DF-RHF Final Energy:  -345.04070002491414

   => Energetics <=

    Nuclear Repulsion Energy =            321.4228640950584577
    One-Electron Energy =               -1107.4449508318971311
    Two-Electron Energy =                 440.9813867119245288
    Total Energy =                       -345.0407000249141447
  Basis Set: (AUG-CC-PVTZ AUX)
    Blend: AUG-CC-PVTZ-RI
    Molecular point group: c1

    Geometry (in Angstrom), charge = 0, multiplicity = 1:

       Center              X                  Y                   Z               Mass
    ------------   -----------------  -----------------  -----------------  -----------------
         O            0.006168065778    -0.593677034993    -0.186676123720    15.994914619570
         O            1.340829065778     1.013376165007     0.693574676280    15.994914619570
         C           -1.159487934222     0.185441965007     0.207962876280    12.000000000000
         C           -1.412499934222     1.264800965007    -0.826813123720    12.000000000000
         C           -2.287221934222    -0.816432034993     0.323834876280    12.000000000000
         C            1.212610065778    -0.056794034993     0.122260876280    12.000000000000
         C            2.300627265778    -1.000931534993    -0.314264323720    12.000000000000
         H           -0.942076934222     0.641200965007     1.177330876280     1.007825032230
         H           -2.310103934222     1.834181965007    -0.567924123720     1.007825032230
         H           -0.568037934222     1.953428965007    -0.872133123720     1.007825032230
         H           -1.559607934222     0.811311965007    -1.810484123720     1.007825032230
         H           -3.206320934222    -0.314520034993     0.638492876280     1.007825032230
         H           -2.043011934222    -1.588421034993     1.056306876280     1.007825032230
         H           -2.466006934222    -1.296983034993    -0.640612123720     1.007825032230
         H            2.229331065778    -1.203225034993    -1.371208123720     1.007825032230
         H            2.233493065778    -1.930085034993     0.237921876280     1.007825032230
         H            3.280784065778    -0.520340034993    -0.093689123720     1.007825032230

  Basis Set: AUG-CC-PVTZ
    Blend: AUG-CC-PVTZ
  Basis Set: (AUG-CC-PVTZ AUX)
    Blend: AUG-CC-PVTZ-JKFIT
	 Reference Energy          =    -345.0407000249141447 [Eh]
	 Singles Energy            =      -0.0000000000000000 [Eh]
	 Same-Spin Energy          =      -0.3415953622709696 [Eh]
	 Opposite-Spin Energy      =      -1.1324493792141865 [Eh]
	 Correlation Energy        =      -1.4740447414851561 [Eh]
	 Total Energy              =    -346.5147447663993034 [Eh]

	 ================> DF-SCS-MP2 Energies <==================
	-----------------------------------------------------------
	 SCS Same-Spin Scale       =       0.3333333333333333 [-]
	 SCS Opposite-Spin Scale   =       1.2000000000000000 [-]
	 SCS Same-Spin Energy      =      -0.1138651207569899 [Eh]
	 SCS Opposite-Spin Energy  =      -1.3589392550570238 [Eh]
	 SCS Correlation Energy    =      -1.4728043758140137 [Eh]
	 SCS Total Energy          =    -346.5135044007281522 [Eh]
	-----------------------------------------------------------

  Dipole Moment: [D]
     X:    -0.9335      Y:    -1.3851      Z:    -0.7509     Total:     1.8314

*** Psi4 exiting successfully. Buy a developer a beer!
