                               Psi4 1.3.2 release

  ==> Input File <==

--------------------------------------------------------------------------
#psi4
#
memory 32 gb

molecule  {
0 1
  O        0.0007480    -0.5952090    -0.1877880
  O        1.3565350     1.0092090     0.6922610
  C       -1.1649080     0.1839100     0.2068510
  C       -1.4179200     1.2632690    -0.8279250
  C       -2.2926420    -0.8179640     0.3227230
  C        1.1949474    -0.1458376     0.0743319
  C        2.3131480    -0.9859210    -0.3056480
  H       -0.9474970     0.6396690     1.1762190
  H       -2.3155240     1.8326500    -0.5690360
  H       -0.5734580     1.9518970    -0.8732450
  H       -1.5650280     0.8097800    -1.8115960
  H       -3.2117410    -0.3160520     0.6373810
  H       -2.0484320    -1.5899530     1.0551950
  H       -2.4714270    -1.2985150    -0.6417240
  H        2.2239110    -1.2047570    -1.3723200
  H        2.2280730    -1.9316170     0.2368100
  H        3.2753640    -0.5218720    -0.0948010
units angstrom
no_reorient  #important for SAPT in psi4, default
symmetry c1  #important for SAPT in psi4, default
}

set PROPERTIES_ORIGIN ["COM"]
properties('MP2/aug-cc-pvtz', properties = ['dipole'])
--------------------------------------------------------------------------

    Molecular point group: c1
  Charge       = 0
  Multiplicity = 1
  Basis Set: AUG-CC-PVTZ
    Blend: AUG-CC-PVTZ
  Basis Set: (AUG-CC-PVTZ AUX)
    Blend: AUG-CC-PVTZ-JKFIT

    Orbital Energies [Eh]
    ---------------------

    Doubly Occupied:

       1A    -20.611183     2A    -20.521166     3A    -11.386503
       4A    -11.297705     5A    -11.242923     6A    -11.225524
       7A    -11.219181     8A     -1.463507     9A     -1.291966
      10A     -1.088225    11A     -1.023205    12A     -0.948797
      13A     -0.853993    14A     -0.769110    15A     -0.686150
      16A     -0.671895    17A     -0.657747    18A     -0.613967
      19A     -0.589855    20A     -0.580746    21A     -0.552611
      22A     -0.551559    23A     -0.539260    24A     -0.518495
      25A     -0.492948    26A     -0.483183    27A     -0.432747
      28A     -0.429007

  @DF-RHF Final Energy:  -345.02128476123471

   => Energetics <=

    Nuclear Repulsion Energy =            320.9456240146471941
    One-Electron Energy =               -1106.4474938182020196
    Two-Electron Energy =                 440.4805850423201719
    Total Energy =                       -345.0212847612347105
  Basis Set: (AUG-CC-PVTZ AUX)
    Blend: AUG-CC-PVTZ-RI
    Molecular point group: c1

    Geometry (in Angstrom), charge = 0, multiplicity = 1:

       Center              X                  Y                   Z               Mass
    ------------   -----------------  -----------------  -----------------  -----------------
         O            0.002187517031    -0.584920340414    -0.182284010380    15.994914619570
         O            1.357974517031     1.019497659586     0.697764989620    15.994914619570
         C           -1.163468482969     0.194198659586     0.212354989620    12.000000000000
         C           -1.416480482969     1.273557659586    -0.822421010380    12.000000000000
         C           -2.291202482969    -0.807675340414     0.328226989620    12.000000000000
         C            1.196386917031    -0.135548940414     0.079835889620    12.000000000000
         C            2.314587517031    -0.975632340414    -0.300144010380    12.000000000000
         H           -0.946057482969     0.649957659586     1.181722989620     1.007825032230
         H           -2.314084482969     1.842938659586    -0.563532010380     1.007825032230
         H           -0.572018482969     1.962185659586    -0.867741010380     1.007825032230
         H           -1.563588482969     0.820068659586    -1.806092010380     1.007825032230
         H           -3.210301482969    -0.305763340414     0.642884989620     1.007825032230
         H           -2.046992482969    -1.579664340414     1.060698989620     1.007825032230
         H           -2.469987482969    -1.288226340414    -0.636220010380     1.007825032230
         H            2.225350517031    -1.194468340414    -1.366816010380     1.007825032230
         H            2.229512517031    -1.921328340414     0.242313989620     1.007825032230
         H            3.276803517031    -0.511583340414    -0.089297010380     1.007825032230

  Basis Set: AUG-CC-PVTZ
    Blend: AUG-CC-PVTZ
  Basis Set: (AUG-CC-PVTZ AUX)
    Blend: AUG-CC-PVTZ-JKFIT
	 Reference Energy          =    -345.0212847612347105 [Eh]
	 Singles Energy            =      -0.0000000000000000 [Eh]
	 Same-Spin Energy          =      -0.3433468440376288 [Eh]
	 Opposite-Spin Energy      =      -1.1353397300968764 [Eh]
	 Correlation Energy        =      -1.4786865741345052 [Eh]
	 Total Energy              =    -346.4999713353691959 [Eh]

	 ================> DF-SCS-MP2 Energies <==================
	-----------------------------------------------------------
	 SCS Same-Spin Scale       =       0.3333333333333333 [-]
	 SCS Opposite-Spin Scale   =       1.2000000000000000 [-]
	 SCS Same-Spin Energy      =      -0.1144489480125429 [Eh]
	 SCS Opposite-Spin Energy  =      -1.3624076761162516 [Eh]
	 SCS Correlation Energy    =      -1.4768566241287946 [Eh]
	 SCS Total Energy          =    -346.4981413853635104 [Eh]
	-----------------------------------------------------------

  Dipole Moment: [D]
     X:    -1.3405      Y:    -1.8772      Z:    -1.0378     Total:     2.5294

*** Psi4 exiting successfully. Buy a developer a beer!
