                               Psi4 1.4a3.dev225

  ==> Input File <==

--------------------------------------------------------------------------
#psi4
#
memory 32 gb

molecule  {
0 1
  O       -0.1077990    -0.5624470     0.2079430
  O       -1.3021290     1.1073090    -0.7840490
  C        1.1110370     0.0457460    -0.2528491
  C        1.5159640     1.1744160     0.6880040
  C        2.1417370    -1.0702820    -0.3128090
  C       -1.2564580     0.0779660    -0.1299440
  C       -2.4469700    -0.6645530     0.4162300
  H        0.9393410     0.4580410    -1.2580840
  H        2.4644540     1.6220060     0.3756670
  H        0.7505430     1.9525630     0.6895830
  H        1.6331200     0.7804540     1.7015330
  H        3.1019190    -0.6925110    -0.6758780
  H        1.8018300    -1.8630990    -0.9832080
  H        2.2880710    -1.4948000     0.6840490
  H       -2.3821170    -0.7144520     1.5057940
  H       -2.4521220    -1.6889170     0.0368310
  H       -3.3591990    -0.1487030     0.1192220
units angstrom
no_reorient  #important for SAPT in psi4, default
symmetry c1  #important for SAPT in psi4, default
}

set PROPERTIES_ORIGIN ["COM"]
properties('MP2/aug-cc-pvtz', properties = ['dipole'])
--------------------------------------------------------------------------

    Molecular point group: c1
  Charge       = 0
  Multiplicity = 1
  Basis Set: AUG-CC-PVTZ
    Blend: AUG-CC-PVTZ
  Basis Set: (AUG-CC-PVTZ AUX)
    Blend: AUG-CC-PVTZ-JKFIT

    Orbital Energies [Eh]
    ---------------------

    Doubly Occupied:

       1A    -20.599398     2A    -20.543741     3A    -11.383072
       4A    -11.290337     5A    -11.241228     6A    -11.221168
       7A    -11.216868     8A     -1.452851     9A     -1.353414
      10A     -1.073598    11A     -1.006573    12A     -0.943628
      13A     -0.839966    14A     -0.765272    15A     -0.693612
      16A     -0.666976    17A     -0.655574    18A     -0.609616
      19A     -0.586046    20A     -0.578522    21A     -0.562733
      22A     -0.546897    23A     -0.535295    24A     -0.521315
      25A     -0.500275    26A     -0.479440    27A     -0.452550
      28A     -0.442849

  @DF-RHF Final Energy:  -345.04170627867654

   => Energetics <=

    Nuclear Repulsion Energy =            321.1529516616894853
    One-Electron Energy =               -1106.8636865955988924
    Two-Electron Energy =                 440.6690286552328644
    Total Energy =                       -345.0417062786765428
  Basis Set: (AUG-CC-PVTZ AUX)
    Blend: AUG-CC-PVTZ-RI
    Molecular point group: c1

    Geometry (in Angstrom), charge = 0, multiplicity = 1:

       Center              X                  Y                   Z               Mass
    ------------   -----------------  -----------------  -----------------  -----------------
         O           -0.059354190920    -0.578819571357     0.228502753472    15.994914619570
         O           -1.253684190920     1.090936428643    -0.763489246528    15.994914619570
         C            1.159481809080     0.029373428643    -0.232289346528    12.000000000000
         C            1.564408809080     1.158043428643     0.708563753472    12.000000000000
         C            2.190181809080    -1.086654571357    -0.292249246528    12.000000000000
         C           -1.208013190920     0.061593428643    -0.109384246528    12.000000000000
         C           -2.398525190920    -0.680925571357     0.436789753472    12.000000000000
         H            0.987785809080     0.441668428643    -1.237524246528     1.007825032230
         H            2.512898809080     1.605633428643     0.396226753472     1.007825032230
         H            0.798987809080     1.936190428643     0.710142753472     1.007825032230
         H            1.681564809080     0.764081428643     1.722092753472     1.007825032230
         H            3.150363809080    -0.708883571357    -0.655318246528     1.007825032230
         H            1.850274809080    -1.879471571357    -0.962648246528     1.007825032230
         H            2.336515809080    -1.511172571357     0.704608753472     1.007825032230
         H           -2.333672190920    -0.730824571357     1.526353753472     1.007825032230
         H           -2.403677190920    -1.705289571357     0.057390753472     1.007825032230
         H           -3.310754190920    -0.165075571357     0.139781753472     1.007825032230

  Basis Set: AUG-CC-PVTZ
    Blend: AUG-CC-PVTZ
  Basis Set: (AUG-CC-PVTZ AUX)
    Blend: AUG-CC-PVTZ-JKFIT
	 Reference Energy          =    -345.0417062786765428 [Eh]
	 Singles Energy            =      -0.0000000000000000 [Eh]
	 Same-Spin Energy          =      -0.3413982815857219 [Eh]
	 Opposite-Spin Energy      =      -1.1321297066335101 [Eh]
	 Correlation Energy        =      -1.4735279882192320 [Eh]
	 Total Energy              =    -346.5152342668957886 [Eh]

	 ================> DF-SCS-MP2 Energies <==================
	-----------------------------------------------------------
	 SCS Same-Spin Scale       =       0.3333333333333333 [-]
	 SCS Opposite-Spin Scale   =       1.2000000000000000 [-]
	 SCS Same-Spin Energy      =      -0.1137994271952406 [Eh]
	 SCS Opposite-Spin Energy  =      -1.3585556479602121 [Eh]
	 SCS Correlation Energy    =      -1.4723550751554528 [Eh]
	 SCS Total Energy          =    -346.5140613538320054 [Eh]
	-----------------------------------------------------------

  Dipole Moment: [D]
     X:     0.7705      Y:    -1.3976      Z:     0.8832     Total:     1.8240

*** Psi4 exiting successfully. Buy a developer a beer!
