                               Psi4 1.3.2 release

  ==> Input File <==

--------------------------------------------------------------------------
#psi4
#
memory 32 gb

molecule  {
0 1
  O        0.0061877    -0.6046814    -0.1923426
  O        1.3565350     1.0092090     0.6922610
  C       -1.1649080     0.1839100     0.2068510
  C       -1.4179200     1.2632690    -0.8279250
  C       -2.2926420    -0.8179640     0.3227230
  C        1.2071900    -0.0583260     0.1211490
  C        2.3042042    -0.9944021    -0.3101892
  H       -0.9474970     0.6396690     1.1762190
  H       -2.3155240     1.8326500    -0.5690360
  H       -0.5734580     1.9518970    -0.8732450
  H       -1.5650280     0.8097800    -1.8115960
  H       -3.2117410    -0.3160520     0.6373810
  H       -2.0484320    -1.5899530     1.0551950
  H       -2.4714270    -1.2985150    -0.6417240
  H        2.2239110    -1.2047570    -1.3723200
  H        2.2280730    -1.9316170     0.2368100
  H        3.2753640    -0.5218720    -0.0948010
units angstrom
no_reorient  #important for SAPT in psi4, default
symmetry c1  #important for SAPT in psi4, default
}

set PROPERTIES_ORIGIN ["COM"]
properties('MP2/aug-cc-pvtz', properties = ['dipole'])
--------------------------------------------------------------------------

    Molecular point group: c1
  Charge       = 0
  Multiplicity = 1
  Basis Set: AUG-CC-PVTZ
    Blend: AUG-CC-PVTZ
  Basis Set: (AUG-CC-PVTZ AUX)
    Blend: AUG-CC-PVTZ-JKFIT

    Orbital Energies [Eh]
    ---------------------

    Doubly Occupied:

       1A    -20.596990     2A    -20.542573     3A    -11.380856
       4A    -11.291686     5A    -11.239216     6A    -11.221707
       7A    -11.217747     8A     -1.447366     9A     -1.349960
      10A     -1.075890    11A     -1.005450    12A     -0.945944
      13A     -0.834788    14A     -0.765440    15A     -0.691748
      16A     -0.664597    17A     -0.654074    18A     -0.611672
      19A     -0.586597    20A     -0.575528    21A     -0.562103
      22A     -0.548831    23A     -0.533976    24A     -0.516501
      25A     -0.502128    26A     -0.483815    27A     -0.453589
      28A     -0.442754

  @DF-RHF Final Energy:  -345.04095961945558

   => Energetics <=

    Nuclear Repulsion Energy =            320.9885684657099887
    One-Electron Energy =               -1106.5720024054228361
    Two-Electron Energy =                 440.5424743202573268
    Total Energy =                       -345.0409596194555775
  Basis Set: (AUG-CC-PVTZ AUX)
    Blend: AUG-CC-PVTZ-RI
    Molecular point group: c1

    Geometry (in Angstrom), charge = 0, multiplicity = 1:

       Center              X                  Y                   Z               Mass
    ------------   -----------------  -----------------  -----------------  -----------------
         O            0.006386935665    -0.602199841068    -0.191095184657    15.994914619570
         O            1.356734235665     1.011690558932     0.693508415343    15.994914619570
         C           -1.164708764335     0.186391558932     0.208098415343    12.000000000000
         C           -1.417720764335     1.265750558932    -0.826677584657    12.000000000000
         C           -2.292442764335    -0.815482441068     0.323970415343    12.000000000000
         C            1.207389235665    -0.055844441068     0.122396415343    12.000000000000
         C            2.304403435665    -0.991920541068    -0.308941784657    12.000000000000
         H           -0.947297764335     0.642150558932     1.177466415343     1.007825032230
         H           -2.315324764335     1.835131558932    -0.567788584657     1.007825032230
         H           -0.573258764335     1.954378558932    -0.871997584657     1.007825032230
         H           -1.564828764335     0.812261558932    -1.810348584657     1.007825032230
         H           -3.211541764335    -0.313570441068     0.638628415343     1.007825032230
         H           -2.048232764335    -1.587471441068     1.056442415343     1.007825032230
         H           -2.471227764335    -1.296033441068    -0.640476584657     1.007825032230
         H            2.224110235665    -1.202275441068    -1.371072584657     1.007825032230
         H            2.228272235665    -1.929135441068     0.238057415343     1.007825032230
         H            3.275563235665    -0.519390441068    -0.093553584657     1.007825032230

  Basis Set: AUG-CC-PVTZ
    Blend: AUG-CC-PVTZ
  Basis Set: (AUG-CC-PVTZ AUX)
    Blend: AUG-CC-PVTZ-JKFIT
	 Reference Energy          =    -345.0409596194555775 [Eh]
	 Singles Energy            =      -0.0000000000000000 [Eh]
	 Same-Spin Energy          =      -0.3415853690408598 [Eh]
	 Opposite-Spin Energy      =      -1.1326238369485244 [Eh]
	 Correlation Energy        =      -1.4742092059893843 [Eh]
	 Total Energy              =    -346.5151688254449596 [Eh]

	 ================> DF-SCS-MP2 Energies <==================
	-----------------------------------------------------------
	 SCS Same-Spin Scale       =       0.3333333333333333 [-]
	 SCS Opposite-Spin Scale   =       1.2000000000000000 [-]
	 SCS Same-Spin Energy      =      -0.1138617896802866 [Eh]
	 SCS Opposite-Spin Energy  =      -1.3591486043382293 [Eh]
	 SCS Correlation Energy    =      -1.4730103940185160 [Eh]
	 SCS Total Energy          =    -346.5139700134740792 [Eh]
	-----------------------------------------------------------

  Dipole Moment: [D]
     X:    -1.0431      Y:    -1.3445      Z:    -0.7406     Total:     1.8558

*** Psi4 exiting successfully. Buy a developer a beer!
