                               Psi4 1.4a3.dev225

  ==> Input File <==

--------------------------------------------------------------------------
#psi4
#
memory 32 gb

molecule  {
0 1
  O       -0.1077990    -0.5624470     0.2079430
  O       -1.3021290     1.1073090    -0.7840490
  C        1.1279890     0.0542050    -0.2592580
  C        1.5159640     1.1744160     0.6880040
  C        2.1417370    -1.0702820    -0.3128090
  C       -1.2141605     0.0543839    -0.1175019
  C       -2.4469700    -0.6645530     0.4162300
  H        0.9393410     0.4580410    -1.2580840
  H        2.4644540     1.6220060     0.3756670
  H        0.7505430     1.9525630     0.6895830
  H        1.6331200     0.7804540     1.7015330
  H        3.1019190    -0.6925110    -0.6758780
  H        1.8018300    -1.8630990    -0.9832080
  H        2.2880710    -1.4948000     0.6840490
  H       -2.3821170    -0.7144520     1.5057940
  H       -2.4521220    -1.6889170     0.0368310
  H       -3.3591990    -0.1487030     0.1192220
units angstrom
no_reorient  #important for SAPT in psi4, default
symmetry c1  #important for SAPT in psi4, default
}

set PROPERTIES_ORIGIN ["COM"]
properties('MP2/aug-cc-pvtz', properties = ['dipole'])
--------------------------------------------------------------------------

    Molecular point group: c1
  Charge       = 0
  Multiplicity = 1
  Basis Set: AUG-CC-PVTZ
    Blend: AUG-CC-PVTZ
  Basis Set: (AUG-CC-PVTZ AUX)
    Blend: AUG-CC-PVTZ-JKFIT

    Orbital Energies [Eh]
    ---------------------

    Doubly Occupied:

       1A    -20.609003     2A    -20.532350     3A    -11.380975
       4A    -11.296877     5A    -11.238020     6A    -11.225734
       7A    -11.220908     8A     -1.465460     9A     -1.335738
      10A     -1.082210    11A     -1.000403    12A     -0.949274
      13A     -0.848353    14A     -0.771978    15A     -0.685672
      16A     -0.671578    17A     -0.658930    18A     -0.611055
      19A     -0.581712    20A     -0.577515    21A     -0.561798
      22A     -0.551998    23A     -0.537284    24A     -0.520628
      25A     -0.499493    26A     -0.486586    27A     -0.449274
      28A     -0.436017

  @DF-RHF Final Energy:  -345.03854777954177

   => Energetics <=

    Nuclear Repulsion Energy =            321.3113842054618203
    One-Electron Energy =               -1107.1262203195217353
    Two-Electron Energy =                 440.7762883345181990
    Total Energy =                       -345.0385477795417728
  Basis Set: (AUG-CC-PVTZ AUX)
    Blend: AUG-CC-PVTZ-RI
    Molecular point group: c1

    Geometry (in Angstrom), charge = 0, multiplicity = 1:

       Center              X                  Y                   Z               Mass
    ------------   -----------------  -----------------  -----------------  -----------------
         O           -0.066320070978    -0.577041569843     0.227793438666    15.994914619570
         O           -1.260650070978     1.092714430157    -0.764198561334    15.994914619570
         C            1.169467929022     0.039610430157    -0.239407561334    12.000000000000
         C            1.557442929022     1.159821430157     0.707854438666    12.000000000000
         C            2.183215929022    -1.084876569843    -0.292958561334    12.000000000000
         C           -1.172681570978     0.039789330157    -0.097651461334    12.000000000000
         C           -2.405491070978    -0.679147569843     0.436080438666    12.000000000000
         H            0.980819929022     0.443446430157    -1.238233561334     1.007825032230
         H            2.505932929022     1.607411430157     0.395517438666     1.007825032230
         H            0.792021929022     1.937968430157     0.709433438666     1.007825032230
         H            1.674598929022     0.765859430157     1.721383438666     1.007825032230
         H            3.143397929022    -0.707105569843    -0.656027561334     1.007825032230
         H            1.843308929022    -1.877693569843    -0.963357561334     1.007825032230
         H            2.329549929022    -1.509394569843     0.703899438666     1.007825032230
         H           -2.340638070978    -0.729046569843     1.525644438666     1.007825032230
         H           -2.410643070978    -1.703511569843     0.056681438666     1.007825032230
         H           -3.317720070978    -0.163297569843     0.139072438666     1.007825032230

  Basis Set: AUG-CC-PVTZ
    Blend: AUG-CC-PVTZ
  Basis Set: (AUG-CC-PVTZ AUX)
    Blend: AUG-CC-PVTZ-JKFIT
	 Reference Energy          =    -345.0385477795417728 [Eh]
	 Singles Energy            =      -0.0000000000000000 [Eh]
	 Same-Spin Energy          =      -0.3415366548518112 [Eh]
	 Opposite-Spin Energy      =      -1.1323496052519295 [Eh]
	 Correlation Energy        =      -1.4738862601037406 [Eh]
	 Total Energy              =    -346.5124340396455409 [Eh]

	 ================> DF-SCS-MP2 Energies <==================
	-----------------------------------------------------------
	 SCS Same-Spin Scale       =       0.3333333333333333 [-]
	 SCS Opposite-Spin Scale   =       1.2000000000000000 [-]
	 SCS Same-Spin Energy      =      -0.1138455516172704 [Eh]
	 SCS Opposite-Spin Energy  =      -1.3588195263023153 [Eh]
	 SCS Correlation Energy    =      -1.4726650779195856 [Eh]
	 SCS Total Energy          =    -346.5112128574613735 [Eh]
	-----------------------------------------------------------

  Dipole Moment: [D]
     X:     1.3011      Y:    -1.5494      Z:     0.9791     Total:     2.2476

*** Psi4 exiting successfully. Buy a developer a beer!
