                               Psi4 1.4a3.dev225

  ==> Input File <==

--------------------------------------------------------------------------
#psi4
#
memory 32 gb

molecule  {
0 1
  O       -0.1077990    -0.5624470     0.2079430
  O       -1.3021290     1.1073090    -0.7840490
  C        1.1703691     0.0753525    -0.2752802
  C        1.5159640     1.1744160     0.6880040
  C        2.1417370    -1.0702820    -0.3128090
  C       -1.2564580     0.0779660    -0.1299440
  C       -2.4469700    -0.6645530     0.4162300
  H        0.9393410     0.4580410    -1.2580840
  H        2.4644540     1.6220060     0.3756670
  H        0.7505430     1.9525630     0.6895830
  H        1.6331200     0.7804540     1.7015330
  H        3.1019190    -0.6925110    -0.6758780
  H        1.8018300    -1.8630990    -0.9832080
  H        2.2880710    -1.4948000     0.6840490
  H       -2.3821170    -0.7144520     1.5057940
  H       -2.4521220    -1.6889170     0.0368310
  H       -3.3591990    -0.1487030     0.1192220
units angstrom
no_reorient  #important for SAPT in psi4, default
symmetry c1  #important for SAPT in psi4, default
}

set PROPERTIES_ORIGIN ["COM"]
properties('MP2/aug-cc-pvtz', properties = ['dipole'])
--------------------------------------------------------------------------

    Molecular point group: c1
  Charge       = 0
  Multiplicity = 1
  Basis Set: AUG-CC-PVTZ
    Blend: AUG-CC-PVTZ
  Basis Set: (AUG-CC-PVTZ AUX)
    Blend: AUG-CC-PVTZ-JKFIT

    Orbital Energies [Eh]
    ---------------------

    Doubly Occupied:

       1A    -20.589857     2A    -20.538510     3A    -11.377409
       4A    -11.293505     5A    -11.237590     6A    -11.223818
       7A    -11.219540     8A     -1.436991     9A     -1.341723
      10A     -1.079059    11A     -1.004160    12A     -0.949747
      13A     -0.829559    14A     -0.763359    15A     -0.688201
      16A     -0.659318    17A     -0.649624    18A     -0.614167
      19A     -0.584937    20A     -0.577496    21A     -0.560691
      22A     -0.551658    23A     -0.531721    24A     -0.511497
      25A     -0.502978    26A     -0.490076    27A     -0.452358
      28A     -0.439600

  @DF-RHF Final Energy:  -345.03889904800531

   => Energetics <=

    Nuclear Repulsion Energy =            320.3385275945101398
    One-Electron Energy =               -1105.3565565533383506
    Two-Electron Energy =                 439.9791299108228486
    Total Energy =                       -345.0388990480053053
  Basis Set: (AUG-CC-PVTZ AUX)
    Blend: AUG-CC-PVTZ-RI
    Molecular point group: c1

    Geometry (in Angstrom), charge = 0, multiplicity = 1:

       Center              X                  Y                   Z               Mass
    ------------   -----------------  -----------------  -----------------  -----------------
         O           -0.066329782144    -0.582300365760     0.231139946228    15.994914619570
         O           -1.260659782144     1.087455634240    -0.760852053772    15.994914619570
         C            1.211838317856     0.055499134240    -0.252083253772    12.000000000000
         C            1.557433217856     1.154562634240     0.711200946228    12.000000000000
         C            2.183206217856    -1.090135365760    -0.289612053772    12.000000000000
         C           -1.214988782144     0.058112634240    -0.106747053772    12.000000000000
         C           -2.405500782144    -0.684406365760     0.439426946228    12.000000000000
         H            0.980810217856     0.438187634240    -1.234887053772     1.007825032230
         H            2.505923217856     1.602152634240     0.398863946228     1.007825032230
         H            0.792012217856     1.932709634240     0.712779946228     1.007825032230
         H            1.674589217856     0.760600634240     1.724729946228     1.007825032230
         H            3.143388217856    -0.712364365760    -0.652681053772     1.007825032230
         H            1.843299217856    -1.882952365760    -0.960011053772     1.007825032230
         H            2.329540217856    -1.514653365760     0.707245946228     1.007825032230
         H           -2.340647782144    -0.734305365760     1.528990946228     1.007825032230
         H           -2.410652782144    -1.708770365760     0.060027946228     1.007825032230
         H           -3.317729782144    -0.168556365760     0.142418946228     1.007825032230

  Basis Set: AUG-CC-PVTZ
    Blend: AUG-CC-PVTZ
  Basis Set: (AUG-CC-PVTZ AUX)
    Blend: AUG-CC-PVTZ-JKFIT
	 Reference Energy          =    -345.0388990480053053 [Eh]
	 Singles Energy            =      -0.0000000000000000 [Eh]
	 Same-Spin Energy          =      -0.3417310623280184 [Eh]
	 Opposite-Spin Energy      =      -1.1330168033828021 [Eh]
	 Correlation Energy        =      -1.4747478657108206 [Eh]
	 Total Energy              =    -346.5136469137161157 [Eh]

	 ================> DF-SCS-MP2 Energies <==================
	-----------------------------------------------------------
	 SCS Same-Spin Scale       =       0.3333333333333333 [-]
	 SCS Opposite-Spin Scale   =       1.2000000000000000 [-]
	 SCS Same-Spin Energy      =      -0.1139103541093395 [Eh]
	 SCS Opposite-Spin Energy  =      -1.3596201640593624 [Eh]
	 SCS Correlation Energy    =      -1.4735305181687017 [Eh]
	 SCS Total Energy          =    -346.5124295661740348 [Eh]
	-----------------------------------------------------------

  Dipole Moment: [D]
     X:     1.0826      Y:    -1.3525      Z:     0.8674     Total:     1.9375

*** Psi4 exiting successfully. Buy a developer a beer!
