                               Psi4 1.3.2 release

  ==> Input File <==

--------------------------------------------------------------------------
#psi4
#
memory 32 gb

molecule  {
0 1
  O       -0.0135224    -0.6162459    -0.1875879
  O        1.3565350     1.0092090     0.6922610
  C       -1.1649080     0.1839100     0.2068510
  C       -1.4179200     1.2632690    -0.8279250
  C       -2.2759343    -0.8372185     0.3158415
  C        1.2071900    -0.0583260     0.1211490
  C        2.3131480    -0.9859210    -0.3056480
  H       -0.9474970     0.6396690     1.1762190
  H       -2.3155240     1.8326500    -0.5690360
  H       -0.5734580     1.9518970    -0.8732450
  H       -1.5650280     0.8097800    -1.8115960
  H       -3.2117410    -0.3160520     0.6373810
  H       -2.0484320    -1.5899530     1.0551950
  H       -2.4714270    -1.2985150    -0.6417240
  H        2.2239110    -1.2047570    -1.3723200
  H        2.2280730    -1.9316170     0.2368100
  H        3.2753640    -0.5218720    -0.0948010
units angstrom
no_reorient  #important for SAPT in psi4, default
symmetry c1  #important for SAPT in psi4, default
}

set PROPERTIES_ORIGIN ["COM"]
properties('MP2/aug-cc-pvtz', properties = ['dipole'])
--------------------------------------------------------------------------

    Molecular point group: c1
  Charge       = 0
  Multiplicity = 1
  Basis Set: AUG-CC-PVTZ
    Blend: AUG-CC-PVTZ
  Basis Set: (AUG-CC-PVTZ AUX)
    Blend: AUG-CC-PVTZ-JKFIT

    Orbital Energies [Eh]
    ---------------------

    Doubly Occupied:

       1A    -20.595906     2A    -20.546323     3A    -11.383833
       4A    -11.289218     5A    -11.241082     6A    -11.219830
       7A    -11.217065     8A     -1.443137     9A     -1.351681
      10A     -1.073071    11A     -1.006250    12A     -0.945537
      13A     -0.832015    14A     -0.765355    15A     -0.693082
      16A     -0.662773    17A     -0.652865    18A     -0.612127
      19A     -0.586738    20A     -0.576575    21A     -0.560723
      22A     -0.549669    23A     -0.527528    24A     -0.518118
      25A     -0.504350    26A     -0.483946    27A     -0.454260
      28A     -0.442496

  @DF-RHF Final Energy:  -345.03874674778586

   => Energetics <=

    Nuclear Repulsion Energy =            320.8050725856129475
    One-Electron Energy =               -1106.2165363965330016
    Two-Electron Energy =                 440.3727170631341892
    Total Energy =                       -345.0387467477858650
  Basis Set: (AUG-CC-PVTZ AUX)
    Blend: AUG-CC-PVTZ-RI
    Molecular point group: c1

    Geometry (in Angstrom), charge = 0, multiplicity = 1:

       Center              X                  Y                   Z               Mass
    ------------   -----------------  -----------------  -----------------  -----------------
         O           -0.013250238826    -0.610685474576    -0.186810439815    15.994914619570
         O            1.356807161174     1.014769425424     0.693038460185    15.994914619570
         C           -1.164635838826     0.189470425424     0.207628460185    12.000000000000
         C           -1.417647838826     1.268829425424    -0.827147539815    12.000000000000
         C           -2.275662138826    -0.831658074576     0.316618960185    12.000000000000
         C            1.207462161174    -0.052765574576     0.121926460185    12.000000000000
         C            2.313420161174    -0.980360574576    -0.304870539815    12.000000000000
         H           -0.947224838826     0.645229425424     1.176996460185     1.007825032230
         H           -2.315251838826     1.838210425424    -0.568258539815     1.007825032230
         H           -0.573185838826     1.957457425424    -0.872467539815     1.007825032230
         H           -1.564755838826     0.815340425424    -1.810818539815     1.007825032230
         H           -3.211468838826    -0.310491574576     0.638158460185     1.007825032230
         H           -2.048159838826    -1.584392574576     1.055972460185     1.007825032230
         H           -2.471154838826    -1.292954574576    -0.640946539815     1.007825032230
         H            2.224183161174    -1.199196574576    -1.371542539815     1.007825032230
         H            2.228345161174    -1.926056574576     0.237587460185     1.007825032230
         H            3.275636161174    -0.516311574576    -0.094023539815     1.007825032230

  Basis Set: AUG-CC-PVTZ
    Blend: AUG-CC-PVTZ
  Basis Set: (AUG-CC-PVTZ AUX)
    Blend: AUG-CC-PVTZ-JKFIT
	 Reference Energy          =    -345.0387467477858650 [Eh]
	 Singles Energy            =      -0.0000000000000000 [Eh]
	 Same-Spin Energy          =      -0.3418717002520585 [Eh]
	 Opposite-Spin Energy      =      -1.1333262898291849 [Eh]
	 Correlation Energy        =      -1.4751979900812433 [Eh]
	 Total Energy              =    -346.5139447378671207 [Eh]

	 ================> DF-SCS-MP2 Energies <==================
	-----------------------------------------------------------
	 SCS Same-Spin Scale       =       0.3333333333333333 [-]
	 SCS Opposite-Spin Scale   =       1.2000000000000000 [-]
	 SCS Same-Spin Energy      =      -0.1139572334173528 [Eh]
	 SCS Opposite-Spin Energy  =      -1.3599915477950220 [Eh]
	 SCS Correlation Energy    =      -1.4739487812123748 [Eh]
	 SCS Total Energy          =    -346.5126955289982220 [Eh]
	-----------------------------------------------------------

  Dipole Moment: [D]
     X:    -0.8612      Y:    -1.3118      Z:    -0.7361     Total:     1.7333

*** Psi4 exiting successfully. Buy a developer a beer!
