                               Psi4 1.3.2 release

  ==> Input File <==

--------------------------------------------------------------------------
#psi4
#
memory 32 gb

molecule  {
0 1
  O        0.0117347    -0.6138021    -0.1974742
  O        1.3776388     1.0065771     0.6912651
  C       -1.1649080     0.1839100     0.2068510
  C       -1.4179200     1.2632690    -0.8279250
  C       -2.2926420    -0.8179640     0.3227230
  C        1.2071900    -0.0583260     0.1211490
  C        2.3131480    -0.9859210    -0.3056480
  H       -0.9474970     0.6396690     1.1762190
  H       -2.3155240     1.8326500    -0.5690360
  H       -0.5734580     1.9518970    -0.8732450
  H       -1.5650280     0.8097800    -1.8115960
  H       -3.2117410    -0.3160520     0.6373810
  H       -2.0484320    -1.5899530     1.0551950
  H       -2.4714270    -1.2985150    -0.6417240
  H        2.2239110    -1.2047570    -1.3723200
  H        2.2280730    -1.9316170     0.2368100
  H        3.2753640    -0.5218720    -0.0948010
units angstrom
no_reorient  #important for SAPT in psi4, default
symmetry c1  #important for SAPT in psi4, default
}

set PROPERTIES_ORIGIN ["COM"]
properties('MP2/aug-cc-pvtz', properties = ['dipole'])
--------------------------------------------------------------------------

    Molecular point group: c1
  Charge       = 0
  Multiplicity = 1
  Basis Set: AUG-CC-PVTZ
    Blend: AUG-CC-PVTZ
  Basis Set: (AUG-CC-PVTZ AUX)
    Blend: AUG-CC-PVTZ-JKFIT

    Orbital Energies [Eh]
    ---------------------

    Doubly Occupied:

       1A    -20.598829     2A    -20.542432     3A    -11.380255
       4A    -11.293813     5A    -11.237045     6A    -11.222702
       7A    -11.219003     8A     -1.445504     9A     -1.350513
      10A     -1.076262    11A     -1.003973    12A     -0.946875
      13A     -0.833336    14A     -0.766376    15A     -0.690796
      16A     -0.663759    17A     -0.653513    18A     -0.611506
      19A     -0.585104    20A     -0.577407    21A     -0.562701
      22A     -0.549460    23A     -0.533433    24A     -0.516856
      25A     -0.502295    26A     -0.485535    27A     -0.454741
      28A     -0.441838

  @DF-RHF Final Energy:  -345.04035641600728

   => Energetics <=

    Nuclear Repulsion Energy =            320.5673876909955879
    One-Electron Energy =               -1105.7237576093684766
    Two-Electron Energy =                 440.1160135023656039
    Total Energy =                       -345.0403564160072847
  Basis Set: (AUG-CC-PVTZ AUX)
    Blend: AUG-CC-PVTZ-RI
    Molecular point group: c1

    Geometry (in Angstrom), charge = 0, multiplicity = 1:

       Center              X                  Y                   Z               Mass
    ------------   -----------------  -----------------  -----------------  -----------------
         O            0.006706024326    -0.610475922124    -0.195800457057    15.994914619570
         O            1.372610124326     1.009903277876     0.692938842943    15.994914619570
         C           -1.169936675674     0.187236177876     0.208524742943    12.000000000000
         C           -1.422948675674     1.266595177876    -0.826251257057    12.000000000000
         C           -2.297670675674    -0.814637822124     0.324396742943    12.000000000000
         C            1.202161324326    -0.054999822124     0.122822742943    12.000000000000
         C            2.308119324326    -0.982594822124    -0.303974257057    12.000000000000
         H           -0.952525675674     0.642995177876     1.177892742943     1.007825032230
         H           -2.320552675674     1.835976177876    -0.567362257057     1.007825032230
         H           -0.578486675674     1.955223177876    -0.871571257057     1.007825032230
         H           -1.570056675674     0.813106177876    -1.809922257057     1.007825032230
         H           -3.216769675674    -0.312725822124     0.639054742943     1.007825032230
         H           -2.053460675674    -1.586626822124     1.056868742943     1.007825032230
         H           -2.476455675674    -1.295188822124    -0.640050257057     1.007825032230
         H            2.218882324326    -1.201430822124    -1.370646257057     1.007825032230
         H            2.223044324326    -1.928290822124     0.238483742943     1.007825032230
         H            3.270335324326    -0.518545822124    -0.093127257057     1.007825032230

  Basis Set: AUG-CC-PVTZ
    Blend: AUG-CC-PVTZ
  Basis Set: (AUG-CC-PVTZ AUX)
    Blend: AUG-CC-PVTZ-JKFIT
	 Reference Energy          =    -345.0403564160072847 [Eh]
	 Singles Energy            =      -0.0000000000000000 [Eh]
	 Same-Spin Energy          =      -0.3416006284038691 [Eh]
	 Opposite-Spin Energy      =      -1.1328542787269966 [Eh]
	 Correlation Energy        =      -1.4744549071308657 [Eh]
	 Total Energy              =    -346.5148113231381330 [Eh]

	 ================> DF-SCS-MP2 Energies <==================
	-----------------------------------------------------------
	 SCS Same-Spin Scale       =       0.3333333333333333 [-]
	 SCS Opposite-Spin Scale   =       1.2000000000000000 [-]
	 SCS Same-Spin Energy      =      -0.1138668761346230 [Eh]
	 SCS Opposite-Spin Energy  =      -1.3594251344723960 [Eh]
	 SCS Correlation Energy    =      -1.4732920106070191 [Eh]
	 SCS Total Energy          =    -346.5136484266142816 [Eh]
	-----------------------------------------------------------

  Dipole Moment: [D]
     X:    -1.1531      Y:    -1.3039      Z:    -0.7282     Total:     1.8868

*** Psi4 exiting successfully. Buy a developer a beer!
