                               Psi4 1.3.2 release

  ==> Input File <==

--------------------------------------------------------------------------
#psi4
#
memory 32 gb

molecule  {
0 1
  O        0.0007480    -0.5952090    -0.1877880
  O        1.3565350     1.0092090     0.6922610
  C       -1.1337291     0.2190910     0.2262138
  C       -1.4179200     1.2632690    -0.8279250
  C       -2.2926420    -0.8179640     0.3227230
  C        1.1848512    -0.0213433     0.1404888
  C        2.3131480    -0.9859210    -0.3056480
  H       -0.9474970     0.6396690     1.1762190
  H       -2.3155240     1.8326500    -0.5690360
  H       -0.5734580     1.9518970    -0.8732450
  H       -1.5650280     0.8097800    -1.8115960
  H       -3.2117410    -0.3160520     0.6373810
  H       -2.0484320    -1.5899530     1.0551950
  H       -2.4714270    -1.2985150    -0.6417240
  H        2.2239110    -1.2047570    -1.3723200
  H        2.2280730    -1.9316170     0.2368100
  H        3.2753640    -0.5218720    -0.0948010
units angstrom
no_reorient  #important for SAPT in psi4, default
symmetry c1  #important for SAPT in psi4, default
}

set PROPERTIES_ORIGIN ["COM"]
properties('MP2/aug-cc-pvtz', properties = ['dipole'])
--------------------------------------------------------------------------

    Molecular point group: c1
  Charge       = 0
  Multiplicity = 1
  Basis Set: AUG-CC-PVTZ
    Blend: AUG-CC-PVTZ
  Basis Set: (AUG-CC-PVTZ AUX)
    Blend: AUG-CC-PVTZ-JKFIT

    Orbital Energies [Eh]
    ---------------------

    Doubly Occupied:

       1A    -20.598275     2A    -20.548026     3A    -11.377431
       4A    -11.289313     5A    -11.236654     6A    -11.221579
       7A    -11.218037     8A     -1.461084     9A     -1.371634
      10A     -1.069242    11A     -0.992312    12A     -0.942424
      13A     -0.835650    14A     -0.774319    15A     -0.697775
      16A     -0.669380    17A     -0.655985    18A     -0.608010
      19A     -0.586579    20A     -0.572299    21A     -0.564602
      22A     -0.547636    23A     -0.533812    24A     -0.519743
      25A     -0.508071    26A     -0.488358    27A     -0.456643
      28A     -0.439240

  @DF-RHF Final Energy:  -345.03839462079088

   => Energetics <=

    Nuclear Repulsion Energy =            321.6020939063554351
    One-Electron Energy =               -1107.7127548644921262
    Two-Electron Energy =                 441.0722663373458090
    Total Energy =                       -345.0383946207908821
  Basis Set: (AUG-CC-PVTZ AUX)
    Blend: AUG-CC-PVTZ-RI
    Molecular point group: c1

    Geometry (in Angstrom), charge = 0, multiplicity = 1:

       Center              X                  Y                   Z               Mass
    ------------   -----------------  -----------------  -----------------  -----------------
         O           -0.000291146241    -0.603693139983    -0.192338440761    15.994914619570
         O            1.355495853759     1.000724860017     0.687710559239    15.994914619570
         C           -1.134768246241     0.210606860017     0.221663359239    12.000000000000
         C           -1.418959146241     1.254784860017    -0.832475440761    12.000000000000
         C           -2.293681146241    -0.826448139983     0.318172559239    12.000000000000
         C            1.183812053759    -0.029827439983     0.135938359239    12.000000000000
         C            2.312108853759    -0.994405139983    -0.310198440761    12.000000000000
         H           -0.948536146241     0.631184860017     1.171668559239     1.007825032230
         H           -2.316563146241     1.824165860017    -0.573586440761     1.007825032230
         H           -0.574497146241     1.943412860017    -0.877795440761     1.007825032230
         H           -1.566067146241     0.801295860017    -1.816146440761     1.007825032230
         H           -3.212780146241    -0.324536139983     0.632830559239     1.007825032230
         H           -2.049471146241    -1.598437139983     1.050644559239     1.007825032230
         H           -2.472466146241    -1.306999139983    -0.646274440761     1.007825032230
         H            2.222871853759    -1.213241139983    -1.376870440761     1.007825032230
         H            2.227033853759    -1.940101139983     0.232259559239     1.007825032230
         H            3.274324853759    -0.530356139983    -0.099351440761     1.007825032230

  Basis Set: AUG-CC-PVTZ
    Blend: AUG-CC-PVTZ
  Basis Set: (AUG-CC-PVTZ AUX)
    Blend: AUG-CC-PVTZ-JKFIT
	 Reference Energy          =    -345.0383946207908821 [Eh]
	 Singles Energy            =      -0.0000000000000000 [Eh]
	 Same-Spin Energy          =      -0.3405153828978301 [Eh]
	 Opposite-Spin Energy      =      -1.1308904477814448 [Eh]
	 Correlation Energy        =      -1.4714058306792750 [Eh]
	 Total Energy              =    -346.5098004514701415 [Eh]

	 ================> DF-SCS-MP2 Energies <==================
	-----------------------------------------------------------
	 SCS Same-Spin Scale       =       0.3333333333333333 [-]
	 SCS Opposite-Spin Scale   =       1.2000000000000000 [-]
	 SCS Same-Spin Energy      =      -0.1135051276326100 [Eh]
	 SCS Opposite-Spin Energy  =      -1.3570685373377336 [Eh]
	 SCS Correlation Energy    =      -1.4705736649703436 [Eh]
	 SCS Total Energy          =    -346.5089682857612274 [Eh]
	-----------------------------------------------------------

  Dipole Moment: [D]
     X:    -1.0294      Y:    -1.0915      Z:    -0.6316     Total:     1.6279

*** Psi4 exiting successfully. Buy a developer a beer!
