                               Psi4 1.3.2 release

  ==> Input File <==

--------------------------------------------------------------------------
#psi4
#
memory 32 gb

molecule  {
0 1
  O        0.0007480    -0.5952090    -0.1877880
  O        1.3565350     1.0092090     0.6922610
  C       -1.1946667     0.1477797     0.1870074
  C       -1.4179200     1.2632690    -0.8279250
  C       -2.2926420    -0.8179640     0.3227230
  C        1.2280590    -0.0959628     0.1014328
  C        2.3131480    -0.9859210    -0.3056480
  H       -0.9474970     0.6396690     1.1762190
  H       -2.3155240     1.8326500    -0.5690360
  H       -0.5734580     1.9518970    -0.8732450
  H       -1.5650280     0.8097800    -1.8115960
  H       -3.2117410    -0.3160520     0.6373810
  H       -2.0484320    -1.5899530     1.0551950
  H       -2.4714270    -1.2985150    -0.6417240
  H        2.2239110    -1.2047570    -1.3723200
  H        2.2280730    -1.9316170     0.2368100
  H        3.2753640    -0.5218720    -0.0948010
units angstrom
no_reorient  #important for SAPT in psi4, default
symmetry c1  #important for SAPT in psi4, default
}

set PROPERTIES_ORIGIN ["COM"]
properties('MP2/aug-cc-pvtz', properties = ['dipole'])
--------------------------------------------------------------------------

    Molecular point group: c1
  Charge       = 0
  Multiplicity = 1
  Basis Set: AUG-CC-PVTZ
    Blend: AUG-CC-PVTZ
  Basis Set: (AUG-CC-PVTZ AUX)
    Blend: AUG-CC-PVTZ-JKFIT

    Orbital Energies [Eh]
    ---------------------

    Doubly Occupied:

       1A    -20.595844     2A    -20.535987     3A    -11.385406
       4A    -11.292949     5A    -11.242939     6A    -11.221128
       7A    -11.216775     8A     -1.440567     9A     -1.327225
      10A     -1.083589    11A     -1.020620    12A     -0.948549
      13A     -0.839407    14A     -0.756633    15A     -0.689912
      16A     -0.662334    17A     -0.654164    18A     -0.614887
      19A     -0.587164    20A     -0.583839    21A     -0.558148
      22A     -0.548859    23A     -0.536618    24A     -0.519837
      25A     -0.499283    26A     -0.469931    27A     -0.446114
      28A     -0.438642

  @DF-RHF Final Energy:  -345.03114254922832

   => Energetics <=

    Nuclear Repulsion Energy =            320.7886351934689628
    One-Electron Energy =               -1106.2048597582574985
    Two-Electron Energy =                 440.3850820155602150
    Total Energy =                       -345.0311425492283206
  Basis Set: (AUG-CC-PVTZ AUX)
    Blend: AUG-CC-PVTZ-RI
    Molecular point group: c1

    Geometry (in Angstrom), charge = 0, multiplicity = 1:

       Center              X                  Y                   Z               Mass
    ------------   -----------------  -----------------  -----------------  -----------------
         O            0.001793321312    -0.586536261872    -0.183137240895    15.994914619570
         O            1.357580321312     1.017881738128     0.696911759105    15.994914619570
         C           -1.193621378688     0.156452438128     0.191658159105    12.000000000000
         C           -1.416874678688     1.271941738128    -0.823274240895    12.000000000000
         C           -2.291596678688    -0.809291261872     0.327373759105    12.000000000000
         C            1.229104321312    -0.087290061872     0.106083559105    12.000000000000
         C            2.314193321312    -0.977248261872    -0.300997240895    12.000000000000
         H           -0.946451678688     0.648341738128     1.180869759105     1.007825032230
         H           -2.314478678688     1.841322738128    -0.564385240895     1.007825032230
         H           -0.572412678688     1.960569738128    -0.868594240895     1.007825032230
         H           -1.563982678688     0.818452738128    -1.806945240895     1.007825032230
         H           -3.210695678688    -0.307379261872     0.642031759105     1.007825032230
         H           -2.047386678688    -1.581280261872     1.059845759105     1.007825032230
         H           -2.470381678688    -1.289842261872    -0.637073240895     1.007825032230
         H            2.224956321312    -1.196084261872    -1.367669240895     1.007825032230
         H            2.229118321312    -1.922944261872     0.241460759105     1.007825032230
         H            3.276409321312    -0.513199261872    -0.090150240895     1.007825032230

  Basis Set: AUG-CC-PVTZ
    Blend: AUG-CC-PVTZ
  Basis Set: (AUG-CC-PVTZ AUX)
    Blend: AUG-CC-PVTZ-JKFIT
	 Reference Energy          =    -345.0311425492283206 [Eh]
	 Singles Energy            =      -0.0000000000000000 [Eh]
	 Same-Spin Energy          =      -0.3428799183770521 [Eh]
	 Opposite-Spin Energy      =      -1.1344170449570070 [Eh]
	 Correlation Energy        =      -1.4772969633340591 [Eh]
	 Total Energy              =    -346.5084395125624042 [Eh]

	 ================> DF-SCS-MP2 Energies <==================
	-----------------------------------------------------------
	 SCS Same-Spin Scale       =       0.3333333333333333 [-]
	 SCS Opposite-Spin Scale   =       1.2000000000000000 [-]
	 SCS Same-Spin Energy      =      -0.1142933061256840 [Eh]
	 SCS Opposite-Spin Energy  =      -1.3613004539484084 [Eh]
	 SCS Correlation Energy    =      -1.4755937600740925 [Eh]
	 SCS Total Energy          =    -346.5067363093024255 [Eh]
	-----------------------------------------------------------

  Dipole Moment: [D]
     X:    -0.9843      Y:    -1.6447      Z:    -0.8645     Total:     2.1027

*** Psi4 exiting successfully. Buy a developer a beer!
