                               Psi4 1.3.2 release

  ==> Input File <==

--------------------------------------------------------------------------
#psi4
#
memory 32 gb

molecule  {
0 1
  O        0.0345454    -0.5737933    -0.1228724
  O        1.3565350     1.0092090     0.6922610
  C       -1.1649080     0.1839100     0.2068510
  C       -1.4179200     1.2632690    -0.8279250
  C       -2.2926420    -0.8179640     0.3227230
  C        1.2071900    -0.0583260     0.1211490
  C        2.3131480    -0.9859210    -0.3056480
  H       -0.8961061     0.6145396     1.1748189
  H       -2.3155240     1.8326500    -0.5690360
  H       -0.5734580     1.9518970    -0.8732450
  H       -1.5650280     0.8097800    -1.8115960
  H       -3.2117410    -0.3160520     0.6373810
  H       -2.0484320    -1.5899530     1.0551950
  H       -2.4714270    -1.2985150    -0.6417240
  H        2.2239110    -1.2047570    -1.3723200
  H        2.2280730    -1.9316170     0.2368100
  H        3.2753640    -0.5218720    -0.0948010
units angstrom
no_reorient  #important for SAPT in psi4, default
symmetry c1  #important for SAPT in psi4, default
}

set PROPERTIES_ORIGIN ["COM"]
properties('MP2/aug-cc-pvtz', properties = ['dipole'])
--------------------------------------------------------------------------

    Molecular point group: c1
  Charge       = 0
  Multiplicity = 1
  Basis Set: AUG-CC-PVTZ
    Blend: AUG-CC-PVTZ
  Basis Set: (AUG-CC-PVTZ AUX)
    Blend: AUG-CC-PVTZ-JKFIT

    Orbital Energies [Eh]
    ---------------------

    Doubly Occupied:

       1A    -20.595768     2A    -20.530254     3A    -11.372786
       4A    -11.294365     5A    -11.237414     6A    -11.224962
       7A    -11.220488     8A     -1.465759     9A     -1.345283
      10A     -1.081855    11A     -1.004758    12A     -0.948462
      13A     -0.850776    14A     -0.762753    15A     -0.689160
      16A     -0.670848    17A     -0.659908    18A     -0.614503
      19A     -0.583738    20A     -0.577611    21A     -0.561795
      22A     -0.550760    23A     -0.538527    24A     -0.518856
      25A     -0.500745    26A     -0.481523    27A     -0.450074
      28A     -0.438013

  @DF-RHF Final Energy:  -345.04224379709262

   => Energetics <=

    Nuclear Repulsion Energy =            322.3179929978387008
    One-Electron Energy =               -1109.1769868876449436
    Two-Electron Energy =                 441.8167500927136189
    Total Energy =                       -345.0422437970926239
  Basis Set: (AUG-CC-PVTZ AUX)
    Blend: AUG-CC-PVTZ-RI
    Molecular point group: c1

    Geometry (in Angstrom), charge = 0, multiplicity = 1:

       Center              X                  Y                   Z               Mass
    ------------   -----------------  -----------------  -----------------  -----------------
         O            0.028741802768    -0.576901144595    -0.133031619001    15.994914619570
         O            1.350731402768     1.006101155405     0.682101780999    15.994914619570
         C           -1.170711597232     0.180802155405     0.196691780999    12.000000000000
         C           -1.423723597232     1.260161155405    -0.838084219001    12.000000000000
         C           -2.298445597232    -0.821071844595     0.312563780999    12.000000000000
         C            1.201386402768    -0.061433844595     0.110989780999    12.000000000000
         C            2.307344402768    -0.989028844595    -0.315807219001    12.000000000000
         H           -0.901909697232     0.611431755405     1.164659680999     1.007825032230
         H           -2.321327597232     1.829542155405    -0.579195219001     1.007825032230
         H           -0.579261597232     1.948789155405    -0.883404219001     1.007825032230
         H           -1.570831597232     0.806672155405    -1.821755219001     1.007825032230
         H           -3.217544597232    -0.319159844595     0.627221780999     1.007825032230
         H           -2.054235597232    -1.593060844595     1.045035780999     1.007825032230
         H           -2.477230597232    -1.301622844595    -0.651883219001     1.007825032230
         H            2.218107402768    -1.207864844595    -1.382479219001     1.007825032230
         H            2.222269402768    -1.934724844595     0.226650780999     1.007825032230
         H            3.269560402768    -0.524979844595    -0.104960219001     1.007825032230

  Basis Set: AUG-CC-PVTZ
    Blend: AUG-CC-PVTZ
  Basis Set: (AUG-CC-PVTZ AUX)
    Blend: AUG-CC-PVTZ-JKFIT
	 Reference Energy          =    -345.0422437970926239 [Eh]
	 Singles Energy            =      -0.0000000000000000 [Eh]
	 Same-Spin Energy          =      -0.3407100957652682 [Eh]
	 Opposite-Spin Energy      =      -1.1298551054535142 [Eh]
	 Correlation Energy        =      -1.4705652012187824 [Eh]
	 Total Energy              =    -346.5128089983114137 [Eh]

	 ================> DF-SCS-MP2 Energies <==================
	-----------------------------------------------------------
	 SCS Same-Spin Scale       =       0.3333333333333333 [-]
	 SCS Opposite-Spin Scale   =       1.2000000000000000 [-]
	 SCS Same-Spin Energy      =      -0.1135700319217561 [Eh]
	 SCS Opposite-Spin Energy  =      -1.3558261265442171 [Eh]
	 SCS Correlation Energy    =      -1.4693961584659732 [Eh]
	 SCS Total Energy          =    -346.5116399555586213 [Eh]
	-----------------------------------------------------------

  Dipole Moment: [D]
     X:    -1.3361      Y:    -1.4879      Z:    -0.9048     Total:     2.1949

*** Psi4 exiting successfully. Buy a developer a beer!
