                               Psi4 1.3.2 release

  ==> Input File <==

--------------------------------------------------------------------------
#psi4
#
memory 32 gb

molecule  {
0 1
  O       -0.0200880    -0.5569178    -0.1693377
  O        1.3565350     1.0092090     0.6922610
  C       -1.1649080     0.1839100     0.2068510
  C       -1.4179200     1.2632690    -0.8279250
  C       -2.2926420    -0.8179640     0.3227230
  C        1.2071900    -0.0583260     0.1211490
  C        2.3480744    -0.9512965    -0.2871618
  H       -0.9474970     0.6396690     1.1762190
  H       -2.3155240     1.8326500    -0.5690360
  H       -0.5734580     1.9518970    -0.8732450
  H       -1.5650280     0.8097800    -1.8115960
  H       -3.2117410    -0.3160520     0.6373810
  H       -2.0484320    -1.5899530     1.0551950
  H       -2.4714270    -1.2985150    -0.6417240
  H        2.2239110    -1.2047570    -1.3723200
  H        2.2280730    -1.9316170     0.2368100
  H        3.2753640    -0.5218720    -0.0948010
units angstrom
no_reorient  #important for SAPT in psi4, default
symmetry c1  #important for SAPT in psi4, default
}

set PROPERTIES_ORIGIN ["COM"]
properties('MP2/aug-cc-pvtz', properties = ['dipole'])
--------------------------------------------------------------------------

    Molecular point group: c1
  Charge       = 0
  Multiplicity = 1
  Basis Set: AUG-CC-PVTZ
    Blend: AUG-CC-PVTZ
  Basis Set: (AUG-CC-PVTZ AUX)
    Blend: AUG-CC-PVTZ-JKFIT

    Orbital Energies [Eh]
    ---------------------

    Doubly Occupied:

       1A    -20.595928     2A    -20.539707     3A    -11.382719
       4A    -11.286774     5A    -11.244793     6A    -11.220042
       7A    -11.214597     8A     -1.456134     9A     -1.352646
      10A     -1.074979    11A     -1.008692    12A     -0.944723
      13A     -0.847200    14A     -0.764559    15A     -0.693584
      16A     -0.668820    17A     -0.656143    18A     -0.608773
      19A     -0.593743    20A     -0.581265    21A     -0.558971
      22A     -0.546507    23A     -0.537298    24A     -0.520585
      25A     -0.499118    26A     -0.478305    27A     -0.449327
      28A     -0.440435

  @DF-RHF Final Energy:  -345.03908462284039

   => Energetics <=

    Nuclear Repulsion Energy =            321.8939523034972012
    One-Electron Energy =               -1108.3333364896732292
    Two-Electron Energy =                 441.4002995633356932
    Total Energy =                       -345.0390846228403916
  Basis Set: (AUG-CC-PVTZ AUX)
    Blend: AUG-CC-PVTZ-RI
    Molecular point group: c1

    Geometry (in Angstrom), charge = 0, multiplicity = 1:

       Center              X                  Y                   Z               Mass
    ------------   -----------------  -----------------  -----------------  -----------------
         O           -0.020928901686    -0.566989057869    -0.174402642194    15.994914619570
         O            1.355694098314     0.999137742131     0.687196057806    15.994914619570
         C           -1.165748901686     0.173838742131     0.201786057806    12.000000000000
         C           -1.418760901686     1.253197742131    -0.832989942194    12.000000000000
         C           -2.293482901686    -0.828035257869     0.317658057806    12.000000000000
         C            1.206349098314    -0.068397257869     0.116084057806    12.000000000000
         C            2.347233498314    -0.961367757869    -0.292226742194    12.000000000000
         H           -0.948337901686     0.629597742131     1.171154057806     1.007825032230
         H           -2.316364901686     1.822578742131    -0.574100942194     1.007825032230
         H           -0.574298901686     1.941825742131    -0.878309942194     1.007825032230
         H           -1.565868901686     0.799708742131    -1.816660942194     1.007825032230
         H           -3.212581901686    -0.326123257869     0.632316057806     1.007825032230
         H           -2.049272901686    -1.600024257869     1.050130057806     1.007825032230
         H           -2.472267901686    -1.308586257869    -0.646788942194     1.007825032230
         H            2.223070098314    -1.214828257869    -1.377384942194     1.007825032230
         H            2.227232098314    -1.941688257869     0.231745057806     1.007825032230
         H            3.274523098314    -0.531943257869    -0.099865942194     1.007825032230

  Basis Set: AUG-CC-PVTZ
    Blend: AUG-CC-PVTZ
  Basis Set: (AUG-CC-PVTZ AUX)
    Blend: AUG-CC-PVTZ-JKFIT
	 Reference Energy          =    -345.0390846228403916 [Eh]
	 Singles Energy            =      -0.0000000000000000 [Eh]
	 Same-Spin Energy          =      -0.3411460321472746 [Eh]
	 Opposite-Spin Energy      =      -1.1309479472690931 [Eh]
	 Correlation Energy        =      -1.4720939794163677 [Eh]
	 Total Energy              =    -346.5111786022567344 [Eh]

	 ================> DF-SCS-MP2 Energies <==================
	-----------------------------------------------------------
	 SCS Same-Spin Scale       =       0.3333333333333333 [-]
	 SCS Opposite-Spin Scale   =       1.2000000000000000 [-]
	 SCS Same-Spin Energy      =      -0.1137153440490915 [Eh]
	 SCS Opposite-Spin Energy  =      -1.3571375367229117 [Eh]
	 SCS Correlation Energy    =      -1.4708528807720032 [Eh]
	 SCS Total Energy          =    -346.5099375036123774 [Eh]
	-----------------------------------------------------------

  Dipole Moment: [D]
     X:    -0.8204      Y:    -1.4918      Z:    -0.7887     Total:     1.8763

*** Psi4 exiting successfully. Buy a developer a beer!
