                               Psi4 1.3.2 release

  ==> Input File <==

--------------------------------------------------------------------------
#psi4
#
memory 32 gb

molecule  {
0 1
  O        0.0007480    -0.5952090    -0.1877880
  O        1.3565350     1.0092090     0.6922610
  C       -1.1649080     0.1839100     0.2068510
  C       -1.4179200     1.2632690    -0.8279250
  C       -2.2926420    -0.8179640     0.3227230
  C        1.2259298    -0.0221878     0.0879331
  C        2.3131480    -0.9859210    -0.3056480
  H       -0.9474970     0.6396690     1.1762190
  H       -2.3155240     1.8326500    -0.5690360
  H       -0.5734580     1.9518970    -0.8732450
  H       -1.5650280     0.8097800    -1.8115960
  H       -3.2117410    -0.3160520     0.6373810
  H       -2.0484320    -1.5899530     1.0551950
  H       -2.4714270    -1.2985150    -0.6417240
  H        2.2239110    -1.2047570    -1.3723200
  H        2.2589426    -1.9442637     0.2182607
  H        3.2753640    -0.5218720    -0.0948010
units angstrom
no_reorient  #important for SAPT in psi4, default
symmetry c1  #important for SAPT in psi4, default
}

set PROPERTIES_ORIGIN ["COM"]
properties('MP2/aug-cc-pvtz', properties = ['dipole'])
--------------------------------------------------------------------------

    Molecular point group: c1
  Charge       = 0
  Multiplicity = 1
  Basis Set: AUG-CC-PVTZ
    Blend: AUG-CC-PVTZ
  Basis Set: (AUG-CC-PVTZ AUX)
    Blend: AUG-CC-PVTZ-JKFIT

    Orbital Energies [Eh]
    ---------------------

    Doubly Occupied:

       1A    -20.591053     2A    -20.547913     3A    -11.381699
       4A    -11.287906     5A    -11.240869     6A    -11.219641
       7A    -11.216102     8A     -1.446427     9A     -1.356076
      10A     -1.072010    11A     -1.006039    12A     -0.944259
      13A     -0.832117    14A     -0.762271    15A     -0.696182
      16A     -0.663968    17A     -0.653070    18A     -0.612083
      19A     -0.586111    20A     -0.577021    21A     -0.561165
      22A     -0.546875    23A     -0.534030    24A     -0.515977
      25A     -0.503570    26A     -0.482158    27A     -0.453289
      28A     -0.444044

  @DF-RHF Final Energy:  -345.03963623888353

   => Energetics <=

    Nuclear Repulsion Energy =            320.9830104007006639
    One-Electron Energy =               -1106.5774432942805561
    Two-Electron Energy =                 440.5547966546963607
    Total Energy =                       -345.0396362388835314
  Basis Set: (AUG-CC-PVTZ AUX)
    Blend: AUG-CC-PVTZ-RI
    Molecular point group: c1

    Geometry (in Angstrom), charge = 0, multiplicity = 1:

       Center              X                  Y                   Z               Mass
    ------------   -----------------  -----------------  -----------------  -----------------
         O           -0.001759847879    -0.599332798701    -0.183699927597    15.994914619570
         O            1.354027152121     1.005085201299     0.696349072403    15.994914619570
         C           -1.167415847879     0.179786201299     0.210939072403    12.000000000000
         C           -1.420427847879     1.259145201299    -0.823836927597    12.000000000000
         C           -2.295149847879    -0.822087798701     0.326811072403    12.000000000000
         C            1.223421952121    -0.026311598701     0.092021172403    12.000000000000
         C            2.310640152121    -0.990044798701    -0.301559927597    12.000000000000
         H           -0.950004847879     0.635545201299     1.180307072403     1.007825032230
         H           -2.318031847879     1.828526201299    -0.564947927597     1.007825032230
         H           -0.575965847879     1.947773201299    -0.869156927597     1.007825032230
         H           -1.567535847879     0.805656201299    -1.807507927597     1.007825032230
         H           -3.214248847879    -0.320175798701     0.641469072403     1.007825032230
         H           -2.050939847879    -1.594076798701     1.059283072403     1.007825032230
         H           -2.473934847879    -1.302638798701    -0.637635927597     1.007825032230
         H            2.221403152121    -1.208880798701    -1.368231927597     1.007825032230
         H            2.256434752121    -1.948387498701     0.222348772403     1.007825032230
         H            3.272856152121    -0.525995798701    -0.090712927597     1.007825032230

  Basis Set: AUG-CC-PVTZ
    Blend: AUG-CC-PVTZ
  Basis Set: (AUG-CC-PVTZ AUX)
    Blend: AUG-CC-PVTZ-JKFIT
	 Reference Energy          =    -345.0396362388835314 [Eh]
	 Singles Energy            =      -0.0000000000000000 [Eh]
	 Same-Spin Energy          =      -0.3414643560380675 [Eh]
	 Opposite-Spin Energy      =      -1.1323587069424790 [Eh]
	 Correlation Energy        =      -1.4738230629805464 [Eh]
	 Total Energy              =    -346.5134593018640885 [Eh]

	 ================> DF-SCS-MP2 Energies <==================
	-----------------------------------------------------------
	 SCS Same-Spin Scale       =       0.3333333333333333 [-]
	 SCS Opposite-Spin Scale   =       1.2000000000000000 [-]
	 SCS Same-Spin Energy      =      -0.1138214520126891 [Eh]
	 SCS Opposite-Spin Energy  =      -1.3588304483309748 [Eh]
	 SCS Correlation Energy    =      -1.4726519003436640 [Eh]
	 SCS Total Energy          =    -346.5122881392272234 [Eh]
	-----------------------------------------------------------

  Dipole Moment: [D]
     X:    -0.7998      Y:    -1.2668      Z:    -0.7244     Total:     1.6641

*** Psi4 exiting successfully. Buy a developer a beer!
