                               Psi4 1.3.2 release

  ==> Input File <==

--------------------------------------------------------------------------
#psi4
#
memory 32 gb

molecule  {
0 1
  O       -0.0281436    -0.6370390    -0.1872677
  O        1.3565350     1.0092090     0.6922610
  C       -1.1649080     0.1839100     0.2068510
  C       -1.4179200     1.2632690    -0.8279250
  C       -2.2588881    -0.8561620     0.3089269
  C        1.2071900    -0.0583260     0.1211490
  C        2.3131480    -0.9859210    -0.3056480
  H       -0.9474970     0.6396690     1.1762190
  H       -2.3155240     1.8326500    -0.5690360
  H       -0.5734580     1.9518970    -0.8732450
  H       -1.5650280     0.8097800    -1.8115960
  H       -3.2117410    -0.3160520     0.6373810
  H       -2.0484320    -1.5899530     1.0551950
  H       -2.4714270    -1.2985150    -0.6417240
  H        2.2239110    -1.2047570    -1.3723200
  H        2.2280730    -1.9316170     0.2368100
  H        3.2753640    -0.5218720    -0.0948010
units angstrom
no_reorient  #important for SAPT in psi4, default
symmetry c1  #important for SAPT in psi4, default
}

set PROPERTIES_ORIGIN ["COM"]
properties('MP2/aug-cc-pvtz', properties = ['dipole'])
--------------------------------------------------------------------------

    Molecular point group: c1
  Charge       = 0
  Multiplicity = 1
  Basis Set: AUG-CC-PVTZ
    Blend: AUG-CC-PVTZ
  Basis Set: (AUG-CC-PVTZ AUX)
    Blend: AUG-CC-PVTZ-JKFIT

    Orbital Energies [Eh]
    ---------------------

    Doubly Occupied:

       1A    -20.595015     2A    -20.550594     3A    -11.386484
       4A    -11.287960     5A    -11.242011     6A    -11.218616
       7A    -11.217070     8A     -1.438069     9A     -1.352561
      10A     -1.070587    11A     -1.006522    12A     -0.945534
      13A     -0.827347    14A     -0.765570    15A     -0.694029
      16A     -0.660642    17A     -0.651687    18A     -0.613360
      19A     -0.587828    20A     -0.575691    21A     -0.560208
      22A     -0.551115    23A     -0.521983    24A     -0.515538
      25A     -0.506879    26A     -0.484994    27A     -0.455606
      28A     -0.441815

  @DF-RHF Final Energy:  -345.03308502601942

   => Energetics <=

    Nuclear Repulsion Energy =            320.4630087054973728
    One-Electron Energy =               -1105.5415605084153867
    Two-Electron Energy =                 440.0454667768985928
    Total Energy =                       -345.0330850260194211
  Basis Set: (AUG-CC-PVTZ AUX)
    Blend: AUG-CC-PVTZ-RI
    Molecular point group: c1

    Geometry (in Angstrom), charge = 0, multiplicity = 1:

       Center              X                  Y                   Z               Mass
    ------------   -----------------  -----------------  -----------------  -----------------
         O           -0.027584273183    -0.625992962800    -0.185727478052    15.994914619570
         O            1.357094326817     1.020255037200     0.693801221948    15.994914619570
         C           -1.164348673183     0.194956037200     0.208391221948    12.000000000000
         C           -1.417360673183     1.274315037200    -0.826384778052    12.000000000000
         C           -2.258328773183    -0.845115962800     0.310467121948    12.000000000000
         C            1.207749326817    -0.047279962800     0.122689221948    12.000000000000
         C            2.313707326817    -0.974874962800    -0.304107778052    12.000000000000
         H           -0.946937673183     0.650715037200     1.177759221948     1.007825032230
         H           -2.314964673183     1.843696037200    -0.567495778052     1.007825032230
         H           -0.572898673183     1.962943037200    -0.871704778052     1.007825032230
         H           -1.564468673183     0.820826037200    -1.810055778052     1.007825032230
         H           -3.211181673183    -0.305005962800     0.638921221948     1.007825032230
         H           -2.047872673183    -1.578906962800     1.056735221948     1.007825032230
         H           -2.470867673183    -1.287468962800    -0.640183778052     1.007825032230
         H            2.224470326817    -1.193710962800    -1.370779778052     1.007825032230
         H            2.228632326817    -1.920570962800     0.238350221948     1.007825032230
         H            3.275923326817    -0.510825962800    -0.093260778052     1.007825032230

  Basis Set: AUG-CC-PVTZ
    Blend: AUG-CC-PVTZ
  Basis Set: (AUG-CC-PVTZ AUX)
    Blend: AUG-CC-PVTZ-JKFIT
	 Reference Energy          =    -345.0330850260194211 [Eh]
	 Singles Energy            =      -0.0000000000000000 [Eh]
	 Same-Spin Energy          =      -0.3423412212599254 [Eh]
	 Opposite-Spin Energy      =      -1.1345862282001247 [Eh]
	 Correlation Energy        =      -1.4769274494600499 [Eh]
	 Total Energy              =    -346.5100124754794706 [Eh]

	 ================> DF-SCS-MP2 Energies <==================
	-----------------------------------------------------------
	 SCS Same-Spin Scale       =       0.3333333333333333 [-]
	 SCS Opposite-Spin Scale   =       1.2000000000000000 [-]
	 SCS Same-Spin Energy      =      -0.1141137404199751 [Eh]
	 SCS Opposite-Spin Energy  =      -1.3615034738401495 [Eh]
	 SCS Correlation Energy    =      -1.4756172142601245 [Eh]
	 SCS Total Energy          =    -346.5087022402795469 [Eh]
	-----------------------------------------------------------

  Dipole Moment: [D]
     X:    -0.7192      Y:    -1.2512      Z:    -0.7246     Total:     1.6148

*** Psi4 exiting successfully. Buy a developer a beer!
