                               Psi4 1.3.2 release

  ==> Input File <==

--------------------------------------------------------------------------
#psi4
#
memory 32 gb

molecule  {
0 1
  O        0.0007480    -0.5952090    -0.1877880
  O        1.3565350     1.0092090     0.6922610
  C       -1.1649080     0.1839100     0.2068510
  C       -1.4179200     1.2632690    -0.8279250
  C       -2.2926420    -0.8179640     0.3227230
  C        1.3851094     0.0208506     0.1667093
  C        2.3131480    -0.9859210    -0.3056480
  H       -0.9474970     0.6396690     1.1762190
  H       -2.3155240     1.8326500    -0.5690360
  H       -0.5734580     1.9518970    -0.8732450
  H       -1.5650280     0.8097800    -1.8115960
  H       -3.2117410    -0.3160520     0.6373810
  H       -2.0484320    -1.5899530     1.0551950
  H       -2.4714270    -1.2985150    -0.6417240
  H        2.2239110    -1.2047570    -1.3723200
  H        2.2280730    -1.9316170     0.2368100
  H        3.2753640    -0.5218720    -0.0948010
units angstrom
no_reorient  #important for SAPT in psi4, default
symmetry c1  #important for SAPT in psi4, default
}

set PROPERTIES_ORIGIN ["COM"]
properties('MP2/aug-cc-pvtz', properties = ['dipole'])
--------------------------------------------------------------------------

    Molecular point group: c1
  Charge       = 0
  Multiplicity = 1
  Basis Set: AUG-CC-PVTZ
    Blend: AUG-CC-PVTZ
  Basis Set: (AUG-CC-PVTZ AUX)
    Blend: AUG-CC-PVTZ-JKFIT

    Orbital Energies [Eh]
    ---------------------

    Doubly Occupied:

       1A    -20.581609     2A    -20.542314     3A    -11.386487
       4A    -11.267056     5A    -11.254011     6A    -11.205400
       7A    -11.203896     8A     -1.491686     9A     -1.315467
      10A     -1.063191    11A     -1.018172    12A     -0.929871
      13A     -0.800085    14A     -0.754281    15A     -0.710925
      16A     -0.681692    17A     -0.655453    18A     -0.611448
      19A     -0.594133    20A     -0.573314    21A     -0.562777
      22A     -0.548523    23A     -0.532542    24A     -0.501601
      25A     -0.496770    26A     -0.477697    27A     -0.429136
      28A     -0.422648

  @DF-RHF Final Energy:  -345.00364766178615

   => Energetics <=

    Nuclear Repulsion Energy =            319.9252374038515541
    One-Electron Energy =               -1104.6334048891683324
    Two-Electron Energy =                 439.7045198235306884
    Total Energy =                       -345.0036476617861467
  Basis Set: (AUG-CC-PVTZ AUX)
    Blend: AUG-CC-PVTZ-RI
    Molecular point group: c1

    Geometry (in Angstrom), charge = 0, multiplicity = 1:

       Center              X                  Y                   Z               Mass
    ------------   -----------------  -----------------  -----------------  -----------------
         O           -0.020169560812    -0.604517636734    -0.193144690867    15.994914619570
         O            1.335617439188     0.999900363266     0.686904309133    15.994914619570
         C           -1.185825560812     0.174601363266     0.201494309133    12.000000000000
         C           -1.438837560812     1.253960363266    -0.833281690867    12.000000000000
         C           -2.313559560812    -0.827272636734     0.317366309133    12.000000000000
         C            1.364191839188     0.011541963266     0.161352609133    12.000000000000
         C            2.292230439188    -0.995229636734    -0.311004690867    12.000000000000
         H           -0.968414560812     0.630360363266     1.170862309133     1.007825032230
         H           -2.336441560812     1.823341363266    -0.574392690867     1.007825032230
         H           -0.594375560812     1.942588363266    -0.878601690867     1.007825032230
         H           -1.585945560812     0.800471363266    -1.816952690867     1.007825032230
         H           -3.232658560812    -0.325360636734     0.632024309133     1.007825032230
         H           -2.069349560812    -1.599261636734     1.049838309133     1.007825032230
         H           -2.492344560812    -1.307823636734    -0.647080690867     1.007825032230
         H            2.202993439188    -1.214065636734    -1.377676690867     1.007825032230
         H            2.207155439188    -1.940925636734     0.231453309133     1.007825032230
         H            3.254446439188    -0.531180636734    -0.100157690867     1.007825032230

  Basis Set: AUG-CC-PVTZ
    Blend: AUG-CC-PVTZ
  Basis Set: (AUG-CC-PVTZ AUX)
    Blend: AUG-CC-PVTZ-JKFIT
	 Reference Energy          =    -345.0036476617861467 [Eh]
	 Singles Energy            =      -0.0000000000000000 [Eh]
	 Same-Spin Energy          =      -0.3424747635995372 [Eh]
	 Opposite-Spin Energy      =      -1.1343125366031568 [Eh]
	 Correlation Energy        =      -1.4767873002026941 [Eh]
	 Total Energy              =    -346.4804349619888626 [Eh]

	 ================> DF-SCS-MP2 Energies <==================
	-----------------------------------------------------------
	 SCS Same-Spin Scale       =       0.3333333333333333 [-]
	 SCS Opposite-Spin Scale   =       1.2000000000000000 [-]
	 SCS Same-Spin Energy      =      -0.1141582545331791 [Eh]
	 SCS Opposite-Spin Energy  =      -1.3611750439237882 [Eh]
	 SCS Correlation Energy    =      -1.4753332984569671 [Eh]
	 SCS Total Energy          =    -346.4789809602431205 [Eh]
	-----------------------------------------------------------

  Dipole Moment: [D]
     X:     0.9271      Y:    -0.8750      Z:    -0.3608     Total:     1.3249

*** Psi4 exiting successfully. Buy a developer a beer!
