                               Psi4 1.3.2 release

  ==> Input File <==

--------------------------------------------------------------------------
#psi4
#
memory 32 gb

molecule  {
0 1
  O        0.0007480    -0.5952090    -0.1877880
  O        1.3565350     1.0092090     0.6922610
  C       -1.1649080     0.1839100     0.2068510
  C       -1.4179200     1.2632690    -0.8279250
  C       -2.2926420    -0.8179640     0.3227230
  C        1.1816134    -0.1146382     0.1699854
  C        2.3131480    -0.9859210    -0.3056480
  H       -0.9474970     0.6396690     1.1762190
  H       -2.3155240     1.8326500    -0.5690360
  H       -0.5734580     1.9518970    -0.8732450
  H       -1.5650280     0.8097800    -1.8115960
  H       -3.2117410    -0.3160520     0.6373810
  H       -2.0484320    -1.5899530     1.0551950
  H       -2.4714270    -1.2985150    -0.6417240
  H        2.2239110    -1.2047570    -1.3723200
  H        2.1819747    -1.9104917     0.2633879
  H        3.2753640    -0.5218720    -0.0948010
units angstrom
no_reorient  #important for SAPT in psi4, default
symmetry c1  #important for SAPT in psi4, default
}

set PROPERTIES_ORIGIN ["COM"]
properties('MP2/aug-cc-pvtz', properties = ['dipole'])
--------------------------------------------------------------------------

    Molecular point group: c1
  Charge       = 0
  Multiplicity = 1
  Basis Set: AUG-CC-PVTZ
    Blend: AUG-CC-PVTZ
  Basis Set: (AUG-CC-PVTZ AUX)
    Blend: AUG-CC-PVTZ-JKFIT

    Orbital Energies [Eh]
    ---------------------

    Doubly Occupied:

       1A    -20.604999     2A    -20.533719     3A    -11.381801
       4A    -11.294551     5A    -11.240141     6A    -11.223785
       7A    -11.218493     8A     -1.457693     9A     -1.333696
      10A     -1.081028    11A     -1.006828    12A     -0.947616
      13A     -0.844393    14A     -0.769987    15A     -0.685453
      16A     -0.669253    17A     -0.655932    18A     -0.609643
      19A     -0.588296    20A     -0.578812    21A     -0.560339
      22A     -0.550405    23A     -0.534278    24A     -0.520303
      25A     -0.499043    26A     -0.484457    27A     -0.447538
      28A     -0.437381

  @DF-RHF Final Energy:  -345.03604773824804

   => Energetics <=

    Nuclear Repulsion Energy =            321.2940057052392717
    One-Electron Energy =               -1107.1403755581559381
    Two-Electron Energy =                 440.8103221146686792
    Total Energy =                       -345.0360477382480440
  Basis Set: (AUG-CC-PVTZ AUX)
    Blend: AUG-CC-PVTZ-RI
    Molecular point group: c1

    Geometry (in Angstrom), charge = 0, multiplicity = 1:

       Center              X                  Y                   Z               Mass
    ------------   -----------------  -----------------  -----------------  -----------------
         O            0.004210353372    -0.588797002029    -0.193792288757    15.994914619570
         O            1.359997353372     1.015620997971     0.686256711243    15.994914619570
         C           -1.161445646628     0.190321997971     0.200846711243    12.000000000000
         C           -1.414457646628     1.269680997971    -0.833929288757    12.000000000000
         C           -2.289179646628    -0.811552002029     0.316718711243    12.000000000000
         C            1.185075753372    -0.108226202029     0.163981111243    12.000000000000
         C            2.316610353372    -0.979509002029    -0.311652288757    12.000000000000
         H           -0.944034646628     0.646080997971     1.170214711243     1.007825032230
         H           -2.312061646628     1.839061997971    -0.575040288757     1.007825032230
         H           -0.569995646628     1.958308997971    -0.879249288757     1.007825032230
         H           -1.561565646628     0.816191997971    -1.817600288757     1.007825032230
         H           -3.208278646628    -0.309640002029     0.631376711243     1.007825032230
         H           -2.044969646628    -1.583541002029     1.049190711243     1.007825032230
         H           -2.467964646628    -1.292103002029    -0.647728288757     1.007825032230
         H            2.227373353372    -1.198345002029    -1.378324288757     1.007825032230
         H            2.185437053372    -1.904079702029     0.257383611243     1.007825032230
         H            3.278826353372    -0.515460002029    -0.100805288757     1.007825032230

  Basis Set: AUG-CC-PVTZ
    Blend: AUG-CC-PVTZ
  Basis Set: (AUG-CC-PVTZ AUX)
    Blend: AUG-CC-PVTZ-JKFIT
	 Reference Energy          =    -345.0360477382480440 [Eh]
	 Singles Energy            =      -0.0000000000000000 [Eh]
	 Same-Spin Energy          =      -0.3419042311220302 [Eh]
	 Opposite-Spin Energy      =      -1.1330129983546313 [Eh]
	 Correlation Energy        =      -1.4749172294766615 [Eh]
	 Total Energy              =    -346.5109649677247035 [Eh]

	 ================> DF-SCS-MP2 Energies <==================
	-----------------------------------------------------------
	 SCS Same-Spin Scale       =       0.3333333333333333 [-]
	 SCS Opposite-Spin Scale   =       1.2000000000000000 [-]
	 SCS Same-Spin Energy      =      -0.1139680770406767 [Eh]
	 SCS Opposite-Spin Energy  =      -1.3596155980255575 [Eh]
	 SCS Correlation Energy    =      -1.4735836750662343 [Eh]
	 SCS Total Energy          =    -346.5096314133142528 [Eh]
	-----------------------------------------------------------

  Dipole Moment: [D]
     X:    -1.2706      Y:    -1.5269      Z:    -0.7986     Total:     2.1410

*** Psi4 exiting successfully. Buy a developer a beer!
