                               Psi4 1.3.2 release

  ==> Input File <==

--------------------------------------------------------------------------
#psi4
#
memory 32 gb

molecule  {
0 1
  O        0.0007480    -0.5952090    -0.1877880
  O        1.3565350     1.0092090     0.6922610
  C       -1.1176189     0.2363121     0.2357075
  C       -1.4179200     1.2632690    -0.8279250
  C       -2.2926420    -0.8179640     0.3227230
  C        1.1731390    -0.0031114     0.1500101
  C        2.3131480    -0.9859210    -0.3056480
  H       -0.9474970     0.6396690     1.1762190
  H       -2.3155240     1.8326500    -0.5690360
  H       -0.5734580     1.9518970    -0.8732450
  H       -1.5650280     0.8097800    -1.8115960
  H       -3.2117410    -0.3160520     0.6373810
  H       -2.0484320    -1.5899530     1.0551950
  H       -2.4714270    -1.2985150    -0.6417240
  H        2.2239110    -1.2047570    -1.3723200
  H        2.2280730    -1.9316170     0.2368100
  H        3.2753640    -0.5218720    -0.0948010
units angstrom
no_reorient  #important for SAPT in psi4, default
symmetry c1  #important for SAPT in psi4, default
}

set PROPERTIES_ORIGIN ["COM"]
properties('MP2/aug-cc-pvtz', properties = ['dipole'])
--------------------------------------------------------------------------

    Molecular point group: c1
  Charge       = 0
  Multiplicity = 1
  Basis Set: AUG-CC-PVTZ
    Blend: AUG-CC-PVTZ
  Basis Set: (AUG-CC-PVTZ AUX)
    Blend: AUG-CC-PVTZ-JKFIT

    Orbital Energies [Eh]
    ---------------------

    Doubly Occupied:

       1A    -20.599245     2A    -20.551147     3A    -11.375908
       4A    -11.289028     5A    -11.234511     6A    -11.221693
       7A    -11.218745     8A     -1.468923     9A     -1.381058
      10A     -1.066579    11A     -0.985738    12A     -0.940716
      13A     -0.835478    14A     -0.778824    15A     -0.701727
      16A     -0.672141    17A     -0.657469    18A     -0.606845
      19A     -0.587889    20A     -0.569637    21A     -0.565359
      22A     -0.547164    23A     -0.534460    24A     -0.521261
      25A     -0.512742    26A     -0.489612    27A     -0.456308
      28A     -0.435278

  @DF-RHF Final Energy:  -345.03118311720243

   => Energetics <=

    Nuclear Repulsion Energy =            321.8453974074971597
    One-Electron Energy =               -1108.1421902545014291
    Two-Electron Energy =                 441.2656097298018949
    Total Energy =                       -345.0311831172024313
  Basis Set: (AUG-CC-PVTZ AUX)
    Blend: AUG-CC-PVTZ-RI
    Molecular point group: c1

    Geometry (in Angstrom), charge = 0, multiplicity = 1:

       Center              X                  Y                   Z               Mass
    ------------   -----------------  -----------------  -----------------  -----------------
         O           -0.000808212891    -0.607861299135    -0.194574007463    15.994914619570
         O            1.354978787109     0.996556700865     0.685474992537    15.994914619570
         C           -1.119175112891     0.223659800865     0.228921492537    12.000000000000
         C           -1.419476212891     1.250616700865    -0.834711007463    12.000000000000
         C           -2.294198212891    -0.830616299135     0.315936992537    12.000000000000
         C            1.171582787109    -0.015763699135     0.143224092537    12.000000000000
         C            2.311591787109    -0.998573299135    -0.312434007463    12.000000000000
         H           -0.949053212891     0.627016700865     1.169432992537     1.007825032230
         H           -2.317080212891     1.819997700865    -0.575822007463     1.007825032230
         H           -0.575014212891     1.939244700865    -0.880031007463     1.007825032230
         H           -1.566584212891     0.797127700865    -1.818382007463     1.007825032230
         H           -3.213297212891    -0.328704299135     0.630594992537     1.007825032230
         H           -2.049988212891    -1.602605299135     1.048408992537     1.007825032230
         H           -2.472983212891    -1.311167299135    -0.648510007463     1.007825032230
         H            2.222354787109    -1.217409299135    -1.379106007463     1.007825032230
         H            2.226516787109    -1.944269299135     0.230023992537     1.007825032230
         H            3.273807787109    -0.534524299135    -0.101587007463     1.007825032230

  Basis Set: AUG-CC-PVTZ
    Blend: AUG-CC-PVTZ
  Basis Set: (AUG-CC-PVTZ AUX)
    Blend: AUG-CC-PVTZ-JKFIT
	 Reference Energy          =    -345.0311831172024313 [Eh]
	 Singles Energy            =      -0.0000000000000000 [Eh]
	 Same-Spin Energy          =      -0.3402227624036459 [Eh]
	 Opposite-Spin Energy      =      -1.1305736847327328 [Eh]
	 Correlation Energy        =      -1.4707964471363786 [Eh]
	 Total Energy              =    -346.5019795643387965 [Eh]

	 ================> DF-SCS-MP2 Energies <==================
	-----------------------------------------------------------
	 SCS Same-Spin Scale       =       0.3333333333333333 [-]
	 SCS Opposite-Spin Scale   =       1.2000000000000000 [-]
	 SCS Same-Spin Energy      =      -0.1134075874678819 [Eh]
	 SCS Opposite-Spin Energy  =      -1.3566884216792794 [Eh]
	 SCS Correlation Energy    =      -1.4700960091471613 [Eh]
	 SCS Total Energy          =    -346.5012791263495728 [Eh]
	-----------------------------------------------------------

  Dipole Moment: [D]
     X:    -1.0547      Y:    -0.9459      Z:    -0.5708     Total:     1.5274

*** Psi4 exiting successfully. Buy a developer a beer!
