                               Psi4 1.3.2 release

  ==> Input File <==

--------------------------------------------------------------------------
#psi4
#
memory 32 gb

molecule  {
0 1
  O       -0.0201198    -0.5575379    -0.1681363
  O        1.3141973     1.0134965     0.6937306
  C       -1.1649080     0.1839100     0.2068510
  C       -1.4179200     1.2632690    -0.8279250
  C       -2.2926420    -0.8179640     0.3227230
  C        1.2071900    -0.0583260     0.1211490
  C        2.3131480    -0.9859210    -0.3056480
  H       -0.9474970     0.6396690     1.1762190
  H       -2.3155240     1.8326500    -0.5690360
  H       -0.5734580     1.9518970    -0.8732450
  H       -1.5650280     0.8097800    -1.8115960
  H       -3.2117410    -0.3160520     0.6373810
  H       -2.0484320    -1.5899530     1.0551950
  H       -2.4714270    -1.2985150    -0.6417240
  H        2.2239110    -1.2047570    -1.3723200
  H        2.2280730    -1.9316170     0.2368100
  H        3.2753640    -0.5218720    -0.0948010
units angstrom
no_reorient  #important for SAPT in psi4, default
symmetry c1  #important for SAPT in psi4, default
}

set PROPERTIES_ORIGIN ["COM"]
properties('MP2/aug-cc-pvtz', properties = ['dipole'])
--------------------------------------------------------------------------

    Molecular point group: c1
  Charge       = 0
  Multiplicity = 1
  Basis Set: AUG-CC-PVTZ
    Blend: AUG-CC-PVTZ
  Basis Set: (AUG-CC-PVTZ AUX)
    Blend: AUG-CC-PVTZ-JKFIT

    Orbital Energies [Eh]
    ---------------------

    Doubly Occupied:

       1A    -20.592214     2A    -20.540970     3A    -11.383118
       4A    -11.284507     5A    -11.246426     6A    -11.218696
       7A    -11.213329     8A     -1.456472     9A     -1.350351
      10A     -1.074813    11A     -1.009891    12A     -0.943349
      13A     -0.845155    14A     -0.762694    15A     -0.694908
      16A     -0.668175    17A     -0.655853    18A     -0.610587
      19A     -0.587553    20A     -0.580592    21A     -0.560243
      22A     -0.545845    23A     -0.536798    24A     -0.519100
      25A     -0.500575    26A     -0.476733    27A     -0.450043
      28A     -0.440635

  @DF-RHF Final Energy:  -345.04150018625347

   => Energetics <=

    Nuclear Repulsion Energy =            322.4018472457804023
    One-Electron Energy =               -1109.3874460407992046
    Two-Electron Energy =                 441.9440986087653869
    Total Energy =                       -345.0415001862534723
  Basis Set: (AUG-CC-PVTZ AUX)
    Blend: AUG-CC-PVTZ-RI
    Molecular point group: c1

    Geometry (in Angstrom), charge = 0, multiplicity = 1:

       Center              X                  Y                   Z               Mass
    ------------   -----------------  -----------------  -----------------  -----------------
         O           -0.010214802089    -0.564113116289    -0.171446413614    15.994914619570
         O            1.324102297911     1.006921283711     0.690420486386    15.994914619570
         C           -1.155003002089     0.177334783711     0.203540886386    12.000000000000
         C           -1.408015002089     1.256693783711    -0.831235113614    12.000000000000
         C           -2.282737002089    -0.824539216289     0.319412886386    12.000000000000
         C            1.217094997911    -0.064901216289     0.117838886386    12.000000000000
         C            2.323052997911    -0.992496216289    -0.308958113614    12.000000000000
         H           -0.937592002089     0.633093783711     1.172908886386     1.007825032230
         H           -2.305619002089     1.826074783711    -0.572346113614     1.007825032230
         H           -0.563553002089     1.945321783711    -0.876555113614     1.007825032230
         H           -1.555123002089     0.803204783711    -1.814906113614     1.007825032230
         H           -3.201836002089    -0.322627216289     0.634070886386     1.007825032230
         H           -2.038527002089    -1.596528216289     1.051884886386     1.007825032230
         H           -2.461522002089    -1.305090216289    -0.645034113614     1.007825032230
         H            2.233815997911    -1.211332216289    -1.375630113614     1.007825032230
         H            2.237977997911    -1.938192216289     0.233499886386     1.007825032230
         H            3.285268997911    -0.528447216289    -0.098111113614     1.007825032230

  Basis Set: AUG-CC-PVTZ
    Blend: AUG-CC-PVTZ
  Basis Set: (AUG-CC-PVTZ AUX)
    Blend: AUG-CC-PVTZ-JKFIT
	 Reference Energy          =    -345.0415001862534723 [Eh]
	 Singles Energy            =      -0.0000000000000000 [Eh]
	 Same-Spin Energy          =      -0.3413266095475301 [Eh]
	 Opposite-Spin Energy      =      -1.1311821897017116 [Eh]
	 Correlation Energy        =      -1.4725087992492418 [Eh]
	 Total Energy              =    -346.5140089855026986 [Eh]

	 ================> DF-SCS-MP2 Energies <==================
	-----------------------------------------------------------
	 SCS Same-Spin Scale       =       0.3333333333333333 [-]
	 SCS Opposite-Spin Scale   =       1.2000000000000000 [-]
	 SCS Same-Spin Energy      =      -0.1137755365158434 [Eh]
	 SCS Opposite-Spin Energy  =      -1.3574186276420539 [Eh]
	 SCS Correlation Energy    =      -1.4711941641578972 [Eh]
	 SCS Total Energy          =    -346.5126943504113797 [Eh]
	-----------------------------------------------------------

  Dipole Moment: [D]
     X:    -0.6837      Y:    -1.5138      Z:    -0.7949     Total:     1.8415

*** Psi4 exiting successfully. Buy a developer a beer!
