                               Psi4 1.3.2 release

  ==> Input File <==

--------------------------------------------------------------------------
#psi4
#
memory 32 gb

molecule  {
0 1
  O        0.0052463    -0.5659016    -0.2290867
  O        1.3565350     1.0092090     0.6922610
  C       -1.1649080     0.1839100     0.2068510
  C       -1.3759875     1.2457682    -0.8550788
  C       -2.2926420    -0.8179640     0.3227230
  C        1.2071900    -0.0583260     0.1211490
  C        2.3131480    -0.9859210    -0.3056480
  H       -0.9474970     0.6396690     1.1762190
  H       -2.3155240     1.8326500    -0.5690360
  H       -0.5734580     1.9518970    -0.8732450
  H       -1.5650280     0.8097800    -1.8115960
  H       -3.2117410    -0.3160520     0.6373810
  H       -2.0484320    -1.5899530     1.0551950
  H       -2.4714270    -1.2985150    -0.6417240
  H        2.2239110    -1.2047570    -1.3723200
  H        2.2280730    -1.9316170     0.2368100
  H        3.2753640    -0.5218720    -0.0948010
units angstrom
no_reorient  #important for SAPT in psi4, default
symmetry c1  #important for SAPT in psi4, default
}

set PROPERTIES_ORIGIN ["COM"]
properties('MP2/aug-cc-pvtz', properties = ['dipole'])
--------------------------------------------------------------------------

    Molecular point group: c1
  Charge       = 0
  Multiplicity = 1
  Basis Set: AUG-CC-PVTZ
    Blend: AUG-CC-PVTZ
  Basis Set: (AUG-CC-PVTZ AUX)
    Blend: AUG-CC-PVTZ-JKFIT

    Orbital Energies [Eh]
    ---------------------

    Doubly Occupied:

       1A    -20.595276     2A    -20.540482     3A    -11.380104
       4A    -11.291518     5A    -11.239839     6A    -11.223116
       7A    -11.216461     8A     -1.450282     9A     -1.349767
      10A     -1.076108    11A     -1.005373    12A     -0.946629
      13A     -0.837465    14A     -0.767139    15A     -0.691996
      16A     -0.665526    17A     -0.653363    18A     -0.613454
      19A     -0.583909    20A     -0.576540    21A     -0.565010
      22A     -0.551615    23A     -0.534747    24A     -0.510891
      25A     -0.500546    26A     -0.487596    27A     -0.448715
      28A     -0.443129

  @DF-RHF Final Energy:  -345.03859275735039

   => Energetics <=

    Nuclear Repulsion Energy =            321.6232678419749504
    One-Electron Energy =               -1107.8305312148413577
    Two-Electron Energy =                 441.1686706155160778
    Total Energy =                       -345.0385927573503864
  Basis Set: (AUG-CC-PVTZ AUX)
    Blend: AUG-CC-PVTZ-RI
    Molecular point group: c1

    Geometry (in Angstrom), charge = 0, multiplicity = 1:

       Center              X                  Y                   Z               Mass
    ------------   -----------------  -----------------  -----------------  -----------------
         O           -0.000388393903    -0.568436723974    -0.219422647977    15.994914619570
         O            1.350900306097     1.006673876026     0.701925052023    15.994914619570
         C           -1.170542693903     0.181374876026     0.216515052023    12.000000000000
         C           -1.381622193903     1.243233076026    -0.845414747977    12.000000000000
         C           -2.298276693903    -0.820499123974     0.332387052023    12.000000000000
         C            1.201555306097    -0.060861123974     0.130813052023    12.000000000000
         C            2.307513306097    -0.988456123974    -0.295983947977    12.000000000000
         H           -0.953131693903     0.637133876026     1.185883052023     1.007825032230
         H           -2.321158693903     1.830114876026    -0.559371947977     1.007825032230
         H           -0.579092693903     1.949361876026    -0.863580947977     1.007825032230
         H           -1.570662693903     0.807244876026    -1.801931947977     1.007825032230
         H           -3.217375693903    -0.318587123974     0.647045052023     1.007825032230
         H           -2.054066693903    -1.592488123974     1.064859052023     1.007825032230
         H           -2.477061693903    -1.301050123974    -0.632059947977     1.007825032230
         H            2.218276306097    -1.207292123974    -1.362655947977     1.007825032230
         H            2.222438306097    -1.934152123974     0.246474052023     1.007825032230
         H            3.269729306097    -0.524407123974    -0.085136947977     1.007825032230

  Basis Set: AUG-CC-PVTZ
    Blend: AUG-CC-PVTZ
  Basis Set: (AUG-CC-PVTZ AUX)
    Blend: AUG-CC-PVTZ-JKFIT
	 Reference Energy          =    -345.0385927573503864 [Eh]
	 Singles Energy            =      -0.0000000000000000 [Eh]
	 Same-Spin Energy          =      -0.3414665425365829 [Eh]
	 Opposite-Spin Energy      =      -1.1321712992890198 [Eh]
	 Correlation Energy        =      -1.4736378418256026 [Eh]
	 Total Energy              =    -346.5122305991760072 [Eh]

	 ================> DF-SCS-MP2 Energies <==================
	-----------------------------------------------------------
	 SCS Same-Spin Scale       =       0.3333333333333333 [-]
	 SCS Opposite-Spin Scale   =       1.2000000000000000 [-]
	 SCS Same-Spin Energy      =      -0.1138221808455276 [Eh]
	 SCS Opposite-Spin Energy  =      -1.3586055591468238 [Eh]
	 SCS Correlation Energy    =      -1.4724277399923515 [Eh]
	 SCS Total Energy          =    -346.5110204973427130 [Eh]
	-----------------------------------------------------------

  Dipole Moment: [D]
     X:    -1.0392      Y:    -1.4624      Z:    -0.7077     Total:     1.9285

*** Psi4 exiting successfully. Buy a developer a beer!
