                               Psi4 1.3.2 release

  ==> Input File <==

--------------------------------------------------------------------------
#psi4
#
memory 32 gb

molecule  {
0 1
  O        0.0031751    -0.5806717    -0.2085006
  O        1.3565350     1.0092090     0.6922610
  C       -1.1649080     0.1839100     0.2068510
  C       -1.3969891     1.2546817    -0.8416616
  C       -2.2926420    -0.8179640     0.3227230
  C        1.2071900    -0.0583260     0.1211490
  C        2.3131480    -0.9859210    -0.3056480
  H       -0.9474970     0.6396690     1.1762190
  H       -2.3155240     1.8326500    -0.5690360
  H       -0.5734580     1.9518970    -0.8732450
  H       -1.5650280     0.8097800    -1.8115960
  H       -3.2117410    -0.3160520     0.6373810
  H       -2.0484320    -1.5899530     1.0551950
  H       -2.4714270    -1.2985150    -0.6417240
  H        2.2239110    -1.2047570    -1.3723200
  H        2.2280730    -1.9316170     0.2368100
  H        3.2753640    -0.5218720    -0.0948010
units angstrom
no_reorient  #important for SAPT in psi4, default
symmetry c1  #important for SAPT in psi4, default
}

set PROPERTIES_ORIGIN ["COM"]
properties('MP2/aug-cc-pvtz', properties = ['dipole'])
--------------------------------------------------------------------------

    Molecular point group: c1
  Charge       = 0
  Multiplicity = 1
  Basis Set: AUG-CC-PVTZ
    Blend: AUG-CC-PVTZ
  Basis Set: (AUG-CC-PVTZ AUX)
    Blend: AUG-CC-PVTZ-JKFIT

    Orbital Energies [Eh]
    ---------------------

    Doubly Occupied:

       1A    -20.596039     2A    -20.541144     3A    -11.380555
       4A    -11.291063     5A    -11.239972     6A    -11.222248
       7A    -11.216663     8A     -1.449663     9A     -1.350068
      10A     -1.075895    11A     -1.005663    12A     -0.946106
      13A     -0.837293    14A     -0.766147    15A     -0.691988
      16A     -0.665334    17A     -0.653794    18A     -0.612154
      19A     -0.584035    20A     -0.577652    21A     -0.563575
      22A     -0.550066    23A     -0.534467    24A     -0.514004
      25A     -0.501927    26A     -0.485322    27A     -0.450938
      28A     -0.442798

  @DF-RHF Final Energy:  -345.04120852934244

   => Energetics <=

    Nuclear Repulsion Energy =            321.3948976329853622
    One-Electron Energy =               -1107.3790667317380212
    Two-Electron Energy =                 440.9429605694102179
    Total Energy =                       -345.0412085293424411
  Basis Set: (AUG-CC-PVTZ AUX)
    Blend: AUG-CC-PVTZ-RI
    Molecular point group: c1

    Geometry (in Angstrom), charge = 0, multiplicity = 1:

       Center              X                  Y                   Z               Mass
    ------------   -----------------  -----------------  -----------------  -----------------
         O            0.000334108774    -0.581940174411    -0.203640001848    15.994914619570
         O            1.353694008774     1.007940525589     0.697121598152    15.994914619570
         C           -1.167748991226     0.182641525589     0.211711598152    12.000000000000
         C           -1.399830091226     1.253413225589    -0.836801001848    12.000000000000
         C           -2.295482991226    -0.819232474411     0.327583598152    12.000000000000
         C            1.204349008774    -0.059594474411     0.126009598152    12.000000000000
         C            2.310307008774    -0.987189474411    -0.300787401848    12.000000000000
         H           -0.950337991226     0.638400525589     1.181079598152     1.007825032230
         H           -2.318364991226     1.831381525589    -0.564175401848     1.007825032230
         H           -0.576298991226     1.950628525589    -0.868384401848     1.007825032230
         H           -1.567868991226     0.808511525589    -1.806735401848     1.007825032230
         H           -3.214581991226    -0.317320474411     0.642241598152     1.007825032230
         H           -2.051272991226    -1.591221474411     1.060055598152     1.007825032230
         H           -2.474267991226    -1.299783474411    -0.636863401848     1.007825032230
         H            2.221070008774    -1.206025474411    -1.367459401848     1.007825032230
         H            2.225232008774    -1.932885474411     0.241670598152     1.007825032230
         H            3.272523008774    -0.523140474411    -0.089940401848     1.007825032230

  Basis Set: AUG-CC-PVTZ
    Blend: AUG-CC-PVTZ
  Basis Set: (AUG-CC-PVTZ AUX)
    Blend: AUG-CC-PVTZ-JKFIT
	 Reference Energy          =    -345.0412085293424411 [Eh]
	 Singles Energy            =      -0.0000000000000000 [Eh]
	 Same-Spin Energy          =      -0.3414404130519615 [Eh]
	 Opposite-Spin Energy      =      -1.1321261216559111 [Eh]
	 Correlation Energy        =      -1.4735665347078726 [Eh]
	 Total Energy              =    -346.5147750640502977 [Eh]

	 ================> DF-SCS-MP2 Energies <==================
	-----------------------------------------------------------
	 SCS Same-Spin Scale       =       0.3333333333333333 [-]
	 SCS Opposite-Spin Scale   =       1.2000000000000000 [-]
	 SCS Same-Spin Energy      =      -0.1138134710173205 [Eh]
	 SCS Opposite-Spin Energy  =      -1.3585513459870933 [Eh]
	 SCS Correlation Energy    =      -1.4723648170044137 [Eh]
	 SCS Total Energy          =    -346.5135733463468455 [Eh]
	-----------------------------------------------------------

  Dipole Moment: [D]
     X:    -1.0229      Y:    -1.4163      Z:    -0.7296     Total:     1.8933

*** Psi4 exiting successfully. Buy a developer a beer!
