                               Psi4 1.3.2 release

  ==> Input File <==

--------------------------------------------------------------------------
#psi4
#
memory 32 gb

molecule  {
0 1
  O        0.0061956    -0.6045264    -0.1926430
  O        1.3670930     1.0079337     0.6917848
  C       -1.1649080     0.1839100     0.2068510
  C       -1.4179200     1.2632690    -0.8279250
  C       -2.2926420    -0.8179640     0.3227230
  C        1.2071900    -0.0583260     0.1211490
  C        2.3131480    -0.9859210    -0.3056480
  H       -0.9474970     0.6396690     1.1762190
  H       -2.3155240     1.8326500    -0.5690360
  H       -0.5734580     1.9518970    -0.8732450
  H       -1.5650280     0.8097800    -1.8115960
  H       -3.2117410    -0.3160520     0.6373810
  H       -2.0484320    -1.5899530     1.0551950
  H       -2.4714270    -1.2985150    -0.6417240
  H        2.2239110    -1.2047570    -1.3723200
  H        2.2280730    -1.9316170     0.2368100
  H        3.2753640    -0.5218720    -0.0948010
units angstrom
no_reorient  #important for SAPT in psi4, default
symmetry c1  #important for SAPT in psi4, default
}

set PROPERTIES_ORIGIN ["COM"]
properties('MP2/aug-cc-pvtz', properties = ['dipole'])
--------------------------------------------------------------------------

    Molecular point group: c1
  Charge       = 0
  Multiplicity = 1
  Basis Set: AUG-CC-PVTZ
    Blend: AUG-CC-PVTZ
  Basis Set: (AUG-CC-PVTZ AUX)
    Blend: AUG-CC-PVTZ-JKFIT

    Orbital Energies [Eh]
    ---------------------

    Doubly Occupied:

       1A    -20.597840     2A    -20.542214     3A    -11.380692
       4A    -11.292236     5A    -11.238627     6A    -11.222030
       7A    -11.218055     8A     -1.447209     9A     -1.350476
      10A     -1.075956    11A     -1.005025    12A     -0.946273
      13A     -0.835175    14A     -0.765822    15A     -0.691433
      16A     -0.664482    17A     -0.653916    18A     -0.611259
      19A     -0.585325    20A     -0.577845    21A     -0.562344
      22A     -0.548917    23A     -0.533809    24A     -0.517638
      25A     -0.501960    26A     -0.484173    27A     -0.453701
      28A     -0.442237

  @DF-RHF Final Energy:  -345.04127634909599

   => Energetics <=

    Nuclear Repulsion Energy =            320.8629294724950682
    One-Electron Energy =               -1106.3150700455560127
    Two-Electron Energy =                 440.4108642239648930
    Total Energy =                       -345.0412763490959946
  Basis Set: (AUG-CC-PVTZ AUX)
    Blend: AUG-CC-PVTZ-RI
    Molecular point group: c1

    Geometry (in Angstrom), charge = 0, multiplicity = 1:

       Center              X                  Y                   Z               Mass
    ------------   -----------------  -----------------  -----------------  -----------------
         O            0.003687561564    -0.602866391719    -0.191807787468    15.994914619570
         O            1.364584961564     1.009593708281     0.692620012532    15.994914619570
         C           -1.167416038436     0.185570008281     0.207686212532    12.000000000000
         C           -1.420428038436     1.264929008281    -0.827089787468    12.000000000000
         C           -2.295150038436    -0.816303991719     0.323558212532    12.000000000000
         C            1.204681961564    -0.056665991719     0.121984212532    12.000000000000
         C            2.310639961564    -0.984260991719    -0.304812787468    12.000000000000
         H           -0.950005038436     0.641329008281     1.177054212532     1.007825032230
         H           -2.318032038436     1.834310008281    -0.568200787468     1.007825032230
         H           -0.575966038436     1.953557008281    -0.872409787468     1.007825032230
         H           -1.567536038436     0.811440008281    -1.810760787468     1.007825032230
         H           -3.214249038436    -0.314391991719     0.638216212532     1.007825032230
         H           -2.050940038436    -1.588292991719     1.056030212532     1.007825032230
         H           -2.473935038436    -1.296854991719    -0.640888787468     1.007825032230
         H            2.221402961564    -1.203096991719    -1.371484787468     1.007825032230
         H            2.225564961564    -1.929956991719     0.237645212532     1.007825032230
         H            3.272855961564    -0.520211991719    -0.093965787468     1.007825032230

  Basis Set: AUG-CC-PVTZ
    Blend: AUG-CC-PVTZ
  Basis Set: (AUG-CC-PVTZ AUX)
    Blend: AUG-CC-PVTZ-JKFIT
	 Reference Energy          =    -345.0412763490959946 [Eh]
	 Singles Energy            =      -0.0000000000000000 [Eh]
	 Same-Spin Energy          =      -0.3415262237881324 [Eh]
	 Opposite-Spin Energy      =      -1.1325223260844208 [Eh]
	 Correlation Energy        =      -1.4740485498725531 [Eh]
	 Total Energy              =    -346.5153248989685721 [Eh]

	 ================> DF-SCS-MP2 Energies <==================
	-----------------------------------------------------------
	 SCS Same-Spin Scale       =       0.3333333333333333 [-]
	 SCS Opposite-Spin Scale   =       1.2000000000000000 [-]
	 SCS Same-Spin Energy      =      -0.1138420745960441 [Eh]
	 SCS Opposite-Spin Energy  =      -1.3590267913013050 [Eh]
	 SCS Correlation Energy    =      -1.4728688658973490 [Eh]
	 SCS Total Energy          =    -346.5141452149933343 [Eh]
	-----------------------------------------------------------

  Dipole Moment: [D]
     X:    -1.0753      Y:    -1.3386      Z:    -0.7390     Total:     1.8693

*** Psi4 exiting successfully. Buy a developer a beer!
