                               Psi4 1.3.2 release

  ==> Input File <==

--------------------------------------------------------------------------
#psi4
#
memory 32 gb

molecule  {
0 1
  O        0.0007480    -0.5952090    -0.1877880
  O        1.3459773     1.0105673     0.6923836
  C       -1.1649080     0.1839100     0.2068510
  C       -1.4179200     1.2632690    -0.8279250
  C       -2.2926420    -0.8179640     0.3227230
  C        1.2071900    -0.0583260     0.1211490
  C        2.3042194    -0.9942279    -0.3105285
  H       -0.9474970     0.6396690     1.1762190
  H       -2.3155240     1.8326500    -0.5690360
  H       -0.5734580     1.9518970    -0.8732450
  H       -1.5650280     0.8097800    -1.8115960
  H       -3.2117410    -0.3160520     0.6373810
  H       -2.0484320    -1.5899530     1.0551950
  H       -2.4714270    -1.2985150    -0.6417240
  H        2.2239110    -1.2047570    -1.3723200
  H        2.2280730    -1.9316170     0.2368100
  H        3.2753640    -0.5218720    -0.0948010
units angstrom
no_reorient  #important for SAPT in psi4, default
symmetry c1  #important for SAPT in psi4, default
}

set PROPERTIES_ORIGIN ["COM"]
properties('MP2/aug-cc-pvtz', properties = ['dipole'])
--------------------------------------------------------------------------

    Molecular point group: c1
  Charge       = 0
  Multiplicity = 1
  Basis Set: AUG-CC-PVTZ
    Blend: AUG-CC-PVTZ
  Basis Set: (AUG-CC-PVTZ AUX)
    Blend: AUG-CC-PVTZ-JKFIT

    Orbital Energies [Eh]
    ---------------------

    Doubly Occupied:

       1A    -20.595943     2A    -20.542336     3A    -11.381311
       4A    -11.290119     5A    -11.240785     6A    -11.221041
       7A    -11.216789     8A     -1.449116     9A     -1.349917
      10A     -1.075622    11A     -1.006457    12A     -0.945343
      13A     -0.836677    14A     -0.764858    15A     -0.692415
      16A     -0.665331    17A     -0.654451    18A     -0.611454
      19A     -0.587022    20A     -0.575832    21A     -0.561810
      22A     -0.548236    23A     -0.534312    24A     -0.517227
      25A     -0.501826    26A     -0.482397    27A     -0.452662
      28A     -0.442846

  @DF-RHF Final Energy:  -345.04154036854214

   => Energetics <=

    Nuclear Repulsion Energy =            321.2910174084627783
    One-Electron Energy =               -1107.1768427517549753
    Two-Electron Energy =                 440.8442849747501100
    Total Energy =                       -345.0415403685421438
  Basis Set: (AUG-CC-PVTZ AUX)
    Blend: AUG-CC-PVTZ-RI
    Molecular point group: c1

    Geometry (in Angstrom), charge = 0, multiplicity = 1:

       Center              X                  Y                   Z               Mass
    ------------   -----------------  -----------------  -----------------  -----------------
         O            0.003452373885    -0.594445182036    -0.187233649667    15.994914619570
         O            1.348681673885     1.011331117964     0.692937950333    15.994914619570
         C           -1.162203626115     0.184673817964     0.207405350333    12.000000000000
         C           -1.415215626115     1.264032817964    -0.827370649667    12.000000000000
         C           -2.289937626115    -0.817200182036     0.323277350333    12.000000000000
         C            1.209894373885    -0.057562182036     0.121703350333    12.000000000000
         C            2.306923773885    -0.993464082036    -0.309974149667    12.000000000000
         H           -0.944792626115     0.640432817964     1.176773350333     1.007825032230
         H           -2.312819626115     1.833413817964    -0.568481649667     1.007825032230
         H           -0.570753626115     1.952660817964    -0.872690649667     1.007825032230
         H           -1.562323626115     0.810543817964    -1.811041649667     1.007825032230
         H           -3.209036626115    -0.315288182036     0.637935350333     1.007825032230
         H           -2.045727626115    -1.589189182036     1.055749350333     1.007825032230
         H           -2.468722626115    -1.297751182036    -0.641169649667     1.007825032230
         H            2.226615373885    -1.203993182036    -1.371765649667     1.007825032230
         H            2.230777373885    -1.930853182036     0.237364350333     1.007825032230
         H            3.278068373885    -0.521108182036    -0.094246649667     1.007825032230

  Basis Set: AUG-CC-PVTZ
    Blend: AUG-CC-PVTZ
  Basis Set: (AUG-CC-PVTZ AUX)
    Blend: AUG-CC-PVTZ-JKFIT
	 Reference Energy          =    -345.0415403685421438 [Eh]
	 Singles Energy            =      -0.0000000000000000 [Eh]
	 Same-Spin Energy          =      -0.3415242887867497 [Eh]
	 Opposite-Spin Energy      =      -1.1323172714454628 [Eh]
	 Correlation Energy        =      -1.4738415602322126 [Eh]
	 Total Energy              =    -346.5153819287743318 [Eh]

	 ================> DF-SCS-MP2 Energies <==================
	-----------------------------------------------------------
	 SCS Same-Spin Scale       =       0.3333333333333333 [-]
	 SCS Opposite-Spin Scale   =       1.2000000000000000 [-]
	 SCS Same-Spin Energy      =      -0.1138414295955832 [Eh]
	 SCS Opposite-Spin Energy  =      -1.3587807257345552 [Eh]
	 SCS Correlation Energy    =      -1.4726221553301384 [Eh]
	 SCS Total Energy          =    -346.5141625238723009 [Eh]
	-----------------------------------------------------------

  Dipole Moment: [D]
     X:    -0.9650      Y:    -1.3795      Z:    -0.7506     Total:     1.8433

*** Psi4 exiting successfully. Buy a developer a beer!
