                               Psi4 1.4a3.dev225

  ==> Input File <==

--------------------------------------------------------------------------
#psi4
#
memory 32 gb

molecule  {
0 1
  O       -0.1077990    -0.5624470     0.2079430
  O       -1.3021290     1.1073090    -0.7840490
  C        1.1279890     0.0542050    -0.2592580
  C        1.5159640     1.1744160     0.6880040
  C        2.1417370    -1.0702820    -0.3128090
  C       -1.2583291     0.1201368    -0.1567418
  C       -2.4469700    -0.6645530     0.4162300
  H        0.9393410     0.4580410    -1.2580840
  H        2.4644540     1.6220060     0.3756670
  H        0.7505430     1.9525630     0.6895830
  H        1.6331200     0.7804540     1.7015330
  H        3.1019190    -0.6925110    -0.6758780
  H        1.8018300    -1.8630990    -0.9832080
  H        2.2880710    -1.4948000     0.6840490
  H       -2.3821170    -0.7144520     1.5057940
  H       -2.4521220    -1.6889170     0.0368310
  H       -3.3591990    -0.1487030     0.1192220
units angstrom
no_reorient  #important for SAPT in psi4, default
symmetry c1  #important for SAPT in psi4, default
}

set PROPERTIES_ORIGIN ["COM"]
properties('MP2/aug-cc-pvtz', properties = ['dipole'])
--------------------------------------------------------------------------

    Molecular point group: c1
  Charge       = 0
  Multiplicity = 1
  Basis Set: AUG-CC-PVTZ
    Blend: AUG-CC-PVTZ
  Basis Set: (AUG-CC-PVTZ AUX)
    Blend: AUG-CC-PVTZ-JKFIT

    Orbital Energies [Eh]
    ---------------------

    Doubly Occupied:

       1A    -20.589056     2A    -20.552253     3A    -11.377956
       4A    -11.287543     5A    -11.238680     6A    -11.219709
       7A    -11.216560     8A     -1.457062     9A     -1.367580
      10A     -1.068856    11A     -0.997549    12A     -0.943723
      13A     -0.828446    14A     -0.763277    15A     -0.700136
      16A     -0.665511    17A     -0.653373    18A     -0.611743
      19A     -0.588792    20A     -0.573959    21A     -0.563075
      22A     -0.546491    23A     -0.534956    24A     -0.516755
      25A     -0.509310    26A     -0.483192    27A     -0.454398
      28A     -0.442123

  @DF-RHF Final Energy:  -345.04031301211506

   => Energetics <=

    Nuclear Repulsion Energy =            321.1124277238984632
    One-Electron Energy =               -1106.8013512781806185
    Two-Electron Energy =                 440.6486105421670914
    Total Energy =                       -345.0403130121150639
  Basis Set: (AUG-CC-PVTZ AUX)
    Blend: AUG-CC-PVTZ-RI
    Molecular point group: c1

    Geometry (in Angstrom), charge = 0, multiplicity = 1:

       Center              X                  Y                   Z               Mass
    ------------   -----------------  -----------------  -----------------  -----------------
         O           -0.061127231040    -0.584772045457     0.232406818305    15.994914619570
         O           -1.255457231040     1.084983954543    -0.759585181695    15.994914619570
         C            1.174660768960     0.031879954543    -0.234794181695    12.000000000000
         C            1.562635768960     1.152090954543     0.712467818305    12.000000000000
         C            2.188408768960    -1.092607045457    -0.288345181695    12.000000000000
         C           -1.211657331040     0.097811754543    -0.132277981695    12.000000000000
         C           -2.400298231040    -0.686878045457     0.440693818305    12.000000000000
         H            0.986012768960     0.435715954543    -1.233620181695     1.007825032230
         H            2.511125768960     1.599680954543     0.400130818305     1.007825032230
         H            0.797214768960     1.930237954543     0.714046818305     1.007825032230
         H            1.679791768960     0.758128954543     1.725996818305     1.007825032230
         H            3.148590768960    -0.714836045457    -0.651414181695     1.007825032230
         H            1.848501768960    -1.885424045457    -0.958744181695     1.007825032230
         H            2.334742768960    -1.517125045457     0.708512818305     1.007825032230
         H           -2.335445231040    -0.736777045457     1.530257818305     1.007825032230
         H           -2.405450231040    -1.711242045457     0.061294818305     1.007825032230
         H           -3.312527231040    -0.171028045457     0.143685818305     1.007825032230

  Basis Set: AUG-CC-PVTZ
    Blend: AUG-CC-PVTZ
  Basis Set: (AUG-CC-PVTZ AUX)
    Blend: AUG-CC-PVTZ-JKFIT
	 Reference Energy          =    -345.0403130121150639 [Eh]
	 Singles Energy            =      -0.0000000000000000 [Eh]
	 Same-Spin Energy          =      -0.3406578538929653 [Eh]
	 Opposite-Spin Energy      =      -1.1309933109797619 [Eh]
	 Correlation Energy        =      -1.4716511648727271 [Eh]
	 Total Energy              =    -346.5119641769878172 [Eh]

	 ================> DF-SCS-MP2 Energies <==================
	-----------------------------------------------------------
	 SCS Same-Spin Scale       =       0.3333333333333333 [-]
	 SCS Opposite-Spin Scale   =       1.2000000000000000 [-]
	 SCS Same-Spin Energy      =      -0.1135526179643218 [Eh]
	 SCS Opposite-Spin Energy  =      -1.3571919731757143 [Eh]
	 SCS Correlation Energy    =      -1.4707445911400361 [Eh]
	 SCS Total Energy          =    -346.5110576032550966 [Eh]
	-----------------------------------------------------------

  Dipole Moment: [D]
     X:     0.7071      Y:    -1.1055      Z:     0.6993     Total:     1.4871

*** Psi4 exiting successfully. Buy a developer a beer!
