                               Psi4 1.4a3.dev225

  ==> Input File <==

--------------------------------------------------------------------------
#psi4
#
memory 32 gb

molecule  {
0 1
  O       -0.1077990    -0.5624470     0.2079430
  O       -1.3021290     1.1073090    -0.7840490
  C        1.1279890     0.0542050    -0.2592580
  C        1.5159640     1.1744160     0.6880040
  C        2.1417370    -1.0702820    -0.3128090
  C       -1.2733770     0.0873989    -0.1349209
  C       -2.4469700    -0.6645530     0.4162300
  H        0.9393410     0.4580410    -1.2580840
  H        2.4644540     1.6220060     0.3756670
  H        0.7505430     1.9525630     0.6895830
  H        1.6331200     0.7804540     1.7015330
  H        3.1019190    -0.6925110    -0.6758780
  H        1.8018300    -1.8630990    -0.9832080
  H        2.2880710    -1.4948000     0.6840490
  H       -2.3821170    -0.7144520     1.5057940
  H       -2.4521220    -1.6889170     0.0368310
  H       -3.3591990    -0.1487030     0.1192220
units angstrom
no_reorient  #important for SAPT in psi4, default
symmetry c1  #important for SAPT in psi4, default
}

set PROPERTIES_ORIGIN ["COM"]
properties('MP2/aug-cc-pvtz', properties = ['dipole'])
--------------------------------------------------------------------------

    Molecular point group: c1
  Charge       = 0
  Multiplicity = 1
  Basis Set: AUG-CC-PVTZ
    Blend: AUG-CC-PVTZ
  Basis Set: (AUG-CC-PVTZ AUX)
    Blend: AUG-CC-PVTZ-JKFIT

    Orbital Energies [Eh]
    ---------------------

    Doubly Occupied:

       1A    -20.591818     2A    -20.546130     3A    -11.381678
       4A    -11.288757     5A    -11.241183     6A    -11.220336
       7A    -11.216283     8A     -1.444466     9A     -1.353083
      10A     -1.072409    11A     -1.008158    12A     -0.943781
      13A     -0.832136    14A     -0.762369    15A     -0.694586
      16A     -0.663071    17A     -0.652182    18A     -0.611320
      19A     -0.587443    20A     -0.578136    21A     -0.561636
      22A     -0.546811    23A     -0.532800    24A     -0.516849
      25A     -0.503053    26A     -0.481473    27A     -0.453005
      28A     -0.443445

  @DF-RHF Final Energy:  -345.04127619944973

   => Energetics <=

    Nuclear Repulsion Energy =            320.7718441660179565
    One-Electron Energy =               -1106.1694504811014212
    Two-Electron Energy =                 440.3563301156337957
    Total Energy =                       -345.0412761994497259
  Basis Set: (AUG-CC-PVTZ AUX)
    Blend: AUG-CC-PVTZ-RI
    Molecular point group: c1

    Geometry (in Angstrom), charge = 0, multiplicity = 1:

       Center              X                  Y                   Z               Mass
    ------------   -----------------  -----------------  -----------------  -----------------
         O           -0.059358070684    -0.580923096778     0.229841365902    15.994914619570
         O           -1.253688070684     1.088832903222    -0.762150634098    15.994914619570
         C            1.176429929316     0.035728903222    -0.237359634098    12.000000000000
         C            1.564404929316     1.155939903222     0.709902365902    12.000000000000
         C            2.190177929316    -1.088758096778    -0.290910634098    12.000000000000
         C           -1.224936070684     0.068922803222    -0.113022534098    12.000000000000
         C           -2.398529070684    -0.683029096778     0.438128365902    12.000000000000
         H            0.987781929316     0.439564903222    -1.236185634098     1.007825032230
         H            2.512894929316     1.603529903222     0.397565365902     1.007825032230
         H            0.798983929316     1.934086903222     0.711481365902     1.007825032230
         H            1.681560929316     0.761977903222     1.723431365902     1.007825032230
         H            3.150359929316    -0.710987096778    -0.653979634098     1.007825032230
         H            1.850270929316    -1.881575096778    -0.961309634098     1.007825032230
         H            2.336511929316    -1.513276096778     0.705947365902     1.007825032230
         H           -2.333676070684    -0.732928096778     1.527692365902     1.007825032230
         H           -2.403681070684    -1.707393096778     0.058729365902     1.007825032230
         H           -3.310758070684    -0.167179096778     0.141120365902     1.007825032230

  Basis Set: AUG-CC-PVTZ
    Blend: AUG-CC-PVTZ
  Basis Set: (AUG-CC-PVTZ AUX)
    Blend: AUG-CC-PVTZ-JKFIT
	 Reference Energy          =    -345.0412761994497259 [Eh]
	 Singles Energy            =      -0.0000000000000000 [Eh]
	 Same-Spin Energy          =      -0.3414664017754990 [Eh]
	 Opposite-Spin Energy      =      -1.1323949686641317 [Eh]
	 Correlation Energy        =      -1.4738613704396308 [Eh]
	 Total Energy              =    -346.5151375698893617 [Eh]

	 ================> DF-SCS-MP2 Energies <==================
	-----------------------------------------------------------
	 SCS Same-Spin Scale       =       0.3333333333333333 [-]
	 SCS Opposite-Spin Scale   =       1.2000000000000000 [-]
	 SCS Same-Spin Energy      =      -0.1138221339251663 [Eh]
	 SCS Opposite-Spin Energy  =      -1.3588739623969579 [Eh]
	 SCS Correlation Energy    =      -1.4726960963221243 [Eh]
	 SCS Total Energy          =    -346.5139722957718504 [Eh]
	-----------------------------------------------------------

  Dipole Moment: [D]
     X:     0.6809      Y:    -1.3188      Z:     0.8386     Total:     1.7047

*** Psi4 exiting successfully. Buy a developer a beer!
