                               Psi4 1.4a3.dev225

  ==> Input File <==

--------------------------------------------------------------------------
#psi4
#
memory 32 gb

molecule  {
0 1
  S        0.1285310     1.6062780     0.0000000
  O        2.7930710    -1.2979160    -0.0000070
  C       -1.4623200    -0.4344690    -0.0000060
  C       -0.1473770    -0.9544550    -0.0000010
  C        0.8287900     0.0275460     0.0000070
  C       -1.4779673     0.9507769    -0.0000048
  C       -2.7097270    -1.2710250     0.0000050
  C        2.2775230    -0.1819160     0.0000050
  H        0.1093330    -2.0101800    -0.0000030
  H       -2.3118400     1.6133930    -0.0000140
  H       -2.7491870    -1.9153830    -0.8833870
  H       -2.7491970    -1.9153410     0.8834260
  H       -3.6031060    -0.6413200    -0.0000150
  H        2.9043230     0.7325940     0.0000170
units angstrom
no_reorient  #important for SAPT in psi4, default
symmetry c1  #important for SAPT in psi4, default
}

set PROPERTIES_ORIGIN ["COM"]
properties('MP2/aug-cc-pvtz', properties = ['dipole'])
--------------------------------------------------------------------------

    Molecular point group: c1
  Charge       = 0
  Multiplicity = 1
  Basis Set: AUG-CC-PVTZ
    Blend: AUG-CC-PVTZ
  Basis Set: (AUG-CC-PVTZ AUX)
    Blend: AUG-CC-PVTZ-JKFIT

    Orbital Energies [Eh]
    ---------------------

    Doubly Occupied:

       1A    -92.003363     2A    -20.556072     3A    -11.345381
       4A    -11.283219     5A    -11.277474     6A    -11.264105
       7A    -11.261448     8A    -11.241662     9A     -9.003035
      10A     -6.683990    11A     -6.683527    12A     -6.682829
      13A     -1.380869    14A     -1.191390    15A     -1.055537
      16A     -1.007871    17A     -0.946326    18A     -0.867734
      19A     -0.775847    20A     -0.739818    21A     -0.679206
      22A     -0.649105    23A     -0.605224    24A     -0.596347
      25A     -0.593228    26A     -0.553636    27A     -0.540327
      28A     -0.531797    29A     -0.501811    30A     -0.486339
      31A     -0.435364    32A     -0.355657    33A     -0.337318

  @DF-RHF Final Energy:  -703.19619021016979

   => Energetics <=

    Nuclear Repulsion Energy =            404.2117104946019595
    One-Electron Energy =               -1766.5820882037005504
    Two-Electron Energy =                 659.1741874989288590
    Total Energy =                       -703.1961902101697888
  Basis Set: (AUG-CC-PVTZ AUX)
    Blend: AUG-CC-PVTZ-RI
    Molecular point group: c1

    Geometry (in Angstrom), charge = 0, multiplicity = 1:

       Center              X                  Y                   Z               Mass
    ------------   -----------------  -----------------  -----------------  -----------------
         S            0.064839686267     1.574020690371     0.000000201379    31.972071174400
         O            2.729379686267    -1.330173309629    -0.000006798621    15.994914619570
         C           -1.526011313733    -0.466726309629    -0.000005798621    12.000000000000
         C           -0.211068313733    -0.986712309629    -0.000000798621    12.000000000000
         C            0.765098686267    -0.004711309629     0.000007201379    12.000000000000
         C           -1.541658613733     0.918519590371    -0.000004598621    12.000000000000
         C           -2.773418313733    -1.303282309629     0.000005201379    12.000000000000
         C            2.213831686267    -0.214173309629     0.000005201379    12.000000000000
         H            0.045641686267    -2.042437309629    -0.000002798621     1.007825032230
         H           -2.375531313733     1.581135690371    -0.000013798621     1.007825032230
         H           -2.812878313733    -1.947640309629    -0.883386798621     1.007825032230
         H           -2.812888313733    -1.947598309629     0.883426201379     1.007825032230
         H           -3.666797313733    -0.673577309629    -0.000014798621     1.007825032230
         H            2.840631686267     0.700336690371     0.000017201379     1.007825032230

  Basis Set: AUG-CC-PVTZ
    Blend: AUG-CC-PVTZ
  Basis Set: (AUG-CC-PVTZ AUX)
    Blend: AUG-CC-PVTZ-JKFIT
	 Reference Energy          =    -703.1961902101697888 [Eh]
	 Singles Energy            =      -0.0000000000000000 [Eh]
	 Same-Spin Energy          =      -0.3844305273124573 [Eh]
	 Opposite-Spin Energy      =      -1.1769915343527921 [Eh]
	 Correlation Energy        =      -1.5614220616652494 [Eh]
	 Total Energy              =    -704.7576122718350007 [Eh]

	 ================> DF-SCS-MP2 Energies <==================
	-----------------------------------------------------------
	 SCS Same-Spin Scale       =       0.3333333333333333 [-]
	 SCS Opposite-Spin Scale   =       1.2000000000000000 [-]
	 SCS Same-Spin Energy      =      -0.1281435091041524 [Eh]
	 SCS Opposite-Spin Energy  =      -1.4123898412233504 [Eh]
	 SCS Correlation Energy    =      -1.5405333503275029 [Eh]
	 SCS Total Energy          =    -704.7367235604972393 [Eh]
	-----------------------------------------------------------

  Dipole Moment: [D]
     X:    -3.1231      Y:     1.4981      Z:     0.0000     Total:     3.4638

*** Psi4 exiting successfully. Buy a developer a beer!
