                               Psi4 1.4a3.dev225

  ==> Input File <==

--------------------------------------------------------------------------
#psi4
#
memory 32 gb

molecule  {
0 1
  S        0.1285310     1.6062780     0.0000000
  O        2.7930710    -1.2979160    -0.0000070
  C       -1.4623200    -0.4344690    -0.0000060
  C       -0.1663253    -1.0000291    -0.0000004
  C        0.8287900     0.0275460     0.0000070
  C       -1.4537890     0.9508390    -0.0000050
  C       -2.7097270    -1.2710250     0.0000050
  C        2.2775230    -0.1819160     0.0000050
  H        0.1093330    -2.0101800    -0.0000030
  H       -2.3118400     1.6133930    -0.0000140
  H       -2.7491870    -1.9153830    -0.8833870
  H       -2.7491970    -1.9153410     0.8834260
  H       -3.6031060    -0.6413200    -0.0000150
  H        2.9043230     0.7325940     0.0000170
units angstrom
no_reorient  #important for SAPT in psi4, default
symmetry c1  #important for SAPT in psi4, default
}

set PROPERTIES_ORIGIN ["COM"]
properties('MP2/aug-cc-pvtz', properties = ['dipole'])
--------------------------------------------------------------------------

    Molecular point group: c1
  Charge       = 0
  Multiplicity = 1
  Basis Set: AUG-CC-PVTZ
    Blend: AUG-CC-PVTZ
  Basis Set: (AUG-CC-PVTZ AUX)
    Blend: AUG-CC-PVTZ-JKFIT

    Orbital Energies [Eh]
    ---------------------

    Doubly Occupied:

       1A    -92.007475     2A    -20.553425     3A    -11.343410
       4A    -11.283787     5A    -11.280959     6A    -11.264556
       7A    -11.263429     8A    -11.240791     9A     -9.007218
      10A     -6.688173    11A     -6.687694    12A     -6.687028
      13A     -1.378669    14A     -1.189376    15A     -1.054838
      16A     -1.008169    17A     -0.945694    18A     -0.866441
      19A     -0.769789    20A     -0.746334    21A     -0.675034
      22A     -0.647554    23A     -0.608938    24A     -0.595815
      25A     -0.591073    26A     -0.551574    27A     -0.543672
      28A     -0.528143    29A     -0.501785    30A     -0.491981
      31A     -0.432900    32A     -0.355855    33A     -0.333005

  @DF-RHF Final Energy:  -703.19144084972697

   => Energetics <=

    Nuclear Repulsion Energy =            403.8349720304859716
    One-Electron Energy =               -1765.8036553254523824
    Two-Electron Energy =                 658.7772424452394944
    Total Energy =                       -703.1914408497269733
  Basis Set: (AUG-CC-PVTZ AUX)
    Blend: AUG-CC-PVTZ-RI
    Molecular point group: c1

    Geometry (in Angstrom), charge = 0, multiplicity = 1:

       Center              X                  Y                   Z               Mass
    ------------   -----------------  -----------------  -----------------  -----------------
         S            0.064341646113     1.578354687208     0.000000163288    31.972071174400
         O            2.728881646113    -1.325839312792    -0.000006836712    15.994914619570
         C           -1.526509353887    -0.462392312792    -0.000005836712    12.000000000000
         C           -0.230514653887    -1.027952412792    -0.000000236712    12.000000000000
         C            0.764600646113    -0.000377312792     0.000007163288    12.000000000000
         C           -1.517978353887     0.922915687208    -0.000004836712    12.000000000000
         C           -2.773916353887    -1.298948312792     0.000005163288    12.000000000000
         C            2.213333646113    -0.209839312792     0.000005163288    12.000000000000
         H            0.045143646113    -2.038103312792    -0.000002836712     1.007825032230
         H           -2.376029353887     1.585469687208    -0.000013836712     1.007825032230
         H           -2.813376353887    -1.943306312792    -0.883386836712     1.007825032230
         H           -2.813386353887    -1.943264312792     0.883426163288     1.007825032230
         H           -3.667295353887    -0.669243312792    -0.000014836712     1.007825032230
         H            2.840133646113     0.704670687208     0.000017163288     1.007825032230

  Basis Set: AUG-CC-PVTZ
    Blend: AUG-CC-PVTZ
  Basis Set: (AUG-CC-PVTZ AUX)
    Blend: AUG-CC-PVTZ-JKFIT
	 Reference Energy          =    -703.1914408497269733 [Eh]
	 Singles Energy            =      -0.0000000000000000 [Eh]
	 Same-Spin Energy          =      -0.3854214159741277 [Eh]
	 Opposite-Spin Energy      =      -1.1781075508632199 [Eh]
	 Correlation Energy        =      -1.5635289668373478 [Eh]
	 Total Energy              =    -704.7549698165643122 [Eh]

	 ================> DF-SCS-MP2 Energies <==================
	-----------------------------------------------------------
	 SCS Same-Spin Scale       =       0.3333333333333333 [-]
	 SCS Opposite-Spin Scale   =       1.2000000000000000 [-]
	 SCS Same-Spin Energy      =      -0.1284738053247092 [Eh]
	 SCS Opposite-Spin Energy  =      -1.4137290610358639 [Eh]
	 SCS Correlation Energy    =      -1.5422028663605731 [Eh]
	 SCS Total Energy          =    -704.7336437160874993 [Eh]
	-----------------------------------------------------------

  Dipole Moment: [D]
     X:    -3.1474      Y:     1.5970      Z:     0.0000     Total:     3.5293

*** Psi4 exiting successfully. Buy a developer a beer!
