                               Psi4 1.4a3.dev225

  ==> Input File <==

--------------------------------------------------------------------------
#psi4
#
memory 32 gb

molecule  {
0 1
  S        0.1285310     1.6062780     0.0000000
  O        2.7930710    -1.2979160    -0.0000070
  C       -1.4623200    -0.4344690    -0.0000060
  C       -0.1473770    -0.9544550    -0.0000010
  C        0.8287900     0.0275460     0.0000070
  C       -1.4054476     0.9496974    -0.0000055
  C       -2.7097270    -1.2710250     0.0000050
  C        2.2775230    -0.1819160     0.0000050
  H        0.1093330    -2.0101800    -0.0000030
  H       -2.3118400     1.6133930    -0.0000140
  H       -2.7491870    -1.9153830    -0.8833870
  H       -2.7491970    -1.9153410     0.8834260
  H       -3.6031060    -0.6413200    -0.0000150
  H        2.9043230     0.7325940     0.0000170
units angstrom
no_reorient  #important for SAPT in psi4, default
symmetry c1  #important for SAPT in psi4, default
}

set PROPERTIES_ORIGIN ["COM"]
properties('MP2/aug-cc-pvtz', properties = ['dipole'])
--------------------------------------------------------------------------

    Molecular point group: c1
  Charge       = 0
  Multiplicity = 1
  Basis Set: AUG-CC-PVTZ
    Blend: AUG-CC-PVTZ
  Basis Set: (AUG-CC-PVTZ AUX)
    Blend: AUG-CC-PVTZ-JKFIT

    Orbital Energies [Eh]
    ---------------------

    Doubly Occupied:

       1A    -92.005501     2A    -20.552665     3A    -11.343096
       4A    -11.283017     5A    -11.273692     6A    -11.261546
       7A    -11.260365     8A    -11.242736     9A     -9.006468
      10A     -6.687502    11A     -6.686951    12A     -6.686190
      13A     -1.378106    14A     -1.199248    15A     -1.055090
      16A     -1.013837    17A     -0.947119    18A     -0.863731
      19A     -0.767619    20A     -0.740037    21A     -0.679477
      22A     -0.645342    23A     -0.604929    24A     -0.597337
      25A     -0.581751    26A     -0.554441    27A     -0.538281
      28A     -0.533834    29A     -0.505184    30A     -0.496609
      31A     -0.432486    32A     -0.358231    33A     -0.334949

  @DF-RHF Final Energy:  -703.19396900752395

   => Energetics <=

    Nuclear Repulsion Energy =            405.6248966976010593
    One-Electron Energy =               -1769.4029976657211591
    Two-Electron Energy =                 660.5841319605960962
    Total Energy =                       -703.1939690075239469
  Basis Set: (AUG-CC-PVTZ AUX)
    Blend: AUG-CC-PVTZ-RI
    Molecular point group: c1

    Geometry (in Angstrom), charge = 0, multiplicity = 1:

       Center              X                  Y                   Z               Mass
    ------------   -----------------  -----------------  -----------------  -----------------
         S            0.057933811982     1.574123488525     0.000000268039    31.972071174400
         O            2.722473811982    -1.330070511475    -0.000006731961    15.994914619570
         C           -1.532917188018    -0.466623511475    -0.000005731961    12.000000000000
         C           -0.217974188018    -0.986609511475    -0.000000731961    12.000000000000
         C            0.758192811982    -0.004608511475     0.000007268039    12.000000000000
         C           -1.476044788018     0.917542888525    -0.000005231961    12.000000000000
         C           -2.780324188018    -1.303179511475     0.000005268039    12.000000000000
         C            2.206925811982    -0.214070511475     0.000005268039    12.000000000000
         H            0.038735811982    -2.042334511475    -0.000002731961     1.007825032230
         H           -2.382437188018     1.581238488525    -0.000013731961     1.007825032230
         H           -2.819784188018    -1.947537511475    -0.883386731961     1.007825032230
         H           -2.819794188018    -1.947495511475     0.883426268039     1.007825032230
         H           -3.673703188018    -0.673474511475    -0.000014731961     1.007825032230
         H            2.833725811982     0.700439488525     0.000017268039     1.007825032230

  Basis Set: AUG-CC-PVTZ
    Blend: AUG-CC-PVTZ
  Basis Set: (AUG-CC-PVTZ AUX)
    Blend: AUG-CC-PVTZ-JKFIT
	 Reference Energy          =    -703.1939690075239469 [Eh]
	 Singles Energy            =      -0.0000000000000000 [Eh]
	 Same-Spin Energy          =      -0.3851089111083238 [Eh]
	 Opposite-Spin Energy      =      -1.1768721912086630 [Eh]
	 Correlation Energy        =      -1.5619811023169867 [Eh]
	 Total Energy              =    -704.7559501098409100 [Eh]

	 ================> DF-SCS-MP2 Energies <==================
	-----------------------------------------------------------
	 SCS Same-Spin Scale       =       0.3333333333333333 [-]
	 SCS Opposite-Spin Scale   =       1.2000000000000000 [-]
	 SCS Same-Spin Energy      =      -0.1283696370361079 [Eh]
	 SCS Opposite-Spin Energy  =      -1.4122466294503957 [Eh]
	 SCS Correlation Energy    =      -1.5406162664865035 [Eh]
	 SCS Total Energy          =    -704.7345852740104419 [Eh]
	-----------------------------------------------------------

  Dipole Moment: [D]
     X:    -3.1563      Y:     1.5889      Z:     0.0000     Total:     3.5337

*** Psi4 exiting successfully. Buy a developer a beer!
