                               Psi4 1.4a3.dev225

  ==> Input File <==

--------------------------------------------------------------------------
#psi4
#
memory 32 gb

molecule  {
0 1
  S        0.1285310     1.6062780     0.0000000
  O        2.7930710    -1.2979160    -0.0000070
  C       -1.4623200    -0.4344690    -0.0000060
  C       -0.1473770    -0.9544550    -0.0000010
  C        0.8287900     0.0275460     0.0000070
  C       -1.4537890     0.9508390    -0.0000050
  C       -2.7097270    -1.2710250     0.0000050
  C        2.2775230    -0.1819160     0.0000050
  H        0.1093330    -2.0101800    -0.0000030
  H       -2.3118400     1.6133930    -0.0000140
  H       -2.7491870    -1.9153830    -0.8833870
  H       -2.7528044    -1.9742291     0.9641674
  H       -3.6031060    -0.6413200    -0.0000150
  H        2.9043230     0.7325940     0.0000170
units angstrom
no_reorient  #important for SAPT in psi4, default
symmetry c1  #important for SAPT in psi4, default
}

set PROPERTIES_ORIGIN ["COM"]
properties('MP2/aug-cc-pvtz', properties = ['dipole'])
--------------------------------------------------------------------------

    Molecular point group: c1
  Charge       = 0
  Multiplicity = 1
  Basis Set: AUG-CC-PVTZ
    Blend: AUG-CC-PVTZ
  Basis Set: (AUG-CC-PVTZ AUX)
    Blend: AUG-CC-PVTZ-JKFIT

    Orbital Energies [Eh]
    ---------------------

    Doubly Occupied:

       1A    -92.004590     2A    -20.555213     3A    -11.344890
       4A    -11.283787     5A    -11.276544     6A    -11.263955
       7A    -11.261498     8A    -11.253518     9A     -9.004647
      10A     -6.685615    11A     -6.685151    12A     -6.684421
      13A     -1.380200    14A     -1.194169    15A     -1.053470
      16A     -1.010102    17A     -0.941804    18A     -0.865437
      19A     -0.773046    20A     -0.739926    21A     -0.678794
      22A     -0.648113    23A     -0.604377    24A     -0.590353
      25A     -0.585527    26A     -0.551201    27A     -0.537895
      28A     -0.532240    29A     -0.501649    30A     -0.489710
      31A     -0.434703    32A     -0.356318    33A     -0.336780

  @DF-RHF Final Energy:  -703.19031539055595

   => Energetics <=

    Nuclear Repulsion Energy =            404.2650828036141206
    One-Electron Energy =               -1766.6915141590677649
    Two-Electron Energy =                 659.2361159648976354
    Total Energy =                       -703.1903153905559520
  Basis Set: (AUG-CC-PVTZ AUX)
    Blend: AUG-CC-PVTZ-RI
    Molecular point group: c1

    Geometry (in Angstrom), charge = 0, multiplicity = 1:

       Center              X                  Y                   Z               Mass
    ------------   -----------------  -----------------  -----------------  -----------------
         S            0.062566096685     1.574485747675    -0.000645527233    31.972071174400
         O            2.727106096685    -1.329708252325    -0.000652527233    15.994914619570
         C           -1.528284903315    -0.466261252325    -0.000651527233    12.000000000000
         C           -0.213341903315    -0.986247252325    -0.000646527233    12.000000000000
         C            0.762825096685    -0.004246252325    -0.000638527233    12.000000000000
         C           -1.519753903315     0.919046747675    -0.000650527233    12.000000000000
         C           -2.775691903315    -1.302817252325    -0.000640527233    12.000000000000
         C            2.211558096685    -0.213708252325    -0.000640527233    12.000000000000
         H            0.043368096685    -2.041972252325    -0.000648527233     1.007825032230
         H           -2.377804903315     1.581600747675    -0.000659527233     1.007825032230
         H           -2.815151903315    -1.947175252325    -0.884032527233     1.007825032230
         H           -2.818769303315    -2.006021352325     0.963521872767     1.007825032230
         H           -3.669070903315    -0.673112252325    -0.000660527233     1.007825032230
         H            2.838358096685     0.700801747675    -0.000628527233     1.007825032230

  Basis Set: AUG-CC-PVTZ
    Blend: AUG-CC-PVTZ
  Basis Set: (AUG-CC-PVTZ AUX)
    Blend: AUG-CC-PVTZ-JKFIT
	 Reference Energy          =    -703.1903153905559520 [Eh]
	 Singles Energy            =      -0.0000000000000000 [Eh]
	 Same-Spin Energy          =      -0.3845867229912915 [Eh]
	 Opposite-Spin Energy      =      -1.1775163537196687 [Eh]
	 Correlation Energy        =      -1.5621030767109603 [Eh]
	 Total Energy              =    -704.7524184672669207 [Eh]

	 ================> DF-SCS-MP2 Energies <==================
	-----------------------------------------------------------
	 SCS Same-Spin Scale       =       0.3333333333333333 [-]
	 SCS Opposite-Spin Scale   =       1.2000000000000000 [-]
	 SCS Same-Spin Energy      =      -0.1281955743304305 [Eh]
	 SCS Opposite-Spin Energy  =      -1.4130196244636024 [Eh]
	 SCS Correlation Energy    =      -1.5412151987940330 [Eh]
	 SCS Total Energy          =    -704.7315305893499726 [Eh]
	-----------------------------------------------------------

  Dipole Moment: [D]
     X:    -3.0989      Y:     1.5677      Z:    -0.0294     Total:     3.4730

*** Psi4 exiting successfully. Buy a developer a beer!
