                               Psi4 1.4a3.dev225

  ==> Input File <==

--------------------------------------------------------------------------
#psi4
#
memory 32 gb

molecule  {
0 1
  S        0.1285310     1.6062780     0.0000000
  O        2.7930710    -1.2979160    -0.0000070
  C       -1.4623200    -0.4344690    -0.0000060
  C       -0.1473770    -0.9544550    -0.0000010
  C        0.8287900     0.0275460     0.0000070
  C       -1.4075952     0.9699737    -0.0000049
  C       -2.7097270    -1.2710250     0.0000050
  C        2.2775230    -0.1819160     0.0000050
  H        0.1093330    -2.0101800    -0.0000030
  H       -2.3118400     1.6133930    -0.0000140
  H       -2.7491870    -1.9153830    -0.8833870
  H       -2.7491970    -1.9153410     0.8834260
  H       -3.6031060    -0.6413200    -0.0000150
  H        2.9043230     0.7325940     0.0000170
units angstrom
no_reorient  #important for SAPT in psi4, default
symmetry c1  #important for SAPT in psi4, default
}

set PROPERTIES_ORIGIN ["COM"]
properties('MP2/aug-cc-pvtz', properties = ['dipole'])
--------------------------------------------------------------------------

    Molecular point group: c1
  Charge       = 0
  Multiplicity = 1
  Basis Set: AUG-CC-PVTZ
    Blend: AUG-CC-PVTZ
  Basis Set: (AUG-CC-PVTZ AUX)
    Blend: AUG-CC-PVTZ-JKFIT

    Orbital Energies [Eh]
    ---------------------

    Doubly Occupied:

       1A    -92.006753     2A    -20.552412     3A    -11.343073
       4A    -11.284070     5A    -11.273668     6A    -11.263497
       7A    -11.260369     8A    -11.242613     9A     -9.007700
      10A     -6.688739    11A     -6.688196    12A     -6.687452
      13A     -1.377937    14A     -1.197722    15A     -1.053905
      16A     -1.015342    17A     -0.946241    18A     -0.862209
      19A     -0.769116    20A     -0.739774    21A     -0.679120
      22A     -0.645930    23A     -0.604549    24A     -0.596666
      25A     -0.583452    26A     -0.554438    27A     -0.538566
      28A     -0.535267    29A     -0.504874    30A     -0.495390
      31A     -0.432370    32A     -0.358792    33A     -0.332381

  @DF-RHF Final Energy:  -703.19337912509582

   => Energetics <=

    Nuclear Repulsion Energy =            405.3822387550425219
    One-Electron Energy =               -1768.9060749966454296
    Two-Electron Energy =                 660.3304571165072048
    Total Energy =                       -703.1933791250958166
  Basis Set: (AUG-CC-PVTZ AUX)
    Blend: AUG-CC-PVTZ-RI
    Molecular point group: c1

    Geometry (in Angstrom), charge = 0, multiplicity = 1:

       Center              X                  Y                   Z               Mass
    ------------   -----------------  -----------------  -----------------  -----------------
         S            0.058138322696     1.572192625894     0.000000210902    31.972071174400
         O            2.722678322696    -1.332001374106    -0.000006789098    15.994914619570
         C           -1.532712677304    -0.468554374106    -0.000005789098    12.000000000000
         C           -0.217769677304    -0.988540374106    -0.000000789098    12.000000000000
         C            0.758397322696    -0.006539374106     0.000007210902    12.000000000000
         C           -1.477987877304     0.935888325894    -0.000004689098    12.000000000000
         C           -2.780119677304    -1.305110374106     0.000005210902    12.000000000000
         C            2.207130322696    -0.216001374106     0.000005210902    12.000000000000
         H            0.038940322696    -2.044265374106    -0.000002789098     1.007825032230
         H           -2.382232677304     1.579307625894    -0.000013789098     1.007825032230
         H           -2.819579677304    -1.949468374106    -0.883386789098     1.007825032230
         H           -2.819589677304    -1.949426374106     0.883426210902     1.007825032230
         H           -3.673498677304    -0.675405374106    -0.000014789098     1.007825032230
         H            2.833930322696     0.698508625894     0.000017210902     1.007825032230

  Basis Set: AUG-CC-PVTZ
    Blend: AUG-CC-PVTZ
  Basis Set: (AUG-CC-PVTZ AUX)
    Blend: AUG-CC-PVTZ-JKFIT
	 Reference Energy          =    -703.1933791250958166 [Eh]
	 Singles Energy            =      -0.0000000000000000 [Eh]
	 Same-Spin Energy          =      -0.3854548536136861 [Eh]
	 Opposite-Spin Energy      =      -1.1772242990774526 [Eh]
	 Correlation Energy        =      -1.5626791526911388 [Eh]
	 Total Energy              =    -704.7560582777869058 [Eh]

	 ================> DF-SCS-MP2 Energies <==================
	-----------------------------------------------------------
	 SCS Same-Spin Scale       =       0.3333333333333333 [-]
	 SCS Opposite-Spin Scale   =       1.2000000000000000 [-]
	 SCS Same-Spin Energy      =      -0.1284849512045620 [Eh]
	 SCS Opposite-Spin Energy  =      -1.4126691588929432 [Eh]
	 SCS Correlation Energy    =      -1.5411541100975052 [Eh]
	 SCS Total Energy          =    -704.7345332351933394 [Eh]
	-----------------------------------------------------------

  Dipole Moment: [D]
     X:    -3.1674      Y:     1.5979      Z:     0.0000     Total:     3.5476

*** Psi4 exiting successfully. Buy a developer a beer!
