                               Psi4 1.4a3.dev225

  ==> Input File <==

--------------------------------------------------------------------------
#psi4
#
memory 32 gb

molecule  {
0 1
  S        0.1285310     1.6062780     0.0000000
  O        2.7930710    -1.2979160    -0.0000070
  C       -1.4623200    -0.4344690    -0.0000060
  C       -0.1473770    -0.9544550    -0.0000010
  C        0.8287900     0.0275460     0.0000070
  C       -1.5021407     0.9502928    -0.0000045
  C       -2.7097270    -1.2710250     0.0000050
  C        2.2775230    -0.1819160     0.0000050
  H        0.1093330    -2.0101800    -0.0000030
  H       -2.3118400     1.6133930    -0.0000140
  H       -2.7491870    -1.9153830    -0.8833870
  H       -2.7491970    -1.9153410     0.8834260
  H       -3.6031060    -0.6413200    -0.0000150
  H        2.9043230     0.7325940     0.0000170
units angstrom
no_reorient  #important for SAPT in psi4, default
symmetry c1  #important for SAPT in psi4, default
}

set PROPERTIES_ORIGIN ["COM"]
properties('MP2/aug-cc-pvtz', properties = ['dipole'])
--------------------------------------------------------------------------

    Molecular point group: c1
  Charge       = 0
  Multiplicity = 1
  Basis Set: AUG-CC-PVTZ
    Blend: AUG-CC-PVTZ
  Basis Set: (AUG-CC-PVTZ AUX)
    Blend: AUG-CC-PVTZ-JKFIT

    Orbital Energies [Eh]
    ---------------------

    Doubly Occupied:

       1A    -92.002475     2A    -20.557191     3A    -11.346114
       4A    -11.283457     5A    -11.278738     6A    -11.265213
       7A    -11.261760     8A    -11.241378     9A     -9.001806
      10A     -6.682758    11A     -6.682274    12A     -6.681611
      13A     -1.381776    14A     -1.189195    15A     -1.056031
      16A     -1.005872    17A     -0.946142    18A     -0.869105
      19A     -0.778852    20A     -0.740095    21A     -0.679208
      22A     -0.650293    23A     -0.606356    24A     -0.596139
      25A     -0.595909    26A     -0.553523    27A     -0.541768
      28A     -0.530116    29A     -0.500729    30A     -0.482258
      31A     -0.436278    32A     -0.355056    33A     -0.337935

  @DF-RHF Final Energy:  -703.19437774915116

   => Energetics <=

    Nuclear Repulsion Energy =            403.7647627480627079
    One-Electron Energy =               -1765.6834601993673459
    Two-Electron Energy =                 658.7243197021533661
    Total Energy =                       -703.1943777491511582
  Basis Set: (AUG-CC-PVTZ AUX)
    Blend: AUG-CC-PVTZ-RI
    Molecular point group: c1

    Geometry (in Angstrom), charge = 0, multiplicity = 1:

       Center              X                  Y                   Z               Mass
    ------------   -----------------  -----------------  -----------------  -----------------
         S            0.067141660233     1.574066790035     0.000000172811    31.972071174400
         O            2.731681660233    -1.330127209965    -0.000006827189    15.994914619570
         C           -1.523709339767    -0.466680209965    -0.000005827189    12.000000000000
         C           -0.208766339767    -0.986666209965    -0.000000827189    12.000000000000
         C            0.767400660233    -0.004665209965     0.000007172811    12.000000000000
         C           -1.563530039767     0.918081590035    -0.000004327189    12.000000000000
         C           -2.771116339767    -1.303236209965     0.000005172811    12.000000000000
         C            2.216133660233    -0.214127209965     0.000005172811    12.000000000000
         H            0.047943660233    -2.042391209965    -0.000002827189     1.007825032230
         H           -2.373229339767     1.581181790035    -0.000013827189     1.007825032230
         H           -2.810576339767    -1.947594209965    -0.883386827189     1.007825032230
         H           -2.810586339767    -1.947552209965     0.883426172811     1.007825032230
         H           -3.664495339767    -0.673531209965    -0.000014827189     1.007825032230
         H            2.842933660233     0.700382790035     0.000017172811     1.007825032230

  Basis Set: AUG-CC-PVTZ
    Blend: AUG-CC-PVTZ
  Basis Set: (AUG-CC-PVTZ AUX)
    Blend: AUG-CC-PVTZ-JKFIT
	 Reference Energy          =    -703.1943777491511582 [Eh]
	 Singles Energy            =      -0.0000000000000000 [Eh]
	 Same-Spin Energy          =      -0.3842717554744174 [Eh]
	 Opposite-Spin Energy      =      -1.1771740299811446 [Eh]
	 Correlation Energy        =      -1.5614457854555619 [Eh]
	 Total Energy              =    -704.7558235346067477 [Eh]

	 ================> DF-SCS-MP2 Energies <==================
	-----------------------------------------------------------
	 SCS Same-Spin Scale       =       0.3333333333333333 [-]
	 SCS Opposite-Spin Scale   =       1.2000000000000000 [-]
	 SCS Same-Spin Energy      =      -0.1280905851581391 [Eh]
	 SCS Opposite-Spin Energy  =      -1.4126088359773734 [Eh]
	 SCS Correlation Energy    =      -1.5406994211355125 [Eh]
	 SCS Total Energy          =    -704.7350771702866723 [Eh]
	-----------------------------------------------------------

  Dipole Moment: [D]
     X:    -3.1144      Y:     1.4657      Z:     0.0000     Total:     3.4421

*** Psi4 exiting successfully. Buy a developer a beer!
