                               Psi4 1.4a3.dev225

  ==> Input File <==

--------------------------------------------------------------------------
#psi4
#
memory 32 gb

molecule  {
0 1
  S        0.1285310     1.6062780     0.0000000
  O        2.7930710    -1.2979160    -0.0000070
  C       -1.4623200    -0.4344690    -0.0000060
  C       -0.1473770    -0.9544550    -0.0000010
  C        0.8287900     0.0275460     0.0000070
  C       -1.4537890     0.9508390    -0.0000050
  C       -2.7097270    -1.2710250     0.0000050
  C        2.2775230    -0.1819160     0.0000050
  H        0.1093330    -2.0101800    -0.0000030
  H       -2.3118400     1.6133930    -0.0000140
  H       -2.7491870    -1.9153830    -0.8833870
  H       -2.7419822    -1.7975648     0.7219432
  H       -3.6031060    -0.6413200    -0.0000150
  H        2.9043230     0.7325940     0.0000170
units angstrom
no_reorient  #important for SAPT in psi4, default
symmetry c1  #important for SAPT in psi4, default
}

set PROPERTIES_ORIGIN ["COM"]
properties('MP2/aug-cc-pvtz', properties = ['dipole'])
--------------------------------------------------------------------------

    Molecular point group: c1
  Charge       = 0
  Multiplicity = 1
  Basis Set: AUG-CC-PVTZ
    Blend: AUG-CC-PVTZ
  Basis Set: (AUG-CC-PVTZ AUX)
    Blend: AUG-CC-PVTZ-JKFIT

    Orbital Energies [Eh]
    ---------------------

    Doubly Occupied:

       1A    -92.003781     2A    -20.554635     3A    -11.344354
       4A    -11.282404     5A    -11.275846     6A    -11.262082
       7A    -11.260734     8A    -11.217685     9A     -9.003838
      10A     -6.684804    11A     -6.684344    12A     -6.683620
      13A     -1.379681    14A     -1.193709    15A     -1.063882
      16A     -1.010203    17A     -0.962036    18A     -0.869257
      19A     -0.773746    20A     -0.739819    21A     -0.683273
      22A     -0.647994    23A     -0.630620    24A     -0.601149
      25A     -0.589027    26A     -0.557340    27A     -0.539877
      28A     -0.533256    29A     -0.504234    30A     -0.490358
      31A     -0.434123    32A     -0.356812    33A     -0.336530

  @DF-RHF Final Energy:  -703.16272935358711

   => Energetics <=

    Nuclear Repulsion Energy =            405.6565309330063656
    One-Electron Energy =               -1769.3284146442740621
    Two-Electron Energy =                 660.5091543576804725
    Total Energy =                       -703.1627293535871104
  Basis Set: (AUG-CC-PVTZ AUX)
    Blend: AUG-CC-PVTZ-RI
    Molecular point group: c1

    Geometry (in Angstrom), charge = 0, multiplicity = 1:

       Center              X                  Y                   Z               Mass
    ------------   -----------------  -----------------  -----------------  -----------------
         S            0.062479543686     1.573072834869     0.001291715741    31.972071174400
         O            2.727019543686    -1.331121165131     0.001284715741    15.994914619570
         C           -1.528371456314    -0.467674165131     0.001285715741    12.000000000000
         C           -0.213428456314    -0.987660165131     0.001290715741    12.000000000000
         C            0.762738543686    -0.005659165131     0.001298715741    12.000000000000
         C           -1.519840456314     0.917633834869     0.001286715741    12.000000000000
         C           -2.775778456314    -1.304230165131     0.001296715741    12.000000000000
         C            2.211471543686    -0.215121165131     0.001296715741    12.000000000000
         H            0.043281543686    -2.043385165131     0.001288715741     1.007825032230
         H           -2.377891456314     1.580187834869     0.001277715741     1.007825032230
         H           -2.815238456314    -1.948588165131    -0.882095284259     1.007825032230
         H           -2.808033656314    -1.830769965131     0.723234915741     1.007825032230
         H           -3.669157456314    -0.674525165131     0.001276715741     1.007825032230
         H            2.838271543686     0.699388834869     0.001308715741     1.007825032230

  Basis Set: AUG-CC-PVTZ
    Blend: AUG-CC-PVTZ
  Basis Set: (AUG-CC-PVTZ AUX)
    Blend: AUG-CC-PVTZ-JKFIT
	 Reference Energy          =    -703.1627293535871104 [Eh]
	 Singles Energy            =      -0.0000000000000000 [Eh]
	 Same-Spin Energy          =      -0.3848015825660520 [Eh]
	 Opposite-Spin Energy      =      -1.1763546260739222 [Eh]
	 Correlation Energy        =      -1.5611562086399742 [Eh]
	 Total Energy              =    -704.7238855622271103 [Eh]

	 ================> DF-SCS-MP2 Energies <==================
	-----------------------------------------------------------
	 SCS Same-Spin Scale       =       0.3333333333333333 [-]
	 SCS Opposite-Spin Scale   =       1.2000000000000000 [-]
	 SCS Same-Spin Energy      =      -0.1282671941886840 [Eh]
	 SCS Opposite-Spin Energy  =      -1.4116255512887066 [Eh]
	 SCS Correlation Energy    =      -1.5398927454773905 [Eh]
	 SCS Total Energy          =    -704.7026220990644561 [Eh]
	-----------------------------------------------------------

  Dipole Moment: [D]
     X:    -3.1704      Y:     1.4913      Z:     0.0269     Total:     3.5037

*** Psi4 exiting successfully. Buy a developer a beer!
