                               Psi4 1.4a3.dev225

  ==> Input File <==

--------------------------------------------------------------------------
#psi4
#
memory 32 gb

molecule  {
0 1
  S        0.1285310     1.6062780     0.0000000
  O        2.7930710    -1.2979160    -0.0000070
  C       -1.4623200    -0.4344690    -0.0000060
  C       -0.1473770    -0.9544550    -0.0000010
  C        0.8287900     0.0275460     0.0000070
  C       -1.4537890     0.9508390    -0.0000050
  C       -2.7097270    -1.2710250     0.0000050
  C        2.2775230    -0.1819160     0.0000050
  H        0.1093330    -2.0101800    -0.0000030
  H       -2.2326898     1.5522763    -0.0000132
  H       -2.7491870    -1.9153830    -0.8833870
  H       -2.7491970    -1.9153410     0.8834260
  H       -3.6031060    -0.6413200    -0.0000150
  H        2.9043230     0.7325940     0.0000170
units angstrom
no_reorient  #important for SAPT in psi4, default
symmetry c1  #important for SAPT in psi4, default
}

set PROPERTIES_ORIGIN ["COM"]
properties('MP2/aug-cc-pvtz', properties = ['dipole'])
--------------------------------------------------------------------------

    Molecular point group: c1
  Charge       = 0
  Multiplicity = 1
  Basis Set: AUG-CC-PVTZ
    Blend: AUG-CC-PVTZ
  Basis Set: (AUG-CC-PVTZ AUX)
    Blend: AUG-CC-PVTZ-JKFIT

    Orbital Energies [Eh]
    ---------------------

    Doubly Occupied:

       1A    -92.003634     2A    -20.554946     3A    -11.344555
       4A    -11.276212     5A    -11.271995     6A    -11.262764
       7A    -11.260684     8A    -11.242171     9A     -9.003732
      10A     -6.684711    11A     -6.684244    12A     -6.683526
      13A     -1.379936    14A     -1.194251    15A     -1.055508
      16A     -1.014050    17A     -0.946542    18A     -0.871372
      19A     -0.784319    20A     -0.742558    21A     -0.679289
      22A     -0.650920    23A     -0.605251    24A     -0.598473
      25A     -0.596671    26A     -0.553739    27A     -0.539680
      28A     -0.534551    29A     -0.502799    30A     -0.489742
      31A     -0.434494    32A     -0.356145    33A     -0.336621

  @DF-RHF Final Energy:  -703.19077837410146

   => Energetics <=

    Nuclear Repulsion Energy =            405.2485999465419582
    One-Electron Energy =               -1768.5985883850821665
    Two-Electron Energy =                 660.1592100644386392
    Total Energy =                       -703.1907783741014555
  Basis Set: (AUG-CC-PVTZ AUX)
    Blend: AUG-CC-PVTZ-RI
    Molecular point group: c1

    Geometry (in Angstrom), charge = 0, multiplicity = 1:

       Center              X                  Y                   Z               Mass
    ------------   -----------------  -----------------  -----------------  -----------------
         S            0.061904224010     1.574503571409     0.000000214027    31.972071174400
         O            2.726444224010    -1.329690428591    -0.000006785973    15.994914619570
         C           -1.528946775990    -0.466243428591    -0.000005785973    12.000000000000
         C           -0.214003775990    -0.986229428591    -0.000000785973    12.000000000000
         C            0.762163224010    -0.004228428591     0.000007214027    12.000000000000
         C           -1.520415775990     0.919064571409    -0.000004785973    12.000000000000
         C           -2.776353775990    -1.302799428591     0.000005214027    12.000000000000
         C            2.210896224010    -0.213690428591     0.000005214027    12.000000000000
         H            0.042706224010    -2.041954428591    -0.000002785973     1.007825032230
         H           -2.299316575990     1.520501871409    -0.000012985973     1.007825032230
         H           -2.815813775990    -1.947157428591    -0.883386785973     1.007825032230
         H           -2.815823775990    -1.947115428591     0.883426214027     1.007825032230
         H           -3.669732775990    -0.673094428591    -0.000014785973     1.007825032230
         H            2.837696224010     0.700819571409     0.000017214027     1.007825032230

  Basis Set: AUG-CC-PVTZ
    Blend: AUG-CC-PVTZ
  Basis Set: (AUG-CC-PVTZ AUX)
    Blend: AUG-CC-PVTZ-JKFIT
	 Reference Energy          =    -703.1907783741014555 [Eh]
	 Singles Energy            =      -0.0000000000000000 [Eh]
	 Same-Spin Energy          =      -0.3844104004117118 [Eh]
	 Opposite-Spin Energy      =      -1.1764509267358907 [Eh]
	 Correlation Energy        =      -1.5608613271476024 [Eh]
	 Total Energy              =    -704.7516397012490188 [Eh]

	 ================> DF-SCS-MP2 Energies <==================
	-----------------------------------------------------------
	 SCS Same-Spin Scale       =       0.3333333333333333 [-]
	 SCS Opposite-Spin Scale   =       1.2000000000000000 [-]
	 SCS Same-Spin Energy      =      -0.1281368001372372 [Eh]
	 SCS Opposite-Spin Energy  =      -1.4117411120830687 [Eh]
	 SCS Correlation Energy    =      -1.5398779122203059 [Eh]
	 SCS Total Energy          =    -704.7306562863217323 [Eh]
	-----------------------------------------------------------

  Dipole Moment: [D]
     X:    -3.1249      Y:     1.5160      Z:     0.0000     Total:     3.4732

*** Psi4 exiting successfully. Buy a developer a beer!
