                               Psi4 1.4a3.dev225

  ==> Input File <==

--------------------------------------------------------------------------
#psi4
#
memory 32 gb

molecule  {
0 1
  S        0.1285310     1.6062780     0.0000000
  O        2.7930710    -1.2979160    -0.0000070
  C       -1.4623200    -0.4344690    -0.0000060
  C       -0.1473770    -0.9544550    -0.0000010
  C        0.8287900     0.0275460     0.0000070
  C       -1.2690139     1.0273777    -0.0000044
  C       -2.7097270    -1.2710250     0.0000050
  C        2.2775230    -0.1819160     0.0000050
  H        0.1093330    -2.0101800    -0.0000030
  H       -2.3118400     1.6133930    -0.0000140
  H       -2.7491870    -1.9153830    -0.8833870
  H       -2.7491970    -1.9153410     0.8834260
  H       -3.6031060    -0.6413200    -0.0000150
  H        2.9043230     0.7325940     0.0000170
units angstrom
no_reorient  #important for SAPT in psi4, default
symmetry c1  #important for SAPT in psi4, default
}

set PROPERTIES_ORIGIN ["COM"]
properties('MP2/aug-cc-pvtz', properties = ['dipole'])
--------------------------------------------------------------------------

    Molecular point group: c1
  Charge       = 0
  Multiplicity = 1
  Basis Set: AUG-CC-PVTZ
    Blend: AUG-CC-PVTZ
  Basis Set: (AUG-CC-PVTZ AUX)
    Blend: AUG-CC-PVTZ-JKFIT

    Orbital Energies [Eh]
    ---------------------

    Doubly Occupied:

       1A    -92.012535     2A    -20.543660     3A    -11.337463
       4A    -11.287981     5A    -11.265678     6A    -11.265159
       7A    -11.257501     8A    -11.244706     9A     -9.017998
      10A     -6.699724    11A     -6.697913    12A     -6.697386
      13A     -1.370926    14A     -1.217648    15A     -1.059675
      16A     -1.025185    17A     -0.944120    18A     -0.846948
      19A     -0.758569    20A     -0.743882    21A     -0.678746
      22A     -0.638966    23A     -0.605164    24A     -0.598130
      25A     -0.569036    26A     -0.559279    27A     -0.552063
      28A     -0.530087    29A     -0.511018    30A     -0.490789
      31A     -0.424631    32A     -0.369939    33A     -0.317411

  @DF-RHF Final Energy:  -703.14744473547694

   => Energetics <=

    Nuclear Repulsion Energy =            407.8368483242198863
    One-Electron Energy =               -1773.6887529162090686
    Two-Electron Energy =                 662.7044598565123579
    Total Energy =                       -703.1474447354769381
  Basis Set: (AUG-CC-PVTZ AUX)
    Blend: AUG-CC-PVTZ-RI
    Molecular point group: c1

    Geometry (in Angstrom), charge = 0, multiplicity = 1:

       Center              X                  Y                   Z               Mass
    ------------   -----------------  -----------------  -----------------  -----------------
         S            0.044941563251     1.566726182881     0.000000163288    31.972071174400
         O            2.709481563251    -1.337467817119    -0.000006836712    15.994914619570
         C           -1.545909436749    -0.474020817119    -0.000005836712    12.000000000000
         C           -0.230966436749    -0.994006817119    -0.000000836712    12.000000000000
         C            0.745200563251    -0.012005817119     0.000007163288    12.000000000000
         C           -1.352603336749     0.987825882881    -0.000004236712    12.000000000000
         C           -2.793316436749    -1.310576817119     0.000005163288    12.000000000000
         C            2.193933563251    -0.221467817119     0.000005163288    12.000000000000
         H            0.025743563251    -2.049731817119    -0.000002836712     1.007825032230
         H           -2.395429436749     1.573841182881    -0.000013836712     1.007825032230
         H           -2.832776436749    -1.954934817119    -0.883386836712     1.007825032230
         H           -2.832786436749    -1.954892817119     0.883426163288     1.007825032230
         H           -3.686695436749    -0.680871817119    -0.000014836712     1.007825032230
         H            2.820733563251     0.693042182881     0.000017163288     1.007825032230

  Basis Set: AUG-CC-PVTZ
    Blend: AUG-CC-PVTZ
  Basis Set: (AUG-CC-PVTZ AUX)
    Blend: AUG-CC-PVTZ-JKFIT
	 Reference Energy          =    -703.1474447354769381 [Eh]
	 Singles Energy            =      -0.0000000000000000 [Eh]
	 Same-Spin Energy          =      -0.3886187064064566 [Eh]
	 Opposite-Spin Energy      =      -1.1796593419827324 [Eh]
	 Correlation Energy        =      -1.5682780483891889 [Eh]
	 Total Energy              =    -704.7157227838661129 [Eh]

	 ================> DF-SCS-MP2 Energies <==================
	-----------------------------------------------------------
	 SCS Same-Spin Scale       =       0.3333333333333333 [-]
	 SCS Opposite-Spin Scale   =       1.2000000000000000 [-]
	 SCS Same-Spin Energy      =      -0.1295395688021522 [Eh]
	 SCS Opposite-Spin Energy  =      -1.4155912103792787 [Eh]
	 SCS Correlation Energy    =      -1.5451307791814308 [Eh]
	 SCS Total Energy          =    -704.6925755146584152 [Eh]
	-----------------------------------------------------------

  Dipole Moment: [D]
     X:    -3.3529      Y:     1.7831      Z:     0.0000     Total:     3.7976

*** Psi4 exiting successfully. Buy a developer a beer!
