                               Psi4 1.4a3.dev225

  ==> Input File <==

--------------------------------------------------------------------------
#psi4
#
memory 32 gb

molecule  {
0 1
  S        0.1285310     1.6062780     0.0000000
  O        2.7930710    -1.2979160    -0.0000070
  C       -1.4623200    -0.4344690    -0.0000060
  C       -0.1300308    -0.9082474    -0.0000016
  C        0.8287900     0.0275460     0.0000070
  C       -1.4537890     0.9508390    -0.0000050
  C       -2.7097270    -1.2710250     0.0000050
  C        2.2775230    -0.1819160     0.0000050
  H        0.1093330    -2.0101800    -0.0000030
  H       -2.3118400     1.6133930    -0.0000140
  H       -2.7491870    -1.9153830    -0.8833870
  H       -2.7491970    -1.9153410     0.8834260
  H       -3.6031060    -0.6413200    -0.0000150
  H        2.9043230     0.7325940     0.0000170
units angstrom
no_reorient  #important for SAPT in psi4, default
symmetry c1  #important for SAPT in psi4, default
}

set PROPERTIES_ORIGIN ["COM"]
properties('MP2/aug-cc-pvtz', properties = ['dipole'])
--------------------------------------------------------------------------

    Molecular point group: c1
  Charge       = 0
  Multiplicity = 1
  Basis Set: AUG-CC-PVTZ
    Blend: AUG-CC-PVTZ
  Basis Set: (AUG-CC-PVTZ AUX)
    Blend: AUG-CC-PVTZ-JKFIT

    Orbital Energies [Eh]
    ---------------------

    Doubly Occupied:

       1A    -92.000973     2A    -20.556641     3A    -11.345980
       4A    -11.282431     5A    -11.271236     6A    -11.262199
       7A    -11.258616     8A    -11.243218     9A     -9.001347
      10A     -6.682323    11A     -6.681883    12A     -6.681089
      13A     -1.381353    14A     -1.199001    15A     -1.056406
      16A     -1.011413    17A     -0.947428    18A     -0.866906
      19A     -0.777342    20A     -0.732628    21A     -0.683459
      22A     -0.648392    23A     -0.604304    24A     -0.597620
      25A     -0.586449    26A     -0.556381    27A     -0.541237
      28A     -0.528548    29A     -0.504286    30A     -0.487346
      31A     -0.436018    32A     -0.358214    33A     -0.339299

  @DF-RHF Final Energy:  -703.19515897771873

   => Energetics <=

    Nuclear Repulsion Energy =            405.5460421221727074
    One-Electron Energy =               -1769.2584699224498763
    Two-Electron Energy =                 660.5172688225583215
    Total Energy =                       -703.1951589777187337
  Basis Set: (AUG-CC-PVTZ AUX)
    Blend: AUG-CC-PVTZ-RI
    Molecular point group: c1

    Geometry (in Angstrom), charge = 0, multiplicity = 1:

       Center              X                  Y                   Z               Mass
    ------------   -----------------  -----------------  -----------------  -----------------
         S            0.060885409336     1.569614539610     0.000000277561    31.972071174400
         O            2.725425409336    -1.334579460390    -0.000006722439    15.994914619570
         C           -1.529965590664    -0.471132460390    -0.000005722439    12.000000000000
         C           -0.197676390664    -0.944910860390    -0.000001322439    12.000000000000
         C            0.761144409336    -0.009117460390     0.000007277561    12.000000000000
         C           -1.521434590664     0.914175539610    -0.000004722439    12.000000000000
         C           -2.777372590664    -1.307688460390     0.000005277561    12.000000000000
         C            2.209877409336    -0.218579460390     0.000005277561    12.000000000000
         H            0.041687409336    -2.046843460390    -0.000002722439     1.007825032230
         H           -2.379485590664     1.576729539610    -0.000013722439     1.007825032230
         H           -2.816832590664    -1.952046460390    -0.883386722439     1.007825032230
         H           -2.816842590664    -1.952004460390     0.883426277561     1.007825032230
         H           -3.670751590664    -0.677983460390    -0.000014722439     1.007825032230
         H            2.836677409336     0.695930539610     0.000017277561     1.007825032230

  Basis Set: AUG-CC-PVTZ
    Blend: AUG-CC-PVTZ
  Basis Set: (AUG-CC-PVTZ AUX)
    Blend: AUG-CC-PVTZ-JKFIT
	 Reference Energy          =    -703.1951589777187337 [Eh]
	 Singles Energy            =      -0.0000000000000000 [Eh]
	 Same-Spin Energy          =      -0.3840054023243866 [Eh]
	 Opposite-Spin Energy      =      -1.1760278988806552 [Eh]
	 Correlation Energy        =      -1.5600333012050418 [Eh]
	 Total Energy              =    -704.7551922789238006 [Eh]

	 ================> DF-SCS-MP2 Energies <==================
	-----------------------------------------------------------
	 SCS Same-Spin Scale       =       0.3333333333333333 [-]
	 SCS Opposite-Spin Scale   =       1.2000000000000000 [-]
	 SCS Same-Spin Energy      =      -0.1280018007747955 [Eh]
	 SCS Opposite-Spin Energy  =      -1.4112334786567862 [Eh]
	 SCS Correlation Energy    =      -1.5392352794315818 [Eh]
	 SCS Total Energy          =    -704.7343942571503703 [Eh]
	-----------------------------------------------------------

  Dipole Moment: [D]
     X:    -3.1168      Y:     1.4655      Z:     0.0000     Total:     3.4441

*** Psi4 exiting successfully. Buy a developer a beer!
