                               Psi4 1.4a3.dev225

  ==> Input File <==

--------------------------------------------------------------------------
#psi4
#
memory 32 gb

molecule  {
0 1
  S        0.1285310     1.6062780     0.0000000
  O        2.7930710    -1.2979160    -0.0000070
  C       -1.4623200    -0.4344690    -0.0000060
  C       -0.1473770    -0.9544550    -0.0000010
  C        0.8287900     0.0275460     0.0000070
  C       -1.5986399     0.9441419    -0.0000037
  C       -2.7097270    -1.2710250     0.0000050
  C        2.2775230    -0.1819160     0.0000050
  H        0.1093330    -2.0101800    -0.0000030
  H       -2.3118400     1.6133930    -0.0000140
  H       -2.7491870    -1.9153830    -0.8833870
  H       -2.7491970    -1.9153410     0.8834260
  H       -3.6031060    -0.6413200    -0.0000150
  H        2.9043230     0.7325940     0.0000170
units angstrom
no_reorient  #important for SAPT in psi4, default
symmetry c1  #important for SAPT in psi4, default
}

set PROPERTIES_ORIGIN ["COM"]
properties('MP2/aug-cc-pvtz', properties = ['dipole'])
--------------------------------------------------------------------------

    Molecular point group: c1
  Charge       = 0
  Multiplicity = 1
  Basis Set: AUG-CC-PVTZ
    Blend: AUG-CC-PVTZ
  Basis Set: (AUG-CC-PVTZ AUX)
    Blend: AUG-CC-PVTZ-JKFIT

    Orbital Energies [Eh]
    ---------------------

    Doubly Occupied:

       1A    -91.997863     2A    -20.561553     3A    -11.348845
       4A    -11.285462     5A    -11.283759     6A    -11.270777
       7A    -11.262864     8A    -11.240733     9A     -8.996240
      10A     -6.677210    11A     -6.676560    12A     -6.676039
      13A     -1.385290    14A     -1.182240    15A     -1.059163
      16A     -0.998671    17A     -0.945811    18A     -0.874660
      19A     -0.792068    20A     -0.742956    21A     -0.679644
      22A     -0.654468    23A     -0.618034    24A     -0.597346
      25A     -0.595916    26A     -0.553573    27A     -0.546562
      28A     -0.523946    29A     -0.496752    30A     -0.463410
      31A     -0.439708    32A     -0.354507    33A     -0.338954

  @DF-RHF Final Energy:  -703.17535457491886

   => Energetics <=

    Nuclear Repulsion Energy =            402.0949320040991211
    One-Electron Energy =               -1762.2974024971210838
    Two-Electron Energy =                 657.0271159181031635
    Total Energy =                       -703.1753545749188561
  Basis Set: (AUG-CC-PVTZ AUX)
    Blend: AUG-CC-PVTZ-RI
    Molecular point group: c1

    Geometry (in Angstrom), charge = 0, multiplicity = 1:

       Center              X                  Y                   Z               Mass
    ------------   -----------------  -----------------  -----------------  -----------------
         S            0.076331043859     1.574652525250     0.000000096629    31.972071174400
         O            2.740871043859    -1.329541474750    -0.000006903371    15.994914619570
         C           -1.514519956141    -0.466094474750    -0.000005903371    12.000000000000
         C           -0.199576956141    -0.986080474750    -0.000000903371    12.000000000000
         C            0.776590043859    -0.004079474750     0.000007096629    12.000000000000
         C           -1.650839856141     0.912516425250    -0.000003603371    12.000000000000
         C           -2.761926956141    -1.302650474750     0.000005096629    12.000000000000
         C            2.225323043859    -0.213541474750     0.000005096629    12.000000000000
         H            0.057133043859    -2.041805474750    -0.000002903371     1.007825032230
         H           -2.364039956141     1.581767525250    -0.000013903371     1.007825032230
         H           -2.801386956141    -1.947008474750    -0.883386903371     1.007825032230
         H           -2.801396956141    -1.946966474750     0.883426096629     1.007825032230
         H           -3.655305956141    -0.672945474750    -0.000014903371     1.007825032230
         H            2.852123043859     0.700968525250     0.000017096629     1.007825032230

  Basis Set: AUG-CC-PVTZ
    Blend: AUG-CC-PVTZ
  Basis Set: (AUG-CC-PVTZ AUX)
    Blend: AUG-CC-PVTZ-JKFIT
	 Reference Energy          =    -703.1753545749188561 [Eh]
	 Singles Energy            =      -0.0000000000000000 [Eh]
	 Same-Spin Energy          =      -0.3839624376673066 [Eh]
	 Opposite-Spin Energy      =      -1.1785315114911290 [Eh]
	 Correlation Energy        =      -1.5624939491584358 [Eh]
	 Total Energy              =    -704.7378485240773216 [Eh]

	 ================> DF-SCS-MP2 Energies <==================
	-----------------------------------------------------------
	 SCS Same-Spin Scale       =       0.3333333333333333 [-]
	 SCS Opposite-Spin Scale   =       1.2000000000000000 [-]
	 SCS Same-Spin Energy      =      -0.1279874792224355 [Eh]
	 SCS Opposite-Spin Energy  =      -1.4142378137893548 [Eh]
	 SCS Correlation Energy    =      -1.5422252930117903 [Eh]
	 SCS Total Energy          =    -704.7175798679306808 [Eh]
	-----------------------------------------------------------

  Dipole Moment: [D]
     X:    -3.0972      Y:     1.3270      Z:     0.0000     Total:     3.3695

*** Psi4 exiting successfully. Buy a developer a beer!
