                               Psi4 1.4a3.dev225

  ==> Input File <==

--------------------------------------------------------------------------
#psi4
#
memory 32 gb

molecule  {
0 1
  S        0.1285310     1.6062780     0.0000000
  O        2.7930710    -1.2979160    -0.0000070
  C       -1.4623200    -0.4344690    -0.0000060
  C       -0.1473770    -0.9544550    -0.0000010
  C        0.8287900     0.0275460     0.0000070
  C       -1.4537890     0.9508390    -0.0000050
  C       -2.7097270    -1.2710250     0.0000050
  C        2.0795812    -0.1532970     0.0000053
  H        0.1093330    -2.0101800    -0.0000030
  H       -2.3118400     1.6133930    -0.0000140
  H       -2.7491870    -1.9153830    -0.8833870
  H       -2.7491970    -1.9153410     0.8834260
  H       -3.6031060    -0.6413200    -0.0000150
  H        2.9043230     0.7325940     0.0000170
units angstrom
no_reorient  #important for SAPT in psi4, default
symmetry c1  #important for SAPT in psi4, default
}

set PROPERTIES_ORIGIN ["COM"]
properties('MP2/aug-cc-pvtz', properties = ['dipole'])
--------------------------------------------------------------------------

    Molecular point group: c1
  Charge       = 0
  Multiplicity = 1
  Basis Set: AUG-CC-PVTZ
    Blend: AUG-CC-PVTZ
  Basis Set: (AUG-CC-PVTZ AUX)
    Blend: AUG-CC-PVTZ-JKFIT

    Orbital Energies [Eh]
    ---------------------

    Doubly Occupied:

       1A    -92.018206     2A    -20.520583     3A    -11.329093
       4A    -11.308415     5A    -11.286279     6A    -11.276649
       7A    -11.265728     8A    -11.252167     9A     -9.018265
      10A     -6.699129    11A     -6.698604    12A     -6.697882
      13A     -1.292112    14A     -1.212820    15A     -1.087624
      16A     -1.036638    17A     -0.969502    18A     -0.888301
      19A     -0.783441    20A     -0.741781    21A     -0.668527
      22A     -0.628086    23A     -0.614110    24A     -0.608842
      25A     -0.585371    26A     -0.562242    27A     -0.551665
      28A     -0.522142    29A     -0.497044    30A     -0.471317
      31A     -0.406650    32A     -0.368778    33A     -0.344283

  @DF-RHF Final Energy:  -703.12631599785527

   => Energetics <=

    Nuclear Repulsion Energy =            407.2076296125211456
    One-Electron Energy =               -1772.2433388789024775
    Two-Electron Energy =                 661.9093932685259460
    Total Energy =                       -703.1263159978552721
  Basis Set: (AUG-CC-PVTZ AUX)
    Blend: AUG-CC-PVTZ-RI
    Molecular point group: c1

    Geometry (in Angstrom), charge = 0, multiplicity = 1:

       Center              X                  Y                   Z               Mass
    ------------   -----------------  -----------------  -----------------  -----------------
         S            0.081386760871     1.571289459121     0.000000191857    31.972071174400
         O            2.745926760871    -1.332904540879    -0.000006808143    15.994914619570
         C           -1.509464239129    -0.469457540879    -0.000005808143    12.000000000000
         C           -0.194521239129    -0.989443540879    -0.000000808143    12.000000000000
         C            0.781645760871    -0.007442540879     0.000007191857    12.000000000000
         C           -1.500933239129     0.915850459121    -0.000004808143    12.000000000000
         C           -2.756871239129    -1.306013540879     0.000005191857    12.000000000000
         C            2.032436960871    -0.188285540879     0.000005491857    12.000000000000
         H            0.062188760871    -2.045168540879    -0.000002808143     1.007825032230
         H           -2.358984239129     1.578404459121    -0.000013808143     1.007825032230
         H           -2.796331239129    -1.950371540879    -0.883386808143     1.007825032230
         H           -2.796341239129    -1.950329540879     0.883426191857     1.007825032230
         H           -3.650250239129    -0.676308540879    -0.000014808143     1.007825032230
         H            2.857178760871     0.697605459121     0.000017191857     1.007825032230

  Basis Set: AUG-CC-PVTZ
    Blend: AUG-CC-PVTZ
  Basis Set: (AUG-CC-PVTZ AUX)
    Blend: AUG-CC-PVTZ-JKFIT
	 Reference Energy          =    -703.1263159978552721 [Eh]
	 Singles Energy            =      -0.0000000000000000 [Eh]
	 Same-Spin Energy          =      -0.3908738551204629 [Eh]
	 Opposite-Spin Energy      =      -1.1871786259043740 [Eh]
	 Correlation Energy        =      -1.5780524810248369 [Eh]
	 Total Energy              =    -704.7043684788801556 [Eh]

	 ================> DF-SCS-MP2 Energies <==================
	-----------------------------------------------------------
	 SCS Same-Spin Scale       =       0.3333333333333333 [-]
	 SCS Opposite-Spin Scale   =       1.2000000000000000 [-]
	 SCS Same-Spin Energy      =      -0.1302912850401543 [Eh]
	 SCS Opposite-Spin Energy  =      -1.4246143510852487 [Eh]
	 SCS Correlation Energy    =      -1.5549056361254030 [Eh]
	 SCS Total Energy          =    -704.6812216339807264 [Eh]
	-----------------------------------------------------------

  Dipole Moment: [D]
     X:    -4.6135      Y:     1.8928      Z:     0.0000     Total:     4.9867

*** Psi4 exiting successfully. Buy a developer a beer!
