                               Psi4 1.4a3.dev225

  ==> Input File <==

--------------------------------------------------------------------------
#psi4
#
memory 32 gb

molecule  {
0 1
  S        0.1285310     1.6062780     0.0000000
  O        2.7930710    -1.2979160    -0.0000070
  C       -1.4623200    -0.4344690    -0.0000060
  C       -0.1473770    -0.9544550    -0.0000010
  C        0.8287900     0.0275460     0.0000070
  C       -1.4534811     1.0008381    -0.0000050
  C       -2.7097270    -1.2710250     0.0000050
  C        2.2775230    -0.1819160     0.0000050
  H        0.1093330    -2.0101800    -0.0000030
  H       -2.3118400     1.6133930    -0.0000140
  H       -2.7491870    -1.9153830    -0.8833870
  H       -2.7491970    -1.9153410     0.8834260
  H       -3.6031060    -0.6413200    -0.0000150
  H        2.9043230     0.7325940     0.0000170
units angstrom
no_reorient  #important for SAPT in psi4, default
symmetry c1  #important for SAPT in psi4, default
}

set PROPERTIES_ORIGIN ["COM"]
properties('MP2/aug-cc-pvtz', properties = ['dipole'])
--------------------------------------------------------------------------

    Molecular point group: c1
  Charge       = 0
  Multiplicity = 1
  Basis Set: AUG-CC-PVTZ
    Blend: AUG-CC-PVTZ
  Basis Set: (AUG-CC-PVTZ AUX)
    Blend: AUG-CC-PVTZ-JKFIT

    Orbital Energies [Eh]
    ---------------------

    Doubly Occupied:

       1A    -92.007694     2A    -20.554205     3A    -11.344519
       4A    -11.285601     5A    -11.276053     6A    -11.268314
       7A    -11.260703     8A    -11.241834     9A     -9.007705
      10A     -6.688665    11A     -6.688267    12A     -6.687556
      13A     -1.379457    14A     -1.190749    15A     -1.052203
      16A     -1.014151    17A     -0.944829    18A     -0.863447
      19A     -0.776534    20A     -0.738319    21A     -0.678579
      22A     -0.649552    23A     -0.603649    24A     -0.595182
      25A     -0.593643    26A     -0.553962    27A     -0.539973
      28A     -0.534876    29A     -0.502434    30A     -0.488417
      31A     -0.434019    32A     -0.357883    33A     -0.330323

  @DF-RHF Final Energy:  -703.19204196804776

   => Energetics <=

    Nuclear Repulsion Energy =            404.1777985652119582
    One-Electron Energy =               -1766.4730851664598958
    Two-Electron Energy =                 659.1032446332001200
    Total Energy =                       -703.1920419680477607
  Basis Set: (AUG-CC-PVTZ AUX)
    Blend: AUG-CC-PVTZ-RI
    Molecular point group: c1

    Geometry (in Angstrom), charge = 0, multiplicity = 1:

       Center              X                  Y                   Z               Mass
    ------------   -----------------  -----------------  -----------------  -----------------
         S            0.062507925119     1.569253484306     0.000000220425    31.972071174400
         O            2.727047925119    -1.334940515694    -0.000006779575    15.994914619570
         C           -1.528343074881    -0.471493515694    -0.000005779575    12.000000000000
         C           -0.213400074881    -0.991479515694    -0.000000779575    12.000000000000
         C            0.762766925119    -0.009478515694     0.000007220425    12.000000000000
         C           -1.519504174881     0.963813584306    -0.000004779575    12.000000000000
         C           -2.775750074881    -1.308049515694     0.000005220425    12.000000000000
         C            2.211499925119    -0.218940515694     0.000005220425    12.000000000000
         H            0.043309925119    -2.047204515694    -0.000002779575     1.007825032230
         H           -2.377863074881     1.576368484306    -0.000013779575     1.007825032230
         H           -2.815210074881    -1.952407515694    -0.883386779575     1.007825032230
         H           -2.815220074881    -1.952365515694     0.883426220425     1.007825032230
         H           -3.669129074881    -0.678344515694    -0.000014779575     1.007825032230
         H            2.838299925119     0.695569484306     0.000017220425     1.007825032230

  Basis Set: AUG-CC-PVTZ
    Blend: AUG-CC-PVTZ
  Basis Set: (AUG-CC-PVTZ AUX)
    Blend: AUG-CC-PVTZ-JKFIT
	 Reference Energy          =    -703.1920419680477607 [Eh]
	 Singles Energy            =      -0.0000000000000000 [Eh]
	 Same-Spin Energy          =      -0.3855722195163173 [Eh]
	 Opposite-Spin Energy      =      -1.1779580181940041 [Eh]
	 Correlation Energy        =      -1.5635302377103215 [Eh]
	 Total Energy              =    -704.7555722057580851 [Eh]

	 ================> DF-SCS-MP2 Energies <==================
	-----------------------------------------------------------
	 SCS Same-Spin Scale       =       0.3333333333333333 [-]
	 SCS Opposite-Spin Scale   =       1.2000000000000000 [-]
	 SCS Same-Spin Energy      =      -0.1285240731721058 [Eh]
	 SCS Opposite-Spin Energy  =      -1.4135496218328050 [Eh]
	 SCS Correlation Energy    =      -1.5420736950049108 [Eh]
	 SCS Total Energy          =    -704.7341156630526484 [Eh]
	-----------------------------------------------------------

  Dipole Moment: [D]
     X:    -3.1502      Y:     1.5519      Z:     0.0000     Total:     3.5117

*** Psi4 exiting successfully. Buy a developer a beer!
