                               Psi4 1.4a3.dev225

  ==> Input File <==

--------------------------------------------------------------------------
#psi4
#
memory 32 gb

molecule  {
0 1
  S        0.1285310     1.6062780     0.0000000
  O        2.7930710    -1.2979160    -0.0000070
  C       -1.4623200    -0.4344690    -0.0000060
  C       -0.1473770    -0.9544550    -0.0000010
  C        0.8287900     0.0275460     0.0000070
  C       -1.4537890     0.9508390    -0.0000050
  C       -2.7097270    -1.2710250     0.0000050
  C        2.2775230    -0.1819160     0.0000050
  H        0.1093330    -2.0101800    -0.0000030
  H       -2.4701403     1.7356264    -0.0000157
  H       -2.7491870    -1.9153830    -0.8833870
  H       -2.7491970    -1.9153410     0.8834260
  H       -3.6031060    -0.6413200    -0.0000150
  H        2.9043230     0.7325940     0.0000170
units angstrom
no_reorient  #important for SAPT in psi4, default
symmetry c1  #important for SAPT in psi4, default
}

set PROPERTIES_ORIGIN ["COM"]
properties('MP2/aug-cc-pvtz', properties = ['dipole'])
--------------------------------------------------------------------------

    Molecular point group: c1
  Charge       = 0
  Multiplicity = 1
  Basis Set: AUG-CC-PVTZ
    Blend: AUG-CC-PVTZ
  Basis Set: (AUG-CC-PVTZ AUX)
    Blend: AUG-CC-PVTZ-JKFIT

    Orbital Energies [Eh]
    ---------------------

    Doubly Occupied:

       1A    -92.005771     2A    -20.555337     3A    -11.345151
       4A    -11.302502     5A    -11.276732     6A    -11.264405
       7A    -11.262367     8A    -11.241694     9A     -9.005692
      10A     -6.686635    11A     -6.686185    12A     -6.685432
      13A     -1.380353    14A     -1.193982    15A     -1.055296
      16A     -1.005636    17A     -0.946869    18A     -0.861792
      19A     -0.761078    20A     -0.731315    21A     -0.679517
      22A     -0.643633    23A     -0.604962    24A     -0.596696
      25A     -0.569299    26A     -0.554289    27A     -0.537820
      28A     -0.525436    29A     -0.503544    30A     -0.491178
      31A     -0.434569    32A     -0.357200    33A     -0.337158

  @DF-RHF Final Energy:  -703.17387034040166

   => Energetics <=

    Nuclear Repulsion Energy =            403.6898791719405608
    One-Electron Energy =               -1765.5484485151175704
    Two-Electron Energy =                 658.6846990027752327
    Total Energy =                       -703.1738703404016633
  Basis Set: (AUG-CC-PVTZ AUX)
    Blend: AUG-CC-PVTZ-RI
    Molecular point group: c1

    Geometry (in Angstrom), charge = 0, multiplicity = 1:

       Center              X                  Y                   Z               Mass
    ------------   -----------------  -----------------  -----------------  -----------------
         S            0.063803288236     1.573037187401     0.000000234021    31.972071174400
         O            2.728343288236    -1.331156812599    -0.000006765979    15.994914619570
         C           -1.527047711764    -0.467709812599    -0.000005765979    12.000000000000
         C           -0.212104711764    -0.987695812599    -0.000000765979    12.000000000000
         C            0.764062288236    -0.005694812599     0.000007234021    12.000000000000
         C           -1.518516711764     0.917598187401    -0.000004765979    12.000000000000
         C           -2.774454711764    -1.304265812599     0.000005234021    12.000000000000
         C            2.212795288236    -0.215156812599     0.000005234021    12.000000000000
         H            0.044605288236    -2.043420812599    -0.000002765979     1.007825032230
         H           -2.534868011764     1.702385587401    -0.000015465979     1.007825032230
         H           -2.813914711764    -1.948623812599    -0.883386765979     1.007825032230
         H           -2.813924711764    -1.948581812599     0.883426234021     1.007825032230
         H           -3.667833711764    -0.674560812599    -0.000014765979     1.007825032230
         H            2.839595288236     0.699353187401     0.000017234021     1.007825032230

  Basis Set: AUG-CC-PVTZ
    Blend: AUG-CC-PVTZ
  Basis Set: (AUG-CC-PVTZ AUX)
    Blend: AUG-CC-PVTZ-JKFIT
	 Reference Energy          =    -703.1738703404016633 [Eh]
	 Singles Energy            =      -0.0000000000000000 [Eh]
	 Same-Spin Energy          =      -0.3852703568242946 [Eh]
	 Opposite-Spin Energy      =      -1.1790867524672939 [Eh]
	 Correlation Energy        =      -1.5643571092915884 [Eh]
	 Total Energy              =    -704.7382274496932268 [Eh]

	 ================> DF-SCS-MP2 Energies <==================
	-----------------------------------------------------------
	 SCS Same-Spin Scale       =       0.3333333333333333 [-]
	 SCS Opposite-Spin Scale   =       1.2000000000000000 [-]
	 SCS Same-Spin Energy      =      -0.1284234522747649 [Eh]
	 SCS Opposite-Spin Energy  =      -1.4149041029607525 [Eh]
	 SCS Correlation Energy    =      -1.5433275552355175 [Eh]
	 SCS Total Energy          =    -704.7171978956371277 [Eh]
	-----------------------------------------------------------

  Dipole Moment: [D]
     X:    -3.1226      Y:     1.5392      Z:     0.0000     Total:     3.4813

*** Psi4 exiting successfully. Buy a developer a beer!
