                               Psi4 1.4a3.dev225

  ==> Input File <==

--------------------------------------------------------------------------
#psi4
#
memory 32 gb

molecule  {
0 1
  S        0.1285310     1.6062780     0.0000000
  O        2.7930710    -1.2979160    -0.0000070
  C       -1.4623200    -0.4344690    -0.0000060
  C       -0.1473770    -0.9544550    -0.0000010
  C        0.8287900     0.0275460     0.0000070
  C       -1.4537890     0.9508390    -0.0000050
  C       -2.7097270    -1.2710250     0.0000050
  C        2.2775230    -0.1819160     0.0000050
  H        0.1093330    -2.0101800    -0.0000030
  H       -2.3118400     1.6133930    -0.0000140
  H       -2.7491870    -1.9153830    -0.8833870
  H       -2.7491970    -1.9153410     0.8834260
  H       -3.6031060    -0.6413200    -0.0000150
  H        2.9043230     0.7325940     0.0000170
units angstrom
no_reorient  #important for SAPT in psi4, default
symmetry c1  #important for SAPT in psi4, default
}

set PROPERTIES_ORIGIN ["COM"]
properties('MP2/aug-cc-pvtz', properties = ['dipole'])
--------------------------------------------------------------------------

    Molecular point group: c1
  Charge       = 0
  Multiplicity = 1
  Basis Set: AUG-CC-PVTZ
    Blend: AUG-CC-PVTZ
  Basis Set: (AUG-CC-PVTZ AUX)
    Blend: AUG-CC-PVTZ-JKFIT

    Orbital Energies [Eh]
    ---------------------

    Doubly Occupied:

       1A    -92.004158     2A    -20.554943     3A    -11.344632
       4A    -11.283070     5A    -11.276210     6A    -11.263116
       7A    -11.261119     8A    -11.241985     9A     -9.004216
      10A     -6.685184    11A     -6.684721    12A     -6.683993
      13A     -1.379954    14A     -1.193790    15A     -1.055197
      16A     -1.009892    17A     -0.946549    18A     -0.866379
      19A     -0.772973    20A     -0.739721    21A     -0.679250
      22A     -0.647878    23A     -0.604831    24A     -0.596616
      25A     -0.589696    26A     -0.553819    27A     -0.538811
      28A     -0.533452    29A     -0.502919    30A     -0.490119
      31A     -0.434428    32A     -0.356402    33A     -0.336600

  @DF-RHF Final Energy:  -703.19674600866915

   => Energetics <=

    Nuclear Repulsion Energy =            404.6707018984015463
    One-Electron Energy =               -1767.5016494995641096
    Two-Electron Energy =                 659.6342015924933548
    Total Energy =                       -703.1967460086691517
  Basis Set: (AUG-CC-PVTZ AUX)
    Blend: AUG-CC-PVTZ-RI
    Molecular point group: c1

    Geometry (in Angstrom), charge = 0, multiplicity = 1:

       Center              X                  Y                   Z               Mass
    ------------   -----------------  -----------------  -----------------  -----------------
         S            0.062537245686     1.574014776740     0.000000220425    31.972071174400
         O            2.727077245686    -1.330179223260    -0.000006779575    15.994914619570
         C           -1.528313754314    -0.466732223260    -0.000005779575    12.000000000000
         C           -0.213370754314    -0.986718223260    -0.000000779575    12.000000000000
         C            0.762796245686    -0.004717223260     0.000007220425    12.000000000000
         C           -1.519782754314     0.918575776740    -0.000004779575    12.000000000000
         C           -2.775720754314    -1.303288223260     0.000005220425    12.000000000000
         C            2.211529245686    -0.214179223260     0.000005220425    12.000000000000
         H            0.043339245686    -2.042443223260    -0.000002779575     1.007825032230
         H           -2.377833754314     1.581129776740    -0.000013779575     1.007825032230
         H           -2.815180754314    -1.947646223260    -0.883386779575     1.007825032230
         H           -2.815190754314    -1.947604223260     0.883426220425     1.007825032230
         H           -3.669099754314    -0.673583223260    -0.000014779575     1.007825032230
         H            2.838329245686     0.700330776740     0.000017220425     1.007825032230

  Basis Set: AUG-CC-PVTZ
    Blend: AUG-CC-PVTZ
  Basis Set: (AUG-CC-PVTZ AUX)
    Blend: AUG-CC-PVTZ-JKFIT
	 Reference Energy          =    -703.1967460086691517 [Eh]
	 Singles Energy            =      -0.0000000000000000 [Eh]
	 Same-Spin Energy          =      -0.3846229198620129 [Eh]
	 Opposite-Spin Energy      =      -1.1768789163635733 [Eh]
	 Correlation Energy        =      -1.5615018362255864 [Eh]
	 Total Energy              =    -704.7582478448947541 [Eh]

	 ================> DF-SCS-MP2 Energies <==================
	-----------------------------------------------------------
	 SCS Same-Spin Scale       =       0.3333333333333333 [-]
	 SCS Opposite-Spin Scale   =       1.2000000000000000 [-]
	 SCS Same-Spin Energy      =      -0.1282076399540043 [Eh]
	 SCS Opposite-Spin Energy  =      -1.4122546996362879 [Eh]
	 SCS Correlation Energy    =      -1.5404623395902921 [Eh]
	 SCS Total Energy          =    -704.7372083482594007 [Eh]
	-----------------------------------------------------------

  Dipole Moment: [D]
     X:    -3.1332      Y:     1.5294      Z:     0.0000     Total:     3.4865

*** Psi4 exiting successfully. Buy a developer a beer!
