                               Psi4 1.4a3.dev225

  ==> Input File <==

--------------------------------------------------------------------------
#psi4
#
memory 32 gb

molecule  {
0 1
  S        0.1285310     1.6062780     0.0000000
  O        2.7930710    -1.2979160    -0.0000070
  C       -1.4623200    -0.4344690    -0.0000060
  C       -0.1473770    -0.9544550    -0.0000010
  C        0.8287900     0.0275460     0.0000070
  C       -1.4537890     0.9508390    -0.0000050
  C       -2.7097270    -1.2710250     0.0000050
  C        2.2775230    -0.1819160     0.0000050
  H        0.1093330    -2.0101800    -0.0000030
  H       -2.3118400     1.6133930    -0.0000140
  H       -2.7491870    -1.9153830    -0.8833870
  H       -2.7455896    -1.8564529     0.8026846
  H       -3.6031060    -0.6413200    -0.0000150
  H        2.9043230     0.7325940     0.0000170
units angstrom
no_reorient  #important for SAPT in psi4, default
symmetry c1  #important for SAPT in psi4, default
}

set PROPERTIES_ORIGIN ["COM"]
properties('MP2/aug-cc-pvtz', properties = ['dipole'])
--------------------------------------------------------------------------

    Molecular point group: c1
  Charge       = 0
  Multiplicity = 1
  Basis Set: AUG-CC-PVTZ
    Blend: AUG-CC-PVTZ
  Basis Set: (AUG-CC-PVTZ AUX)
    Blend: AUG-CC-PVTZ-JKFIT

    Orbital Energies [Eh]
    ---------------------

    Doubly Occupied:

       1A    -92.003895     2A    -20.554754     3A    -11.344457
       4A    -11.282618     5A    -11.275982     6A    -11.262490
       7A    -11.260872     8A    -11.229822     9A     -9.003953
      10A     -6.684921    11A     -6.684459    12A     -6.683733
      13A     -1.379785    14A     -1.193633    15A     -1.058417
      16A     -1.009918    17A     -0.953302    18A     -0.867690
      19A     -0.773202    20A     -0.739688    21A     -0.680566
      22A     -0.647798    23A     -0.615396    24A     -0.601005
      25A     -0.589257    26A     -0.555928    27A     -0.539469
      28A     -0.533408    29A     -0.503699    30A     -0.490250
      31A     -0.434238    32A     -0.356567    33A     -0.336516

  @DF-RHF Final Energy:  -703.19066830513134

   => Energetics <=

    Nuclear Repulsion Energy =            405.1291369989908731
    One-Electron Energy =               -1768.3762392078417633
    Two-Electron Energy =                 660.0564339037196078
    Total Energy =                       -703.1906683051313394
  Basis Set: (AUG-CC-PVTZ AUX)
    Blend: AUG-CC-PVTZ-RI
    Molecular point group: c1

    Geometry (in Angstrom), charge = 0, multiplicity = 1:

       Center              X                  Y                   Z               Mass
    ------------   -----------------  -----------------  -----------------  -----------------
         S            0.062508394686     1.573543805805     0.000645968083    31.972071174400
         O            2.727048394686    -1.330650194195     0.000638968083    15.994914619570
         C           -1.528342605314    -0.467203194195     0.000639968083    12.000000000000
         C           -0.213399605314    -0.987189194195     0.000644968083    12.000000000000
         C            0.762767394686    -0.005188194195     0.000652968083    12.000000000000
         C           -1.519811605314     0.918104805805     0.000640968083    12.000000000000
         C           -2.775749605314    -1.303759194195     0.000650968083    12.000000000000
         C            2.211500394686    -0.214650194195     0.000650968083    12.000000000000
         H            0.043310394686    -2.042914194195     0.000642968083     1.007825032230
         H           -2.377862605314     1.580658805805     0.000631968083     1.007825032230
         H           -2.815209605314    -1.948117194195    -0.882741031917     1.007825032230
         H           -2.811612205314    -1.889187094195     0.803330568083     1.007825032230
         H           -3.669128605314    -0.674054194195     0.000630968083     1.007825032230
         H            2.838300394686     0.699859805805     0.000662968083     1.007825032230

  Basis Set: AUG-CC-PVTZ
    Blend: AUG-CC-PVTZ
  Basis Set: (AUG-CC-PVTZ AUX)
    Blend: AUG-CC-PVTZ-JKFIT
	 Reference Energy          =    -703.1906683051313394 [Eh]
	 Singles Energy            =      -0.0000000000000000 [Eh]
	 Same-Spin Energy          =      -0.3846840376561558 [Eh]
	 Opposite-Spin Energy      =      -1.1764590121928327 [Eh]
	 Correlation Energy        =      -1.5611430498489884 [Eh]
	 Total Energy              =    -704.7518113549803047 [Eh]

	 ================> DF-SCS-MP2 Energies <==================
	-----------------------------------------------------------
	 SCS Same-Spin Scale       =       0.3333333333333333 [-]
	 SCS Opposite-Spin Scale   =       1.2000000000000000 [-]
	 SCS Same-Spin Energy      =      -0.1282280125520519 [Eh]
	 SCS Opposite-Spin Energy  =      -1.4117508146313991 [Eh]
	 SCS Correlation Energy    =      -1.5399788271834509 [Eh]
	 SCS Total Energy          =    -704.7306471323147434 [Eh]
	-----------------------------------------------------------

  Dipole Moment: [D]
     X:    -3.1567      Y:     1.5042      Z:     0.0188     Total:     3.4968

*** Psi4 exiting successfully. Buy a developer a beer!
