                               Psi4 1.4a3.dev225

  ==> Input File <==

--------------------------------------------------------------------------
#psi4
#
memory 32 gb

molecule  {
0 1
  S        0.1285310     1.6062780     0.0000000
  O        2.7930710    -1.2979160    -0.0000070
  C       -1.4623200    -0.4344690    -0.0000060
  C       -0.1473770    -0.9544550    -0.0000010
  C        0.8287900     0.0275460     0.0000070
  C       -1.4525574     1.1508352    -0.0000049
  C       -2.7097270    -1.2710250     0.0000050
  C        2.2775230    -0.1819160     0.0000050
  H        0.1093330    -2.0101800    -0.0000030
  H       -2.3118400     1.6133930    -0.0000140
  H       -2.7491870    -1.9153830    -0.8833870
  H       -2.7491970    -1.9153410     0.8834260
  H       -3.6031060    -0.6413200    -0.0000150
  H        2.9043230     0.7325940     0.0000170
units angstrom
no_reorient  #important for SAPT in psi4, default
symmetry c1  #important for SAPT in psi4, default
}

set PROPERTIES_ORIGIN ["COM"]
properties('MP2/aug-cc-pvtz', properties = ['dipole'])
--------------------------------------------------------------------------

    Molecular point group: c1
  Charge       = 0
  Multiplicity = 1
  Basis Set: AUG-CC-PVTZ
    Blend: AUG-CC-PVTZ
  Basis Set: (AUG-CC-PVTZ AUX)
    Blend: AUG-CC-PVTZ-JKFIT

    Orbital Energies [Eh]
    ---------------------

    Doubly Occupied:

       1A    -92.019526     2A    -20.551839     3A    -11.344049
       4A    -11.292446     5A    -11.280637     6A    -11.275645
       7A    -11.259426     8A    -11.241758     9A     -9.019104
      10A     -6.700150    11A     -6.699703    12A     -6.699176
      13A     -1.377845    14A     -1.185638    15A     -1.047617
      16A     -1.024720    17A     -0.940898    18A     -0.862976
      19A     -0.784131    20A     -0.731729    21A     -0.676812
      22A     -0.659311    23A     -0.610087    24A     -0.598022
      25A     -0.592249    26A     -0.554645    27A     -0.545314
      28A     -0.529251    29A     -0.502306    30A     -0.474609
      31A     -0.432198    32A     -0.365941    33A     -0.312773

  @DF-RHF Final Energy:  -703.15071017022240

   => Energetics <=

    Nuclear Repulsion Energy =            402.8086198514336616
    One-Electron Energy =               -1763.5336015995746948
    Two-Electron Energy =                 657.5742715779186938
    Total Energy =                       -703.1507101702223963
  Basis Set: (AUG-CC-PVTZ AUX)
    Blend: AUG-CC-PVTZ-RI
    Molecular point group: c1

    Geometry (in Angstrom), charge = 0, multiplicity = 1:

       Center              X                  Y                   Z               Mass
    ------------   -----------------  -----------------  -----------------  -----------------
         S            0.062419963419     1.554969626049     0.000000210902    31.972071174400
         O            2.726959963419    -1.349224373951    -0.000006789098    15.994914619570
         C           -1.528431036581    -0.485777373951    -0.000005789098    12.000000000000
         C           -0.213488036581    -1.005763373951    -0.000000789098    12.000000000000
         C            0.762678963419    -0.023762373951     0.000007210902    12.000000000000
         C           -1.518668436581     1.099526826049    -0.000004689098    12.000000000000
         C           -2.775838036581    -1.322333373951     0.000005210902    12.000000000000
         C            2.211411963419    -0.233224373951     0.000005210902    12.000000000000
         H            0.043221963419    -2.061488373951    -0.000002789098     1.007825032230
         H           -2.377951036581     1.562084626049    -0.000013789098     1.007825032230
         H           -2.815298036581    -1.966691373951    -0.883386789098     1.007825032230
         H           -2.815308036581    -1.966649373951     0.883426210902     1.007825032230
         H           -3.669217036581    -0.692628373951    -0.000014789098     1.007825032230
         H            2.838211963419     0.681285626049     0.000017210902     1.007825032230

  Basis Set: AUG-CC-PVTZ
    Blend: AUG-CC-PVTZ
  Basis Set: (AUG-CC-PVTZ AUX)
    Blend: AUG-CC-PVTZ-JKFIT
	 Reference Energy          =    -703.1507101702223963 [Eh]
	 Singles Energy            =      -0.0000000000000000 [Eh]
	 Same-Spin Energy          =      -0.3885830201106849 [Eh]
	 Opposite-Spin Energy      =      -1.1825534675079874 [Eh]
	 Correlation Energy        =      -1.5711364876186722 [Eh]
	 Total Energy              =    -704.7218466578410698 [Eh]

	 ================> DF-SCS-MP2 Energies <==================
	-----------------------------------------------------------
	 SCS Same-Spin Scale       =       0.3333333333333333 [-]
	 SCS Opposite-Spin Scale   =       1.2000000000000000 [-]
	 SCS Same-Spin Energy      =      -0.1295276733702283 [Eh]
	 SCS Opposite-Spin Energy  =      -1.4190641610095849 [Eh]
	 SCS Correlation Energy    =      -1.5485918343798131 [Eh]
	 SCS Total Energy          =    -704.6993020046022593 [Eh]
	-----------------------------------------------------------

  Dipole Moment: [D]
     X:    -3.1917      Y:     1.5280      Z:     0.0000     Total:     3.5386

*** Psi4 exiting successfully. Buy a developer a beer!
