                               Psi4 1.4a3.dev225

  ==> Input File <==

--------------------------------------------------------------------------
#psi4
#
memory 32 gb

molecule  {
0 1
  S        0.1285310     1.6062780     0.0000000
  O        2.7930710    -1.2979160    -0.0000070
  C       -1.4623200    -0.4344690    -0.0000060
  C       -0.1473770    -0.9544550    -0.0000010
  C        0.8287900     0.0275460     0.0000070
  C       -1.3571756     0.9468694    -0.0000059
  C       -2.7097270    -1.2710250     0.0000050
  C        2.2775230    -0.1819160     0.0000050
  H        0.1093330    -2.0101800    -0.0000030
  H       -2.3118400     1.6133930    -0.0000140
  H       -2.7491870    -1.9153830    -0.8833870
  H       -2.7491970    -1.9153410     0.8834260
  H       -3.6031060    -0.6413200    -0.0000150
  H        2.9043230     0.7325940     0.0000170
units angstrom
no_reorient  #important for SAPT in psi4, default
symmetry c1  #important for SAPT in psi4, default
}

set PROPERTIES_ORIGIN ["COM"]
properties('MP2/aug-cc-pvtz', properties = ['dipole'])
--------------------------------------------------------------------------

    Molecular point group: c1
  Charge       = 0
  Multiplicity = 1
  Basis Set: AUG-CC-PVTZ
    Blend: AUG-CC-PVTZ
  Basis Set: (AUG-CC-PVTZ AUX)
    Blend: AUG-CC-PVTZ-JKFIT

    Orbital Energies [Eh]
    ---------------------

    Doubly Occupied:

       1A    -92.006562     2A    -20.550372     3A    -11.341526
       4A    -11.283262     5A    -11.271208     6A    -11.260606
       7A    -11.259411     8A    -11.243601     9A     -9.008626
      10A     -6.689781    11A     -6.689021    12A     -6.688260
      13A     -1.376245    14A     -1.205651    15A     -1.055959
      16A     -1.017359    17A     -0.947849    18A     -0.861187
      19A     -0.762781    20A     -0.740937    21A     -0.679883
      22A     -0.642760    23A     -0.605329    24A     -0.598321
      25A     -0.574198    26A     -0.555485    27A     -0.541967
      28A     -0.529522    29A     -0.507456    30A     -0.501064
      31A     -0.430442    32A     -0.360404    33A     -0.333130

  @DF-RHF Final Energy:  -703.18584175385399

   => Energetics <=

    Nuclear Repulsion Energy =            406.6269913378491196
    One-Electron Energy =               -1771.3853388660797918
    Two-Electron Energy =                 661.5725057743766229
    Total Energy =                       -703.1858417538539925
  Basis Set: (AUG-CC-PVTZ AUX)
    Blend: AUG-CC-PVTZ-RI
    Molecular point group: c1

    Geometry (in Angstrom), charge = 0, multiplicity = 1:

       Center              X                  Y                   Z               Mass
    ------------   -----------------  -----------------  -----------------  -----------------
         S            0.053336987072     1.574392792073     0.000000306130    31.972071174400
         O            2.717876987072    -1.329801207927    -0.000006693870    15.994914619570
         C           -1.537514012928    -0.466354207927    -0.000005693870    12.000000000000
         C           -0.222571012928    -0.986340207927    -0.000000693870    12.000000000000
         C            0.753595987072    -0.004339207927     0.000007306130    12.000000000000
         C           -1.432369612928     0.914984192073    -0.000005593870    12.000000000000
         C           -2.784921012928    -1.302910207927     0.000005306130    12.000000000000
         C            2.202328987072    -0.213801207927     0.000005306130    12.000000000000
         H            0.034138987072    -2.042065207927    -0.000002693870     1.007825032230
         H           -2.387034012928     1.581507792073    -0.000013693870     1.007825032230
         H           -2.824381012928    -1.947268207927    -0.883386693870     1.007825032230
         H           -2.824391012928    -1.947226207927     0.883426306130     1.007825032230
         H           -3.678300012928    -0.673205207927    -0.000014693870     1.007825032230
         H            2.829128987072     0.700708792073     0.000017306130     1.007825032230

  Basis Set: AUG-CC-PVTZ
    Blend: AUG-CC-PVTZ
  Basis Set: (AUG-CC-PVTZ AUX)
    Blend: AUG-CC-PVTZ-JKFIT
	 Reference Energy          =    -703.1858417538539925 [Eh]
	 Singles Energy            =      -0.0000000000000000 [Eh]
	 Same-Spin Energy          =      -0.3857289907328827 [Eh]
	 Opposite-Spin Energy      =      -1.1771657254760766 [Eh]
	 Correlation Energy        =      -1.5628947162089593 [Eh]
	 Total Energy              =    -704.7487364700629087 [Eh]

	 ================> DF-SCS-MP2 Energies <==================
	-----------------------------------------------------------
	 SCS Same-Spin Scale       =       0.3333333333333333 [-]
	 SCS Opposite-Spin Scale   =       1.2000000000000000 [-]
	 SCS Same-Spin Energy      =      -0.1285763302442942 [Eh]
	 SCS Opposite-Spin Energy  =      -1.4125988705712917 [Eh]
	 SCS Correlation Energy    =      -1.5411752008155859 [Eh]
	 SCS Total Energy          =    -704.7270169546695797 [Eh]
	-----------------------------------------------------------

  Dipole Moment: [D]
     X:    -3.1817      Y:     1.6437      Z:     0.0000     Total:     3.5812

*** Psi4 exiting successfully. Buy a developer a beer!
