                               Psi4 1.4a3.dev225

  ==> Input File <==

--------------------------------------------------------------------------
#psi4
#
memory 32 gb

molecule  {
0 1
  S        0.1285310     1.6062780     0.0000000
  O        2.7930710    -1.2979160    -0.0000070
  C       -1.4623200    -0.4344690    -0.0000060
  C       -0.1473770    -0.9544550    -0.0000010
  C        0.8287900     0.0275460     0.0000070
  C       -1.4539122     0.9308394    -0.0000050
  C       -2.7097270    -1.2710250     0.0000050
  C        2.2775230    -0.1819160     0.0000050
  H        0.1093330    -2.0101800    -0.0000030
  H       -2.3118400     1.6133930    -0.0000140
  H       -2.7491870    -1.9153830    -0.8833870
  H       -2.7491970    -1.9153410     0.8834260
  H       -3.6031060    -0.6413200    -0.0000150
  H        2.9043230     0.7325940     0.0000170
units angstrom
no_reorient  #important for SAPT in psi4, default
symmetry c1  #important for SAPT in psi4, default
}

set PROPERTIES_ORIGIN ["COM"]
properties('MP2/aug-cc-pvtz', properties = ['dipole'])
--------------------------------------------------------------------------

    Molecular point group: c1
  Charge       = 0
  Multiplicity = 1
  Basis Set: AUG-CC-PVTZ
    Blend: AUG-CC-PVTZ
  Basis Set: (AUG-CC-PVTZ AUX)
    Blend: AUG-CC-PVTZ-JKFIT

    Orbital Energies [Eh]
    ---------------------

    Doubly Occupied:

       1A    -92.002810     2A    -20.555229     3A    -11.344672
       4A    -11.282010     5A    -11.276280     6A    -11.261778
       7A    -11.260387     8A    -11.242069     9A     -9.002875
      10A     -6.683850    11A     -6.683355    12A     -6.682624
      13A     -1.380146    14A     -1.195260    15A     -1.056585
      16A     -1.008147    17A     -0.947291    18A     -0.867857
      19A     -0.771538    20A     -0.739996    21A     -0.679536
      22A     -0.647382    23A     -0.605393    24A     -0.597277
      25A     -0.588441    26A     -0.553779    27A     -0.539405
      28A     -0.531333    29A     -0.503198    30A     -0.490331
      31A     -0.434568    32A     -0.356333    33A     -0.338818

  @DF-RHF Final Energy:  -703.19698994475459

   => Energetics <=

    Nuclear Repulsion Energy =            404.8754601203376069
    One-Electron Energy =               -1767.9237958938499560
    Two-Electron Energy =                 659.8513458287578715
    Total Energy =                       -703.1969899447545913
  Basis Set: (AUG-CC-PVTZ AUX)
    Blend: AUG-CC-PVTZ-RI
    Molecular point group: c1

    Geometry (in Angstrom), charge = 0, multiplicity = 1:

       Center              X                  Y                   Z               Mass
    ------------   -----------------  -----------------  -----------------  -----------------
         S            0.062548977721     1.575919289904     0.000000220425    31.972071174400
         O            2.727088977721    -1.328274710096    -0.000006779575    15.994914619570
         C           -1.528302022279    -0.464827710096    -0.000005779575    12.000000000000
         C           -0.213359022279    -0.984813710096    -0.000000779575    12.000000000000
         C            0.762807977721    -0.002812710096     0.000007220425    12.000000000000
         C           -1.519894222279     0.900480689904    -0.000004779575    12.000000000000
         C           -2.775709022279    -1.301383710096     0.000005220425    12.000000000000
         C            2.211540977721    -0.212274710096     0.000005220425    12.000000000000
         H            0.043350977721    -2.040538710096    -0.000002779575     1.007825032230
         H           -2.377822022279     1.583034289904    -0.000013779575     1.007825032230
         H           -2.815169022279    -1.945741710096    -0.883386779575     1.007825032230
         H           -2.815179022279    -1.945699710096     0.883426220425     1.007825032230
         H           -3.669088022279    -0.671678710096    -0.000014779575     1.007825032230
         H            2.838340977721     0.702235289904     0.000017220425     1.007825032230

  Basis Set: AUG-CC-PVTZ
    Blend: AUG-CC-PVTZ
  Basis Set: (AUG-CC-PVTZ AUX)
    Blend: AUG-CC-PVTZ-JKFIT
	 Reference Energy          =    -703.1969899447545913 [Eh]
	 Singles Energy            =      -0.0000000000000000 [Eh]
	 Same-Spin Energy          =      -0.3842618027446390 [Eh]
	 Opposite-Spin Energy      =      -1.1765211465466943 [Eh]
	 Correlation Energy        =      -1.5607829492913332 [Eh]
	 Total Energy              =    -704.7577728940459565 [Eh]

	 ================> DF-SCS-MP2 Energies <==================
	-----------------------------------------------------------
	 SCS Same-Spin Scale       =       0.3333333333333333 [-]
	 SCS Opposite-Spin Scale   =       1.2000000000000000 [-]
	 SCS Same-Spin Energy      =      -0.1280872675815463 [Eh]
	 SCS Opposite-Spin Energy  =      -1.4118253758560331 [Eh]
	 SCS Correlation Energy    =      -1.5399126434375794 [Eh]
	 SCS Total Energy          =    -704.7369025881921516 [Eh]
	-----------------------------------------------------------

  Dipole Moment: [D]
     X:    -3.1263      Y:     1.5162      Z:     0.0000     Total:     3.4746

*** Psi4 exiting successfully. Buy a developer a beer!
