                               Psi4 1.4a3.dev225

  ==> Input File <==

--------------------------------------------------------------------------
#psi4
#
memory 32 gb

molecule  {
0 1
  S        0.1285310     1.6062780     0.0000000
  O        2.7930710    -1.2979160    -0.0000070
  C       -1.4623200    -0.4344690    -0.0000060
  C       -0.1473770    -0.9544550    -0.0000010
  C        0.8287900     0.0275460     0.0000070
  C       -1.4531732     1.0508371    -0.0000049
  C       -2.7097270    -1.2710250     0.0000050
  C        2.2775230    -0.1819160     0.0000050
  H        0.1093330    -2.0101800    -0.0000030
  H       -2.3118400     1.6133930    -0.0000140
  H       -2.7491870    -1.9153830    -0.8833870
  H       -2.7491970    -1.9153410     0.8834260
  H       -3.6031060    -0.6413200    -0.0000150
  H        2.9043230     0.7325940     0.0000170
units angstrom
no_reorient  #important for SAPT in psi4, default
symmetry c1  #important for SAPT in psi4, default
}

set PROPERTIES_ORIGIN ["COM"]
properties('MP2/aug-cc-pvtz', properties = ['dipole'])
--------------------------------------------------------------------------

    Molecular point group: c1
  Charge       = 0
  Multiplicity = 1
  Basis Set: AUG-CC-PVTZ
    Blend: AUG-CC-PVTZ
  Basis Set: (AUG-CC-PVTZ AUX)
    Blend: AUG-CC-PVTZ-JKFIT

    Orbital Energies [Eh]
    ---------------------

    Doubly Occupied:

       1A    -92.011455     2A    -20.553434     3A    -11.344383
       4A    -11.287982     5A    -11.275912     6A    -11.272996
       7A    -11.260235     8A    -11.241752     9A     -9.011373
      10A     -6.692341    11A     -6.691972    12A     -6.691297
      13A     -1.378935    14A     -1.188477    15A     -1.049914
      16A     -1.018149    17A     -0.943313    18A     -0.861836
      19A     -0.779715    20A     -0.736260    21A     -0.677956
      22A     -0.651978    23A     -0.603499    24A     -0.597526
      25A     -0.594007    26A     -0.554153    27A     -0.542680
      28A     -0.533069    29A     -0.502207    30A     -0.485203
      31A     -0.433523    32A     -0.360256    33A     -0.323990

  @DF-RHF Final Energy:  -703.18225925747799

   => Energetics <=

    Nuclear Repulsion Energy =            403.7070747621010014
    One-Electron Energy =               -1765.4751180480666335
    Two-Electron Energy =                 658.5857840284876374
    Total Energy =                       -703.1822592574779947
  Basis Set: (AUG-CC-PVTZ AUX)
    Blend: AUG-CC-PVTZ-RI
    Molecular point group: c1

    Geometry (in Angstrom), charge = 0, multiplicity = 1:

       Center              X                  Y                   Z               Mass
    ------------   -----------------  -----------------  -----------------  -----------------
         S            0.062478604552     1.564492201394     0.000000210902    31.972071174400
         O            2.727018604552    -1.339701798606    -0.000006789098    15.994914619570
         C           -1.528372395448    -0.476254798606    -0.000005789098    12.000000000000
         C           -0.213429395448    -0.996240798606    -0.000000789098    12.000000000000
         C            0.762737604552    -0.014239798606     0.000007210902    12.000000000000
         C           -1.519225595448     1.009051301394    -0.000004689098    12.000000000000
         C           -2.775779395448    -1.312810798606     0.000005210902    12.000000000000
         C            2.211470604552    -0.223701798606     0.000005210902    12.000000000000
         H            0.043280604552    -2.051965798606    -0.000002789098     1.007825032230
         H           -2.377892395448     1.571607201394    -0.000013789098     1.007825032230
         H           -2.815239395448    -1.957168798606    -0.883386789098     1.007825032230
         H           -2.815249395448    -1.957126798606     0.883426210902     1.007825032230
         H           -3.669158395448    -0.683105798606    -0.000014789098     1.007825032230
         H            2.838270604552     0.690808201394     0.000017210902     1.007825032230

  Basis Set: AUG-CC-PVTZ
    Blend: AUG-CC-PVTZ
  Basis Set: (AUG-CC-PVTZ AUX)
    Blend: AUG-CC-PVTZ-JKFIT
	 Reference Energy          =    -703.1822592574779947 [Eh]
	 Singles Energy            =      -0.0000000000000000 [Eh]
	 Same-Spin Energy          =      -0.3865625170619901 [Eh]
	 Opposite-Spin Energy      =      -1.1792818030564871 [Eh]
	 Correlation Energy        =      -1.5658443201184773 [Eh]
	 Total Energy              =    -704.7481035775964529 [Eh]

	 ================> DF-SCS-MP2 Energies <==================
	-----------------------------------------------------------
	 SCS Same-Spin Scale       =       0.3333333333333333 [-]
	 SCS Opposite-Spin Scale   =       1.2000000000000000 [-]
	 SCS Same-Spin Energy      =      -0.1288541723539967 [Eh]
	 SCS Opposite-Spin Energy  =      -1.4151381636677844 [Eh]
	 SCS Correlation Energy    =      -1.5439923360217811 [Eh]
	 SCS Total Energy          =    -704.7262515934997964 [Eh]
	-----------------------------------------------------------

  Dipole Moment: [D]
     X:    -3.1663      Y:     1.5589      Z:     0.0000     Total:     3.5292

*** Psi4 exiting successfully. Buy a developer a beer!
