                               Psi4 1.4a3.dev225

  ==> Input File <==

--------------------------------------------------------------------------
#psi4
#
memory 32 gb

molecule  {
0 1
  S        0.1285310     1.6062780     0.0000000
  O        2.7930710    -1.2979160    -0.0000070
  C       -1.4623200    -0.4344690    -0.0000060
  C       -0.1473770    -0.9544550    -0.0000010
  C        0.8287900     0.0275460     0.0000070
  C       -1.4537890     0.9508390    -0.0000050
  C       -2.7097270    -1.2710250     0.0000050
  C        2.2775230    -0.1819160     0.0000050
  H        0.1565880    -2.2045172    -0.0000034
  H       -2.3118400     1.6133930    -0.0000140
  H       -2.7491870    -1.9153830    -0.8833870
  H       -2.7491970    -1.9153410     0.8834260
  H       -3.6031060    -0.6413200    -0.0000150
  H        2.9043230     0.7325940     0.0000170
units angstrom
no_reorient  #important for SAPT in psi4, default
symmetry c1  #important for SAPT in psi4, default
}

set PROPERTIES_ORIGIN ["COM"]
properties('MP2/aug-cc-pvtz', properties = ['dipole'])
--------------------------------------------------------------------------

    Molecular point group: c1
  Charge       = 0
  Multiplicity = 1
  Basis Set: AUG-CC-PVTZ
    Blend: AUG-CC-PVTZ
  Basis Set: (AUG-CC-PVTZ AUX)
    Blend: AUG-CC-PVTZ-JKFIT

    Orbital Energies [Eh]
    ---------------------

    Doubly Occupied:

       1A    -92.005138     2A    -20.554680     3A    -11.344563
       4A    -11.284108     5A    -11.280553     6A    -11.277100
       7A    -11.264490     8A    -11.241686     9A     -9.005155
      10A     -6.686120    11A     -6.685656    12A     -6.684913
      13A     -1.379610    14A     -1.194001    15A     -1.055524
      16A     -1.005341    17A     -0.944764    18A     -0.865643
      19A     -0.772890    20A     -0.719547    21A     -0.675662
      22A     -0.646337    23A     -0.601196    24A     -0.596496
      25A     -0.578507    26A     -0.553859    27A     -0.537462
      28A     -0.521529    29A     -0.503164    30A     -0.486895
      31A     -0.434363    32A     -0.356997    33A     -0.337245

  @DF-RHF Final Energy:  -703.17398670266743

   => Energetics <=

    Nuclear Repulsion Energy =            403.7371845938103547
    One-Electron Energy =               -1765.6599573072344356
    Two-Electron Energy =                 658.7487860107567030
    Total Energy =                       -703.1739867026674347
  Basis Set: (AUG-CC-PVTZ AUX)
    Blend: AUG-CC-PVTZ-RI
    Molecular point group: c1

    Geometry (in Angstrom), charge = 0, multiplicity = 1:

       Center              X                  Y                   Z               Mass
    ------------   -----------------  -----------------  -----------------  -----------------
         S            0.062159313106     1.575569032571     0.000000223624    31.972071174400
         O            2.726699313106    -1.328624967429    -0.000006776376    15.994914619570
         C           -1.528691686894    -0.465177967429    -0.000005776376    12.000000000000
         C           -0.213748686894    -0.985163967429    -0.000000776376    12.000000000000
         C            0.762418313106    -0.003162967429     0.000007223624    12.000000000000
         C           -1.520160686894     0.920130032571    -0.000004776376    12.000000000000
         C           -2.776098686894    -1.301733967429     0.000005223624    12.000000000000
         C            2.211151313106    -0.212624967429     0.000005223624    12.000000000000
         H            0.090216313106    -2.235226167429    -0.000003176376     1.007825032230
         H           -2.378211686894     1.582684032571    -0.000013776376     1.007825032230
         H           -2.815558686894    -1.946091967429    -0.883386776376     1.007825032230
         H           -2.815568686894    -1.946049967429     0.883426223624     1.007825032230
         H           -3.669477686894    -0.672028967429    -0.000014776376     1.007825032230
         H            2.837951313106     0.701885032571     0.000017223624     1.007825032230

  Basis Set: AUG-CC-PVTZ
    Blend: AUG-CC-PVTZ
  Basis Set: (AUG-CC-PVTZ AUX)
    Blend: AUG-CC-PVTZ-JKFIT
	 Reference Energy          =    -703.1739867026674347 [Eh]
	 Singles Energy            =      -0.0000000000000000 [Eh]
	 Same-Spin Energy          =      -0.3853402322991953 [Eh]
	 Opposite-Spin Energy      =      -1.1790399115943622 [Eh]
	 Correlation Energy        =      -1.5643801438935574 [Eh]
	 Total Energy              =    -704.7383668465610072 [Eh]

	 ================> DF-SCS-MP2 Energies <==================
	-----------------------------------------------------------
	 SCS Same-Spin Scale       =       0.3333333333333333 [-]
	 SCS Opposite-Spin Scale   =       1.2000000000000000 [-]
	 SCS Same-Spin Energy      =      -0.1284467440997318 [Eh]
	 SCS Opposite-Spin Energy  =      -1.4148478939132345 [Eh]
	 SCS Correlation Energy    =      -1.5432946380129662 [Eh]
	 SCS Total Energy          =    -704.7172813406804153 [Eh]
	-----------------------------------------------------------

  Dipole Moment: [D]
     X:    -3.1209      Y:     1.5368      Z:     0.0000     Total:     3.4787

*** Psi4 exiting successfully. Buy a developer a beer!
