                               Psi4 1.4a3.dev225

  ==> Input File <==

--------------------------------------------------------------------------
#psi4
#
memory 32 gb

molecule  {
0 1
  S        0.1285310     1.6062780     0.0000000
  O        2.7930710    -1.2979160    -0.0000070
  C       -1.4623200    -0.4344690    -0.0000060
  C       -0.1473770    -0.9544550    -0.0000010
  C        0.8287900     0.0275460     0.0000070
  C       -1.4537890     0.9508390    -0.0000050
  C       -2.7097270    -1.2710250     0.0000050
  C        2.2775230    -0.1819160     0.0000050
  H        0.0857055    -1.9130114    -0.0000028
  H       -2.3118400     1.6133930    -0.0000140
  H       -2.7491870    -1.9153830    -0.8833870
  H       -2.7491970    -1.9153410     0.8834260
  H       -3.6031060    -0.6413200    -0.0000150
  H        2.9043230     0.7325940     0.0000170
units angstrom
no_reorient  #important for SAPT in psi4, default
symmetry c1  #important for SAPT in psi4, default
}

set PROPERTIES_ORIGIN ["COM"]
properties('MP2/aug-cc-pvtz', properties = ['dipole'])
--------------------------------------------------------------------------

    Molecular point group: c1
  Charge       = 0
  Multiplicity = 1
  Basis Set: AUG-CC-PVTZ
    Blend: AUG-CC-PVTZ
  Basis Set: (AUG-CC-PVTZ AUX)
    Blend: AUG-CC-PVTZ-JKFIT

    Orbital Energies [Eh]
    ---------------------

    Doubly Occupied:

       1A    -92.003891     2A    -20.555163     3A    -11.344740
       4A    -11.282666     5A    -11.276001     6A    -11.262458
       7A    -11.250352     8A    -11.242133     9A     -9.003961
      10A     -6.684931    11A     -6.684468    12A     -6.683748
      13A     -1.380178    14A     -1.194182    15A     -1.055171
      16A     -1.014279    17A     -0.948172    18A     -0.867312
      19A     -0.774337    20A     -0.754974    21A     -0.680845
      22A     -0.648823    23A     -0.609191    24A     -0.596709
      25A     -0.592949    26A     -0.553874    27A     -0.541439
      28A     -0.534733    29A     -0.502882    30A     -0.490784
      31A     -0.434515    32A     -0.356368    33A     -0.336401

  @DF-RHF Final Energy:  -703.19090686741140

   => Energetics <=

    Nuclear Repulsion Energy =            405.2191037126265201
    One-Electron Energy =               -1768.5347659273029421
    Two-Electron Energy =                 660.1247553472650225
    Total Energy =                       -703.1909068674113996
  Basis Set: (AUG-CC-PVTZ AUX)
    Blend: AUG-CC-PVTZ-RI
    Molecular point group: c1

    Geometry (in Angstrom), charge = 0, multiplicity = 1:

       Center              X                  Y                   Z               Mass
    ------------   -----------------  -----------------  -----------------  -----------------
         S            0.062726211975     1.573237648824     0.000000218825    31.972071174400
         O            2.727266211975    -1.330956351176    -0.000006781175    15.994914619570
         C           -1.528124788025    -0.467509351176    -0.000005781175    12.000000000000
         C           -0.213181788025    -0.987495351176    -0.000000781175    12.000000000000
         C            0.762985211975    -0.005494351176     0.000007218825    12.000000000000
         C           -1.519593788025     0.917798648824    -0.000004781175    12.000000000000
         C           -2.775531788025    -1.304065351176     0.000005218825    12.000000000000
         C            2.211718211975    -0.214956351176     0.000005218825    12.000000000000
         H            0.019900711975    -1.946051751176    -0.000002581175     1.007825032230
         H           -2.377644788025     1.580352648824    -0.000013781175     1.007825032230
         H           -2.814991788025    -1.948423351176    -0.883386781175     1.007825032230
         H           -2.815001788025    -1.948381351176     0.883426218825     1.007825032230
         H           -3.668910788025    -0.674360351176    -0.000014781175     1.007825032230
         H            2.838518211975     0.699553648824     0.000017218825     1.007825032230

  Basis Set: AUG-CC-PVTZ
    Blend: AUG-CC-PVTZ
  Basis Set: (AUG-CC-PVTZ AUX)
    Blend: AUG-CC-PVTZ-JKFIT
	 Reference Energy          =    -703.1909068674113996 [Eh]
	 Singles Energy            =      -0.0000000000000000 [Eh]
	 Same-Spin Energy          =      -0.3843902428303249 [Eh]
	 Opposite-Spin Energy      =      -1.1764027711332856 [Eh]
	 Correlation Energy        =      -1.5607930139636106 [Eh]
	 Total Energy              =    -704.7516998813749751 [Eh]

	 ================> DF-SCS-MP2 Energies <==================
	-----------------------------------------------------------
	 SCS Same-Spin Scale       =       0.3333333333333333 [-]
	 SCS Opposite-Spin Scale   =       1.2000000000000000 [-]
	 SCS Same-Spin Energy      =      -0.1281300809434416 [Eh]
	 SCS Opposite-Spin Energy  =      -1.4116833253599428 [Eh]
	 SCS Correlation Energy    =      -1.5398134063033844 [Eh]
	 SCS Total Energy          =    -704.7307202737148373 [Eh]
	-----------------------------------------------------------

  Dipole Moment: [D]
     X:    -3.1397      Y:     1.5389      Z:     0.0000     Total:     3.4965

*** Psi4 exiting successfully. Buy a developer a beer!
