                               Psi4 1.4a3.dev225

  ==> Input File <==

--------------------------------------------------------------------------
#psi4
#
memory 32 gb

molecule  {
0 1
  S        0.1285310     1.6062780     0.0000000
  O        2.7930710    -1.2979160    -0.0000070
  C       -1.4623200    -0.4344690    -0.0000060
  C       -0.1002271    -0.8141575    -0.0000027
  C        0.8287900     0.0275460     0.0000070
  C       -1.4537890     0.9508390    -0.0000050
  C       -2.7097270    -1.2710250     0.0000050
  C        2.2775230    -0.1819160     0.0000050
  H        0.1093330    -2.0101800    -0.0000030
  H       -2.3118400     1.6133930    -0.0000140
  H       -2.7491870    -1.9153830    -0.8833870
  H       -2.7491970    -1.9153410     0.8834260
  H       -3.6031060    -0.6413200    -0.0000150
  H        2.9043230     0.7325940     0.0000170
units angstrom
no_reorient  #important for SAPT in psi4, default
symmetry c1  #important for SAPT in psi4, default
}

set PROPERTIES_ORIGIN ["COM"]
properties('MP2/aug-cc-pvtz', properties = ['dipole'])
--------------------------------------------------------------------------

    Molecular point group: c1
  Charge       = 0
  Multiplicity = 1
  Basis Set: AUG-CC-PVTZ
    Blend: AUG-CC-PVTZ
  Basis Set: (AUG-CC-PVTZ AUX)
    Blend: AUG-CC-PVTZ-JKFIT

    Orbital Energies [Eh]
    ---------------------

    Doubly Occupied:

       1A    -91.995232     2A    -20.560547     3A    -11.349050
       4A    -11.281557     5A    -11.261544     6A    -11.261166
       7A    -11.253679     8A    -11.245780     9A     -8.996244
      10A     -6.677213    11A     -6.676836    12A     -6.675898
      13A     -1.384460    14A     -1.212067    15A     -1.061646
      16A     -1.013390    17A     -0.949171    18A     -0.869928
      19A     -0.786807    20A     -0.719589    21A     -0.691544
      22A     -0.649717    23A     -0.608517    24A     -0.600499
      25A     -0.580444    26A     -0.562531    27A     -0.549076
      28A     -0.510960    29A     -0.507781    30A     -0.476204
      31A     -0.439080    32A     -0.365880    33A     -0.341678

  @DF-RHF Final Energy:  -703.16950582488357

   => Energetics <=

    Nuclear Repulsion Energy =            407.4141807039351306
    One-Electron Energy =               -1772.9359434522455103
    Two-Electron Energy =                 662.3522569234266939
    Total Energy =                       -703.1695058248835721
  Basis Set: (AUG-CC-PVTZ AUX)
    Blend: AUG-CC-PVTZ-RI
    Molecular point group: c1

    Geometry (in Angstrom), charge = 0, multiplicity = 1:

       Center              X                  Y                   Z               Mass
    ------------   -----------------  -----------------  -----------------  -----------------
         S            0.058047275623     1.560654587751     0.000000382312    31.972071174400
         O            2.722587275623    -1.343539412249    -0.000006617688    15.994914619570
         C           -1.532803724377    -0.480092412249    -0.000005617688    12.000000000000
         C           -0.170710824377    -0.859780912249    -0.000002317688    12.000000000000
         C            0.758306275623    -0.018077412249     0.000007382312    12.000000000000
         C           -1.524272724377     0.905215587751    -0.000004617688    12.000000000000
         C           -2.780210724377    -1.316648412249     0.000005382312    12.000000000000
         C            2.207039275623    -0.227539412249     0.000005382312    12.000000000000
         H            0.038849275623    -2.055803412249    -0.000002617688     1.007825032230
         H           -2.382323724377     1.567769587751    -0.000013617688     1.007825032230
         H           -2.819670724377    -1.961006412249    -0.883386617688     1.007825032230
         H           -2.819680724377    -1.960964412249     0.883426382312     1.007825032230
         H           -3.673589724377    -0.686943412249    -0.000014617688     1.007825032230
         H            2.833839275623     0.686970587751     0.000017382312     1.007825032230

  Basis Set: AUG-CC-PVTZ
    Blend: AUG-CC-PVTZ
  Basis Set: (AUG-CC-PVTZ AUX)
    Blend: AUG-CC-PVTZ-JKFIT
	 Reference Energy          =    -703.1695058248835721 [Eh]
	 Singles Energy            =      -0.0000000000000000 [Eh]
	 Same-Spin Energy          =      -0.3833480585126454 [Eh]
	 Opposite-Spin Energy      =      -1.1754353757302700 [Eh]
	 Correlation Energy        =      -1.5587834342429154 [Eh]
	 Total Energy              =    -704.7282892591265409 [Eh]

	 ================> DF-SCS-MP2 Energies <==================
	-----------------------------------------------------------
	 SCS Same-Spin Scale       =       0.3333333333333333 [-]
	 SCS Opposite-Spin Scale   =       1.2000000000000000 [-]
	 SCS Same-Spin Energy      =      -0.1277826861708818 [Eh]
	 SCS Opposite-Spin Energy  =      -1.4105224508763239 [Eh]
	 SCS Correlation Energy    =      -1.5383051370472056 [Eh]
	 SCS Total Energy          =    -704.7078109619308179 [Eh]
	-----------------------------------------------------------

  Dipole Moment: [D]
     X:    -3.0745      Y:     1.3602      Z:     0.0000     Total:     3.3619

*** Psi4 exiting successfully. Buy a developer a beer!
