                               Psi4 1.4a3.dev225

  ==> Input File <==

--------------------------------------------------------------------------
#psi4
#
memory 32 gb

molecule  {
0 1
  S        0.1285310     1.6062780     0.0000000
  O        2.7930710    -1.2979160    -0.0000070
  C       -1.4623200    -0.4344690    -0.0000060
  C       -0.1473770    -0.9544550    -0.0000010
  C        0.8287900     0.0275460     0.0000070
  C       -1.4537890     0.9508390    -0.0000050
  C       -2.7097270    -1.2710250     0.0000050
  C        2.2775230    -0.1819160     0.0000050
  H        0.1046075    -1.9907463    -0.0000030
  H       -2.3118400     1.6133930    -0.0000140
  H       -2.7491870    -1.9153830    -0.8833870
  H       -2.7491970    -1.9153410     0.8834260
  H       -3.6031060    -0.6413200    -0.0000150
  H        2.9043230     0.7325940     0.0000170
units angstrom
no_reorient  #important for SAPT in psi4, default
symmetry c1  #important for SAPT in psi4, default
}

set PROPERTIES_ORIGIN ["COM"]
properties('MP2/aug-cc-pvtz', properties = ['dipole'])
--------------------------------------------------------------------------

    Molecular point group: c1
  Charge       = 0
  Multiplicity = 1
  Basis Set: AUG-CC-PVTZ
    Blend: AUG-CC-PVTZ
  Basis Set: (AUG-CC-PVTZ AUX)
    Blend: AUG-CC-PVTZ-JKFIT

    Orbital Energies [Eh]
    ---------------------

    Doubly Occupied:

       1A    -92.004092     2A    -20.554982     3A    -11.344650
       4A    -11.282983     5A    -11.276148     6A    -11.262913
       7A    -11.259076     8A    -11.242016     9A     -9.004153
      10A     -6.685122    11A     -6.684659    12A     -6.683933
      13A     -1.379996    14A     -1.193836    15A     -1.055184
      16A     -1.010622    17A     -0.946829    18A     -0.866527
      19A     -0.773099    20A     -0.742575    21A     -0.679590
      22A     -0.648061    23A     -0.605581    24A     -0.596633
      25A     -0.590533    26A     -0.553826    27A     -0.539288
      28A     -0.533885    29A     -0.502907    30A     -0.490275
      31A     -0.434442    32A     -0.356380    33A     -0.336553

  @DF-RHF Final Energy:  -703.19689439031242

   => Energetics <=

    Nuclear Repulsion Energy =            404.7752401021398896
    One-Electron Energy =               -1767.7015685927610775
    Two-Electron Energy =                 659.7294341003088221
    Total Energy =                       -703.1968943903124227
  Basis Set: (AUG-CC-PVTZ AUX)
    Blend: AUG-CC-PVTZ-RI
    Molecular point group: c1

    Geometry (in Angstrom), charge = 0, multiplicity = 1:

       Center              X                  Y                   Z               Mass
    ------------   -----------------  -----------------  -----------------  -----------------
         S            0.062575038944     1.573859351317     0.000000220425    31.972071174400
         O            2.727115038944    -1.330334648683    -0.000006779575    15.994914619570
         C           -1.528275961056    -0.466887648683    -0.000005779575    12.000000000000
         C           -0.213332961056    -0.986873648683    -0.000000779575    12.000000000000
         C            0.762834038944    -0.004872648683     0.000007220425    12.000000000000
         C           -1.519744961056     0.918420351317    -0.000004779575    12.000000000000
         C           -2.775682961056    -1.303443648683     0.000005220425    12.000000000000
         C            2.211567038944    -0.214334648683     0.000005220425    12.000000000000
         H            0.038651538944    -2.023164948683    -0.000002779575     1.007825032230
         H           -2.377795961056     1.580974351317    -0.000013779575     1.007825032230
         H           -2.815142961056    -1.947801648683    -0.883386779575     1.007825032230
         H           -2.815152961056    -1.947759648683     0.883426220425     1.007825032230
         H           -3.669061961056    -0.673738648683    -0.000014779575     1.007825032230
         H            2.838367038944     0.700175351317     0.000017220425     1.007825032230

  Basis Set: AUG-CC-PVTZ
    Blend: AUG-CC-PVTZ
  Basis Set: (AUG-CC-PVTZ AUX)
    Blend: AUG-CC-PVTZ-JKFIT
	 Reference Energy          =    -703.1968943903124227 [Eh]
	 Singles Energy            =      -0.0000000000000000 [Eh]
	 Same-Spin Energy          =      -0.3845677368815481 [Eh]
	 Opposite-Spin Energy      =      -1.1767478349331342 [Eh]
	 Correlation Energy        =      -1.5613155718146823 [Eh]
	 Total Energy              =    -704.7582099621271254 [Eh]

	 ================> DF-SCS-MP2 Energies <==================
	-----------------------------------------------------------
	 SCS Same-Spin Scale       =       0.3333333333333333 [-]
	 SCS Opposite-Spin Scale   =       1.2000000000000000 [-]
	 SCS Same-Spin Energy      =      -0.1281892456271827 [Eh]
	 SCS Opposite-Spin Energy  =      -1.4120974019197610 [Eh]
	 SCS Correlation Energy    =      -1.5402866475469437 [Eh]
	 SCS Total Energy          =    -704.7371810378593864 [Eh]
	-----------------------------------------------------------

  Dipole Moment: [D]
     X:    -3.1345      Y:     1.5306      Z:     0.0000     Total:     3.4882

*** Psi4 exiting successfully. Buy a developer a beer!
