                               Psi4 1.4a3.dev225

  ==> Input File <==

--------------------------------------------------------------------------
#psi4
#
memory 32 gb

molecule  {
0 1
  S        0.1285310     1.6062780     0.0000000
  O        2.7930710    -1.2979160    -0.0000070
  C       -1.4623200    -0.4344690    -0.0000060
  C       -0.1473770    -0.9544550    -0.0000010
  C        0.8287900     0.0275460     0.0000070
  C       -1.4537890     0.9508390    -0.0000050
  C       -2.7097270    -1.2710250     0.0000050
  C        2.4754648    -0.2105350     0.0000047
  H        0.1093330    -2.0101800    -0.0000030
  H       -2.3118400     1.6133930    -0.0000140
  H       -2.7491870    -1.9153830    -0.8833870
  H       -2.7491970    -1.9153410     0.8834260
  H       -3.6031060    -0.6413200    -0.0000150
  H        2.9043230     0.7325940     0.0000170
units angstrom
no_reorient  #important for SAPT in psi4, default
symmetry c1  #important for SAPT in psi4, default
}

set PROPERTIES_ORIGIN ["COM"]
properties('MP2/aug-cc-pvtz', properties = ['dipole'])
--------------------------------------------------------------------------

    Molecular point group: c1
  Charge       = 0
  Multiplicity = 1
  Basis Set: AUG-CC-PVTZ
    Blend: AUG-CC-PVTZ
  Basis Set: (AUG-CC-PVTZ AUX)
    Blend: AUG-CC-PVTZ-JKFIT

    Orbital Energies [Eh]
    ---------------------

    Doubly Occupied:

       1A    -91.989331     2A    -20.582021     3A    -11.356472
       4A    -11.269427     5A    -11.264153     6A    -11.251120
       7A    -11.241708     8A    -11.233258     9A     -8.989603
      10A     -6.670649    11A     -6.670146    12A     -6.669463
      13A     -1.467697    14A     -1.176146    15A     -1.036323
      16A     -0.986563    17A     -0.928336    18A     -0.865778
      19A     -0.765610    20A     -0.730947    21A     -0.700189
      22A     -0.675951    23A     -0.605142    24A     -0.593827
      25A     -0.582706    26A     -0.582367    27A     -0.530295
      28A     -0.524717    29A     -0.509012    30A     -0.477542
      31A     -0.417911    32A     -0.344397    33A     -0.322245

  @DF-RHF Final Energy:  -703.16890343984039

   => Energetics <=

    Nuclear Repulsion Energy =            402.7635902839926985
    One-Electron Energy =               -1763.8428826389736059
    Two-Electron Energy =                 657.9103889151405156
    Total Energy =                       -703.1689034398403919
  Basis Set: (AUG-CC-PVTZ AUX)
    Blend: AUG-CC-PVTZ-RI
    Molecular point group: c1

    Geometry (in Angstrom), charge = 0, multiplicity = 1:

       Center              X                  Y                   Z               Mass
    ------------   -----------------  -----------------  -----------------  -----------------
         S            0.043687730500     1.576740094359     0.000000248993    31.972071174400
         O            2.708227730500    -1.327453905641    -0.000006751007    15.994914619570
         C           -1.547163269500    -0.464006905641    -0.000005751007    12.000000000000
         C           -0.232220269500    -0.983992905641    -0.000000751007    12.000000000000
         C            0.743946730500    -0.001991905641     0.000007248993    12.000000000000
         C           -1.538632269500     0.921301094359    -0.000004751007    12.000000000000
         C           -2.794570269500    -1.300562905641     0.000005248993    12.000000000000
         C            2.390621530500    -0.240072905641     0.000004948993    12.000000000000
         H            0.024489730500    -2.039717905641    -0.000002751007     1.007825032230
         H           -2.396683269500     1.583855094359    -0.000013751007     1.007825032230
         H           -2.834030269500    -1.944920905641    -0.883386751007     1.007825032230
         H           -2.834040269500    -1.944878905641     0.883426248993     1.007825032230
         H           -3.687949269500    -0.670857905641    -0.000014751007     1.007825032230
         H            2.819479730500     0.703056094359     0.000017248993     1.007825032230

  Basis Set: AUG-CC-PVTZ
    Blend: AUG-CC-PVTZ
  Basis Set: (AUG-CC-PVTZ AUX)
    Blend: AUG-CC-PVTZ-JKFIT
	 Reference Energy          =    -703.1689034398403919 [Eh]
	 Singles Energy            =      -0.0000000000000000 [Eh]
	 Same-Spin Energy          =      -0.3817975806311567 [Eh]
	 Opposite-Spin Energy      =      -1.1722403815861555 [Eh]
	 Correlation Energy        =      -1.5540379622173122 [Eh]
	 Total Energy              =    -704.7229414020576996 [Eh]

	 ================> DF-SCS-MP2 Energies <==================
	-----------------------------------------------------------
	 SCS Same-Spin Scale       =       0.3333333333333333 [-]
	 SCS Opposite-Spin Scale   =       1.2000000000000000 [-]
	 SCS Same-Spin Energy      =      -0.1272658602103856 [Eh]
	 SCS Opposite-Spin Energy  =      -1.4066884579033865 [Eh]
	 SCS Correlation Energy    =      -1.5339543181137720 [Eh]
	 SCS Total Energy          =    -704.7028577579541206 [Eh]
	-----------------------------------------------------------

  Dipole Moment: [D]
     X:    -1.2881      Y:     1.0511      Z:     0.0000     Total:     1.6625

*** Psi4 exiting successfully. Buy a developer a beer!
