                               Psi4 1.4a3.dev225

  ==> Input File <==

--------------------------------------------------------------------------
#psi4
#
memory 32 gb

molecule  {
0 1
  S        0.1285310     1.6062780     0.0000000
  O        2.7930710    -1.2979160    -0.0000070
  C       -1.4623200    -0.4344690    -0.0000060
  C       -0.1473770    -0.9544550    -0.0000010
  C        0.8287900     0.0275460     0.0000070
  C       -1.4537890     0.9508390    -0.0000050
  C       -2.7097270    -1.2710250     0.0000050
  C        2.2775230    -0.1819160     0.0000050
  H        0.1329605    -2.1073486    -0.0000032
  H       -2.3118400     1.6133930    -0.0000140
  H       -2.7491870    -1.9153830    -0.8833870
  H       -2.7491970    -1.9153410     0.8834260
  H       -3.6031060    -0.6413200    -0.0000150
  H        2.9043230     0.7325940     0.0000170
units angstrom
no_reorient  #important for SAPT in psi4, default
symmetry c1  #important for SAPT in psi4, default
}

set PROPERTIES_ORIGIN ["COM"]
properties('MP2/aug-cc-pvtz', properties = ['dipole'])
--------------------------------------------------------------------------

    Molecular point group: c1
  Charge       = 0
  Multiplicity = 1
  Basis Set: AUG-CC-PVTZ
    Blend: AUG-CC-PVTZ
  Basis Set: (AUG-CC-PVTZ AUX)
    Blend: AUG-CC-PVTZ-JKFIT

    Orbital Energies [Eh]
    ---------------------

    Doubly Occupied:

       1A    -92.004577     2A    -20.554782     3A    -11.344572
       4A    -11.283551     5A    -11.276684     6A    -11.271348
       7A    -11.263616     8A    -11.241833     9A     -9.004616
      10A     -6.685583    11A     -6.685120    12A     -6.684384
      13A     -1.379764    14A     -1.193758    15A     -1.055317
      16A     -1.007083    17A     -0.945449    18A     -0.865865
      19A     -0.772755    20A     -0.727747    21A     -0.677456
      22A     -0.647034    23A     -0.602269    24A     -0.596542
      25A     -0.584333    26A     -0.553813    27A     -0.537533
      28A     -0.529018    29A     -0.503013    30A     -0.489018
      31A     -0.434379    32A     -0.356615    33A     -0.336881

  @DF-RHF Final Energy:  -703.18916349489302

   => Energetics <=

    Nuclear Repulsion Energy =            404.1807653261864743
    One-Electron Energy =               -1766.5472446177579968
    Two-Electron Energy =                 659.1773157966784993
    Total Energy =                       -703.1891634948930232
  Basis Set: (AUG-CC-PVTZ AUX)
    Blend: AUG-CC-PVTZ-RI
    Molecular point group: c1

    Geometry (in Angstrom), charge = 0, multiplicity = 1:

       Center              X                  Y                   Z               Mass
    ------------   -----------------  -----------------  -----------------  -----------------
         S            0.062348279396     1.574791904655     0.000000222024    31.972071174400
         O            2.726888279396    -1.329402095345    -0.000006777976    15.994914619570
         C           -1.528502720604    -0.465955095345    -0.000005777976    12.000000000000
         C           -0.213559720604    -0.985941095345    -0.000000777976    12.000000000000
         C            0.762607279396    -0.003940095345     0.000007222024    12.000000000000
         C           -1.519971720604     0.919352904655    -0.000004777976    12.000000000000
         C           -2.775909720604    -1.302511095345     0.000005222024    12.000000000000
         C            2.211340279396    -0.213402095345     0.000005222024    12.000000000000
         H            0.066777779396    -2.138834695345    -0.000002977976     1.007825032230
         H           -2.378022720604     1.581906904655    -0.000013777976     1.007825032230
         H           -2.815369720604    -1.946869095345    -0.883386777976     1.007825032230
         H           -2.815379720604    -1.946827095345     0.883426222024     1.007825032230
         H           -3.669288720604    -0.672806095345    -0.000014777976     1.007825032230
         H            2.838140279396     0.701107904655     0.000017222024     1.007825032230

  Basis Set: AUG-CC-PVTZ
    Blend: AUG-CC-PVTZ
  Basis Set: (AUG-CC-PVTZ AUX)
    Blend: AUG-CC-PVTZ-JKFIT
	 Reference Energy          =    -703.1891634948930232 [Eh]
	 Singles Energy            =      -0.0000000000000000 [Eh]
	 Same-Spin Energy          =      -0.3849494299529349 [Eh]
	 Opposite-Spin Energy      =      -1.1777802199038474 [Eh]
	 Correlation Energy        =      -1.5627296498567822 [Eh]
	 Total Energy              =    -704.7518931447498289 [Eh]

	 ================> DF-SCS-MP2 Energies <==================
	-----------------------------------------------------------
	 SCS Same-Spin Scale       =       0.3333333333333333 [-]
	 SCS Opposite-Spin Scale   =       1.2000000000000000 [-]
	 SCS Same-Spin Energy      =      -0.1283164766509783 [Eh]
	 SCS Opposite-Spin Energy  =      -1.4133362638846168 [Eh]
	 SCS Correlation Energy    =      -1.5416527405355951 [Eh]
	 SCS Total Energy          =    -704.7308162354286196 [Eh]
	-----------------------------------------------------------

  Dipole Moment: [D]
     X:    -3.1268      Y:     1.5288      Z:     0.0000     Total:     3.4805

*** Psi4 exiting successfully. Buy a developer a beer!
