                               Psi4 1.4a3.dev225

  ==> Input File <==

--------------------------------------------------------------------------
#psi4
#
memory 32 gb

molecule  {
0 1
  S        0.1285310     1.6062780     0.0000000
  O        2.7930710    -1.2979160    -0.0000070
  C       -1.4623200    -0.4344690    -0.0000060
  C       -0.1473770    -0.9544550    -0.0000010
  C        0.8287900     0.0275460     0.0000070
  C       -1.3614015     0.9891084    -0.0000047
  C       -2.7097270    -1.2710250     0.0000050
  C        2.2775230    -0.1819160     0.0000050
  H        0.1093330    -2.0101800    -0.0000030
  H       -2.3118400     1.6133930    -0.0000140
  H       -2.7491870    -1.9153830    -0.8833870
  H       -2.7491970    -1.9153410     0.8834260
  H       -3.6031060    -0.6413200    -0.0000150
  H        2.9043230     0.7325940     0.0000170
units angstrom
no_reorient  #important for SAPT in psi4, default
symmetry c1  #important for SAPT in psi4, default
}

set PROPERTIES_ORIGIN ["COM"]
properties('MP2/aug-cc-pvtz', properties = ['dipole'])
--------------------------------------------------------------------------

    Molecular point group: c1
  Charge       = 0
  Multiplicity = 1
  Basis Set: AUG-CC-PVTZ
    Blend: AUG-CC-PVTZ
  Basis Set: (AUG-CC-PVTZ AUX)
    Blend: AUG-CC-PVTZ-JKFIT

    Orbital Energies [Eh]
    ---------------------

    Doubly Occupied:

       1A    -92.009028     2A    -20.549688     3A    -11.341357
       4A    -11.285333     5A    -11.270982     6A    -11.264113
       7A    -11.259489     8A    -11.243304     9A     -9.011135
      10A     -6.692330    11A     -6.691527    12A     -6.690824
      13A     -1.375760    14A     -1.202834    15A     -1.053943
      16A     -1.020160    17A     -0.945761    18A     -0.857558
      19A     -0.765412    20A     -0.740618    21A     -0.679005
      22A     -0.643783    23A     -0.604756    24A     -0.596908
      25A     -0.577446    26A     -0.555450    27A     -0.543624
      28A     -0.532105    29A     -0.506934    30A     -0.497671
      31A     -0.430075    32A     -0.362021    33A     -0.327575

  @DF-RHF Final Energy:  -703.18457338334122

   => Energetics <=

    Nuclear Repulsion Energy =            406.1422013351609621
    One-Electron Energy =               -1770.3965375541847607
    Two-Electron Energy =                 661.0697628356825817
    Total Energy =                       -703.1845733833412169
  Basis Set: (AUG-CC-PVTZ AUX)
    Blend: AUG-CC-PVTZ-RI
    Molecular point group: c1

    Geometry (in Angstrom), charge = 0, multiplicity = 1:

       Center              X                  Y                   Z               Mass
    ------------   -----------------  -----------------  -----------------  -----------------
         S            0.053739409230     1.570370475049     0.000000191857    31.972071174400
         O            2.718279409230    -1.333823524951    -0.000006808143    15.994914619570
         C           -1.537111590770    -0.470376524951    -0.000005808143    12.000000000000
         C           -0.222168590770    -0.990362524951    -0.000000808143    12.000000000000
         C            0.753998409230    -0.008361524951     0.000007191857    12.000000000000
         C           -1.436193090770     0.953200875049    -0.000004508143    12.000000000000
         C           -2.784518590770    -1.306932524951     0.000005191857    12.000000000000
         C            2.202731409230    -0.217823524951     0.000005191857    12.000000000000
         H            0.034541409230    -2.046087524951    -0.000002808143     1.007825032230
         H           -2.386631590770     1.577485475049    -0.000013808143     1.007825032230
         H           -2.823978590770    -1.951290524951    -0.883386808143     1.007825032230
         H           -2.823988590770    -1.951248524951     0.883426191857     1.007825032230
         H           -3.677897590770    -0.677227524951    -0.000014808143     1.007825032230
         H            2.829531409230     0.696686475049     0.000017191857     1.007825032230

  Basis Set: AUG-CC-PVTZ
    Blend: AUG-CC-PVTZ
  Basis Set: (AUG-CC-PVTZ AUX)
    Blend: AUG-CC-PVTZ-JKFIT
	 Reference Energy          =    -703.1845733833412169 [Eh]
	 Singles Energy            =      -0.0000000000000000 [Eh]
	 Same-Spin Energy          =      -0.3864217809138348 [Eh]
	 Opposite-Spin Energy      =      -1.1778120707171651 [Eh]
	 Correlation Energy        =      -1.5642338516309999 [Eh]
	 Total Energy              =    -704.7488072349722188 [Eh]

	 ================> DF-SCS-MP2 Energies <==================
	-----------------------------------------------------------
	 SCS Same-Spin Scale       =       0.3333333333333333 [-]
	 SCS Opposite-Spin Scale   =       1.2000000000000000 [-]
	 SCS Same-Spin Energy      =      -0.1288072603046116 [Eh]
	 SCS Opposite-Spin Energy  =      -1.4133744848605980 [Eh]
	 SCS Correlation Energy    =      -1.5421817451652096 [Eh]
	 SCS Total Energy          =    -704.7267551285063973 [Eh]
	-----------------------------------------------------------

  Dipole Moment: [D]
     X:    -3.2157      Y:     1.6625      Z:     0.0000     Total:     3.6201

*** Psi4 exiting successfully. Buy a developer a beer!
