                               Psi4 1.4a3.dev225

  ==> Input File <==

--------------------------------------------------------------------------
#psi4
#
memory 32 gb

molecule  {
0 1
  S        0.1285310     1.6062780     0.0000000
  O        2.7930710    -1.2979160    -0.0000070
  C       -1.4623200    -0.4344690    -0.0000060
  C       -0.1473770    -0.9544550    -0.0000010
  C        0.8287900     0.0275460     0.0000070
  C       -1.4537890     0.9508390    -0.0000050
  C       -2.7097270    -1.2710250     0.0000050
  C        2.2775230    -0.1819160     0.0000050
  H        0.1093330    -2.0101800    -0.0000030
  H       -2.2722649     1.5828346    -0.0000136
  H       -2.7491870    -1.9153830    -0.8833870
  H       -2.7491970    -1.9153410     0.8834260
  H       -3.6031060    -0.6413200    -0.0000150
  H        2.9043230     0.7325940     0.0000170
units angstrom
no_reorient  #important for SAPT in psi4, default
symmetry c1  #important for SAPT in psi4, default
}

set PROPERTIES_ORIGIN ["COM"]
properties('MP2/aug-cc-pvtz', properties = ['dipole'])
--------------------------------------------------------------------------

    Molecular point group: c1
  Charge       = 0
  Multiplicity = 1
  Basis Set: AUG-CC-PVTZ
    Blend: AUG-CC-PVTZ
  Basis Set: (AUG-CC-PVTZ AUX)
    Blend: AUG-CC-PVTZ-JKFIT

    Orbital Energies [Eh]
    ---------------------

    Doubly Occupied:

       1A    -92.003870     2A    -20.554928     3A    -11.344578
       4A    -11.277605     5A    -11.276189     6A    -11.262916
       7A    -11.260886     8A    -11.242076     9A     -9.003951
      10A     -6.684925    11A     -6.684460    12A     -6.683737
      13A     -1.379930    14A     -1.193964    15A     -1.055312
      16A     -1.011748    17A     -0.946532    18A     -0.868559
      19A     -0.778255    20A     -0.741290    21A     -0.679256
      22A     -0.649340    23A     -0.604949    24A     -0.596637
      25A     -0.594405    26A     -0.553766    27A     -0.539245
      28A     -0.534112    29A     -0.502843    30A     -0.489915
      31A     -0.434449    32A     -0.356262    33A     -0.336585

  @DF-RHF Final Energy:  -703.19596113094917

   => Energetics <=

    Nuclear Repulsion Energy =            404.9509081350977908
    One-Electron Energy =               -1768.0387848777113504
    Two-Electron Energy =                 659.8919156116644444
    Total Energy =                       -703.1959611309491720
  Basis Set: (AUG-CC-PVTZ AUX)
    Blend: AUG-CC-PVTZ-RI
    Molecular point group: c1

    Geometry (in Angstrom), charge = 0, multiplicity = 1:

       Center              X                  Y                   Z               Mass
    ------------   -----------------  -----------------  -----------------  -----------------
         S            0.062220734848     1.574259174474     0.000000217226    31.972071174400
         O            2.726760734848    -1.329934825526    -0.000006782774    15.994914619570
         C           -1.528630265152    -0.466487825526    -0.000005782774    12.000000000000
         C           -0.213687265152    -0.986473825526    -0.000000782774    12.000000000000
         C            0.762479734848    -0.004472825526     0.000007217226    12.000000000000
         C           -1.520099265152     0.918820174474    -0.000004782774    12.000000000000
         C           -2.776037265152    -1.303043825526     0.000005217226    12.000000000000
         C            2.211212734848    -0.213934825526     0.000005217226    12.000000000000
         H            0.043022734848    -2.042198825526    -0.000002782774     1.007825032230
         H           -2.338575165152     1.550815774474    -0.000013382774     1.007825032230
         H           -2.815497265152    -1.947401825526    -0.883386782774     1.007825032230
         H           -2.815507265152    -1.947359825526     0.883426217226     1.007825032230
         H           -3.669416265152    -0.673338825526    -0.000014782774     1.007825032230
         H            2.838012734848     0.700575174474     0.000017217226     1.007825032230

  Basis Set: AUG-CC-PVTZ
    Blend: AUG-CC-PVTZ
  Basis Set: (AUG-CC-PVTZ AUX)
    Blend: AUG-CC-PVTZ-JKFIT
	 Reference Energy          =    -703.1959611309491720 [Eh]
	 Singles Energy            =      -0.0000000000000000 [Eh]
	 Same-Spin Energy          =      -0.3845038485339113 [Eh]
	 Opposite-Spin Energy      =      -1.1766015905942424 [Eh]
	 Correlation Energy        =      -1.5611054391281538 [Eh]
	 Total Energy              =    -704.7570665700773134 [Eh]

	 ================> DF-SCS-MP2 Energies <==================
	-----------------------------------------------------------
	 SCS Same-Spin Scale       =       0.3333333333333333 [-]
	 SCS Opposite-Spin Scale   =       1.2000000000000000 [-]
	 SCS Same-Spin Energy      =      -0.1281679495113038 [Eh]
	 SCS Opposite-Spin Energy  =      -1.4119219087130908 [Eh]
	 SCS Correlation Energy    =      -1.5400898582243945 [Eh]
	 SCS Total Energy          =    -704.7360509891735774 [Eh]
	-----------------------------------------------------------

  Dipole Moment: [D]
     X:    -3.1302      Y:     1.5234      Z:     0.0000     Total:     3.4812

*** Psi4 exiting successfully. Buy a developer a beer!
