                               Psi4 1.4a3.dev225

  ==> Input File <==

--------------------------------------------------------------------------
#psi4
#
memory 32 gb

molecule  {
0 1
  S        0.1285310     1.6062780     0.0000000
  O        2.7930710    -1.2979160    -0.0000070
  C       -1.4623200    -0.4344690    -0.0000060
  C       -0.1473770    -0.9544550    -0.0000010
  C        0.8287900     0.0275460     0.0000070
  C       -1.4537890     0.9508390    -0.0000050
  C       -2.7097270    -1.2710250     0.0000050
  C        2.3270084    -0.1890707     0.0000049
  H        0.1093330    -2.0101800    -0.0000030
  H       -2.3118400     1.6133930    -0.0000140
  H       -2.7491870    -1.9153830    -0.8833870
  H       -2.7491970    -1.9153410     0.8834260
  H       -3.6031060    -0.6413200    -0.0000150
  H        2.9043230     0.7325940     0.0000170
units angstrom
no_reorient  #important for SAPT in psi4, default
symmetry c1  #important for SAPT in psi4, default
}

set PROPERTIES_ORIGIN ["COM"]
properties('MP2/aug-cc-pvtz', properties = ['dipole'])
--------------------------------------------------------------------------

    Molecular point group: c1
  Charge       = 0
  Multiplicity = 1
  Basis Set: AUG-CC-PVTZ
    Blend: AUG-CC-PVTZ
  Basis Set: (AUG-CC-PVTZ AUX)
    Blend: AUG-CC-PVTZ-JKFIT

    Orbital Energies [Eh]
    ---------------------

    Doubly Occupied:

       1A    -92.000702     2A    -20.561531     3A    -11.346901
       4A    -11.278063     5A    -11.276324     6A    -11.260087
       7A    -11.256111     8A    -11.239806     9A     -9.000799
      10A     -6.681788    11A     -6.681323    12A     -6.680601
      13A     -1.402100    14A     -1.189292    15A     -1.049751
      16A     -1.003610    17A     -0.941448    18A     -0.863624
      19A     -0.771729    20A     -0.738399    21A     -0.678827
      22A     -0.659972    23A     -0.603436    24A     -0.594194
      25A     -0.588480    26A     -0.557802    27A     -0.536428
      28A     -0.532196    29A     -0.508296    30A     -0.487267
      31A     -0.434502    32A     -0.353534    33A     -0.333443

  @DF-RHF Final Energy:  -703.19739831436391

   => Energetics <=

    Nuclear Repulsion Energy =            404.1543585980011244
    One-Electron Energy =               -1766.5187800705978134
    Two-Electron Energy =                 659.1670231582327233
    Total Energy =                       -703.1973983143639089
  Basis Set: (AUG-CC-PVTZ AUX)
    Blend: AUG-CC-PVTZ-RI
    Molecular point group: c1

    Geometry (in Angstrom), charge = 0, multiplicity = 1:

       Center              X                  Y                   Z               Mass
    ------------   -----------------  -----------------  -----------------  -----------------
         S            0.057824871651     1.574696101383     0.000000229948    31.972071174400
         O            2.722364871651    -1.329497898617    -0.000006770052    15.994914619570
         C           -1.533026128349    -0.466050898617    -0.000005770052    12.000000000000
         C           -0.218083128349    -0.986036898617    -0.000000770052    12.000000000000
         C            0.758083871651    -0.004035898617     0.000007229948    12.000000000000
         C           -1.524495128349     0.919257101383    -0.000004770052    12.000000000000
         C           -2.780433128349    -1.302606898617     0.000005229948    12.000000000000
         C            2.256302271651    -0.220652598617     0.000005129948    12.000000000000
         H            0.038626871651    -2.041761898617    -0.000002770052     1.007825032230
         H           -2.382546128349     1.581811101383    -0.000013770052     1.007825032230
         H           -2.819893128349    -1.946964898617    -0.883386770052     1.007825032230
         H           -2.819903128349    -1.946922898617     0.883426229948     1.007825032230
         H           -3.673812128349    -0.672901898617    -0.000014770052     1.007825032230
         H            2.833616871651     0.701012101383     0.000017229948     1.007825032230

  Basis Set: AUG-CC-PVTZ
    Blend: AUG-CC-PVTZ
  Basis Set: (AUG-CC-PVTZ AUX)
    Blend: AUG-CC-PVTZ-JKFIT
	 Reference Energy          =    -703.1973983143639089 [Eh]
	 Singles Energy            =      -0.0000000000000000 [Eh]
	 Same-Spin Energy          =      -0.3835173939372148 [Eh]
	 Opposite-Spin Energy      =      -1.1750706314613006 [Eh]
	 Correlation Energy        =      -1.5585880253985154 [Eh]
	 Total Energy              =    -704.7559863397624440 [Eh]

	 ================> DF-SCS-MP2 Energies <==================
	-----------------------------------------------------------
	 SCS Same-Spin Scale       =       0.3333333333333333 [-]
	 SCS Opposite-Spin Scale   =       1.2000000000000000 [-]
	 SCS Same-Spin Energy      =      -0.1278391313124049 [Eh]
	 SCS Opposite-Spin Energy  =      -1.4100847577535607 [Eh]
	 SCS Correlation Energy    =      -1.5379238890659657 [Eh]
	 SCS Total Energy          =    -704.7353222034298597 [Eh]
	-----------------------------------------------------------

  Dipole Moment: [D]
     X:    -2.7030      Y:     1.4208      Z:     0.0000     Total:     3.0537

*** Psi4 exiting successfully. Buy a developer a beer!
