                               Psi4 1.4a3.dev225

  ==> Input File <==

--------------------------------------------------------------------------
#psi4
#
memory 32 gb

molecule  {
0 1
  S        0.1285310     1.6062780     0.0000000
  O        2.7930710    -1.2979160    -0.0000070
  C       -1.4623200    -0.4344690    -0.0000060
  C       -0.1385023    -0.9314269    -0.0000013
  C        0.8287900     0.0275460     0.0000070
  C       -1.4537890     0.9508390    -0.0000050
  C       -2.7097270    -1.2710250     0.0000050
  C        2.2775230    -0.1819160     0.0000050
  H        0.1093330    -2.0101800    -0.0000030
  H       -2.3118400     1.6133930    -0.0000140
  H       -2.7491870    -1.9153830    -0.8833870
  H       -2.7491970    -1.9153410     0.8834260
  H       -3.6031060    -0.6413200    -0.0000150
  H        2.9043230     0.7325940     0.0000170
units angstrom
no_reorient  #important for SAPT in psi4, default
symmetry c1  #important for SAPT in psi4, default
}

set PROPERTIES_ORIGIN ["COM"]
properties('MP2/aug-cc-pvtz', properties = ['dipole'])
--------------------------------------------------------------------------

    Molecular point group: c1
  Charge       = 0
  Multiplicity = 1
  Basis Set: AUG-CC-PVTZ
    Blend: AUG-CC-PVTZ
  Basis Set: (AUG-CC-PVTZ AUX)
    Blend: AUG-CC-PVTZ-JKFIT

    Orbital Energies [Eh]
    ---------------------

    Doubly Occupied:

       1A    -92.002545     2A    -20.555770     3A    -11.345290
       4A    -11.282738     5A    -11.273744     6A    -11.262605
       7A    -11.259876     8A    -11.242598     9A     -9.002762
      10A     -6.683734    11A     -6.683282    12A     -6.682522
      13A     -1.380640    14A     -1.196291    15A     -1.055688
      16A     -1.010687    17A     -0.946988    18A     -0.866566
      19A     -0.775075    20A     -0.736172    21A     -0.681361
      22A     -0.648117    23A     -0.604189    24A     -0.597090
      25A     -0.588206    26A     -0.555059    27A     -0.539129
      28A     -0.532244    29A     -0.503572    30A     -0.488870
      31A     -0.435217    32A     -0.357128    33A     -0.338084

  @DF-RHF Final Energy:  -703.19684298908601

   => Energetics <=

    Nuclear Repulsion Energy =            405.1034126433991673
    One-Electron Energy =               -1768.3728373434034893
    Two-Electron Energy =                 660.0725817109182572
    Total Energy =                       -703.1968429890860079
  Basis Set: (AUG-CC-PVTZ AUX)
    Blend: AUG-CC-PVTZ-RI
    Molecular point group: c1

    Geometry (in Angstrom), charge = 0, multiplicity = 1:

       Center              X                  Y                   Z               Mass
    ------------   -----------------  -----------------  -----------------  -----------------
         S            0.061692129634     1.571821866901     0.000000248993    31.972071174400
         O            2.726232129634    -1.332372133099    -0.000006751007    15.994914619570
         C           -1.529158870366    -0.468925133099    -0.000005751007    12.000000000000
         C           -0.205341170366    -0.965883033099    -0.000001051007    12.000000000000
         C            0.761951129634    -0.006910133099     0.000007248993    12.000000000000
         C           -1.520627870366     0.916382866901    -0.000004751007    12.000000000000
         C           -2.776565870366    -1.305481133099     0.000005248993    12.000000000000
         C            2.210684129634    -0.216372133099     0.000005248993    12.000000000000
         H            0.042494129634    -2.044636133099    -0.000002751007     1.007825032230
         H           -2.378678870366     1.578936866901    -0.000013751007     1.007825032230
         H           -2.816025870366    -1.949839133099    -0.883386751007     1.007825032230
         H           -2.816035870366    -1.949797133099     0.883426248993     1.007825032230
         H           -3.669944870366    -0.675776133099    -0.000014751007     1.007825032230
         H            2.837484129634     0.698137866901     0.000017248993     1.007825032230

  Basis Set: AUG-CC-PVTZ
    Blend: AUG-CC-PVTZ
  Basis Set: (AUG-CC-PVTZ AUX)
    Blend: AUG-CC-PVTZ-JKFIT
	 Reference Energy          =    -703.1968429890860079 [Eh]
	 Singles Energy            =      -0.0000000000000000 [Eh]
	 Same-Spin Energy          =      -0.3842909878702324 [Eh]
	 Opposite-Spin Energy      =      -1.1764063391368556 [Eh]
	 Correlation Energy        =      -1.5606973270070879 [Eh]
	 Total Energy              =    -704.7575403160931273 [Eh]

	 ================> DF-SCS-MP2 Energies <==================
	-----------------------------------------------------------
	 SCS Same-Spin Scale       =       0.3333333333333333 [-]
	 SCS Opposite-Spin Scale   =       1.2000000000000000 [-]
	 SCS Same-Spin Energy      =      -0.1280969959567441 [Eh]
	 SCS Opposite-Spin Energy  =      -1.4116876069642266 [Eh]
	 SCS Correlation Energy    =      -1.5397846029209707 [Eh]
	 SCS Total Energy          =    -704.7366275920069256 [Eh]
	-----------------------------------------------------------

  Dipole Moment: [D]
     X:    -3.1253      Y:     1.4968      Z:     0.0000     Total:     3.4653

*** Psi4 exiting successfully. Buy a developer a beer!
