                               Psi4 1.4a3.dev225

  ==> Input File <==

--------------------------------------------------------------------------
#psi4
#
memory 32 gb

molecule  {
0 1
  S        0.1285310     1.6062780     0.0000000
  O        2.7930710    -1.2979160    -0.0000070
  C       -1.4623200    -0.4344690    -0.0000060
  C       -0.1473770    -0.9544550    -0.0000010
  C        0.8287900     0.0275460     0.0000070
  C       -1.4537890     0.9508390    -0.0000050
  C       -2.7097270    -1.2710250     0.0000050
  C        2.2775230    -0.1819160     0.0000050
  H        0.1093330    -2.0101800    -0.0000030
  H       -2.2960100     1.6011697    -0.0000138
  H       -2.7491870    -1.9153830    -0.8833870
  H       -2.7491970    -1.9153410     0.8834260
  H       -3.6031060    -0.6413200    -0.0000150
  H        2.9043230     0.7325940     0.0000170
units angstrom
no_reorient  #important for SAPT in psi4, default
symmetry c1  #important for SAPT in psi4, default
}

set PROPERTIES_ORIGIN ["COM"]
properties('MP2/aug-cc-pvtz', properties = ['dipole'])
--------------------------------------------------------------------------

    Molecular point group: c1
  Charge       = 0
  Multiplicity = 1
  Basis Set: AUG-CC-PVTZ
    Blend: AUG-CC-PVTZ
  Basis Set: (AUG-CC-PVTZ AUX)
    Blend: AUG-CC-PVTZ-JKFIT

    Orbital Energies [Eh]
    ---------------------

    Doubly Occupied:

       1A    -92.004037     2A    -20.554933     3A    -11.344607
       4A    -11.280907     5A    -11.276196     6A    -11.263030
       7A    -11.261022     8A    -11.242021     9A     -9.004105
      10A     -6.685076    11A     -6.684611    12A     -6.683886
      13A     -1.379941    14A     -1.193847    15A     -1.055235
      16A     -1.010586    17A     -0.946539    18A     -0.867184
      19A     -0.774977    20A     -0.740386    21A     -0.679249
      22A     -0.648446    23A     -0.604865    24A     -0.596623
      25A     -0.591641    26A     -0.553795    27A     -0.538982
      28A     -0.533750    29A     -0.502884    30A     -0.490033
      31A     -0.434433    32A     -0.356343    33A     -0.336588

  @DF-RHF Final Energy:  -703.19688553155947

   => Energetics <=

    Nuclear Repulsion Energy =            404.7808193470987703
    One-Electron Energy =               -1767.7138916918067935
    Two-Electron Energy =                 659.7361868131486062
    Total Energy =                       -703.1968855315594737
  Basis Set: (AUG-CC-PVTZ AUX)
    Blend: AUG-CC-PVTZ-RI
    Molecular point group: c1

    Geometry (in Angstrom), charge = 0, multiplicity = 1:

       Center              X                  Y                   Z               Mass
    ------------   -----------------  -----------------  -----------------  -----------------
         S            0.062410641670     1.574112535354     0.000000218825    31.972071174400
         O            2.726950641670    -1.330081464646    -0.000006781175    15.994914619570
         C           -1.528440358330    -0.466634464646    -0.000005781175    12.000000000000
         C           -0.213497358330    -0.986620464646    -0.000000781175    12.000000000000
         C            0.762669641670    -0.004619464646     0.000007218825    12.000000000000
         C           -1.519909358330     0.918673535354    -0.000004781175    12.000000000000
         C           -2.775847358330    -1.303190464646     0.000005218825    12.000000000000
         C            2.211402641670    -0.214081464646     0.000005218825    12.000000000000
         H            0.043212641670    -2.042345464646    -0.000002781175     1.007825032230
         H           -2.362130358330     1.569004235354    -0.000013581175     1.007825032230
         H           -2.815307358330    -1.947548464646    -0.883386781175     1.007825032230
         H           -2.815317358330    -1.947506464646     0.883426218825     1.007825032230
         H           -3.669226358330    -0.673485464646    -0.000014781175     1.007825032230
         H            2.838202641670     0.700428535354     0.000017218825     1.007825032230

  Basis Set: AUG-CC-PVTZ
    Blend: AUG-CC-PVTZ
  Basis Set: (AUG-CC-PVTZ AUX)
    Blend: AUG-CC-PVTZ-JKFIT
	 Reference Energy          =    -703.1968855315594737 [Eh]
	 Singles Energy            =      -0.0000000000000000 [Eh]
	 Same-Spin Energy          =      -0.3845724970827287 [Eh]
	 Opposite-Spin Energy      =      -1.1767528529894111 [Eh]
	 Correlation Energy        =      -1.5613253500721398 [Eh]
	 Total Energy              =    -704.7582108816316122 [Eh]

	 ================> DF-SCS-MP2 Energies <==================
	-----------------------------------------------------------
	 SCS Same-Spin Scale       =       0.3333333333333333 [-]
	 SCS Opposite-Spin Scale   =       1.2000000000000000 [-]
	 SCS Same-Spin Energy      =      -0.1281908323609096 [Eh]
	 SCS Opposite-Spin Energy  =      -1.4121034235872933 [Eh]
	 SCS Correlation Energy    =      -1.5402942559482029 [Eh]
	 SCS Total Energy          =    -704.7371797875076709 [Eh]
	-----------------------------------------------------------

  Dipole Moment: [D]
     X:    -3.1322      Y:     1.5272      Z:     0.0000     Total:     3.4847

*** Psi4 exiting successfully. Buy a developer a beer!
