                               Psi4 1.4a3.dev225

  ==> Input File <==

--------------------------------------------------------------------------
#psi4
#
memory 32 gb

molecule  {
0 1
  S        0.1285310     1.6062780     0.0000000
  O        2.7930710    -1.2979160    -0.0000070
  C       -1.4623200    -0.4344690    -0.0000060
  C       -0.1143077    -0.8614626    -0.0000021
  C        0.8287900     0.0275460     0.0000070
  C       -1.4537890     0.9508390    -0.0000050
  C       -2.7097270    -1.2710250     0.0000050
  C        2.2775230    -0.1819160     0.0000050
  H        0.1093330    -2.0101800    -0.0000030
  H       -2.3118400     1.6133930    -0.0000140
  H       -2.7491870    -1.9153830    -0.8833870
  H       -2.7491970    -1.9153410     0.8834260
  H       -3.6031060    -0.6413200    -0.0000150
  H        2.9043230     0.7325940     0.0000170
units angstrom
no_reorient  #important for SAPT in psi4, default
symmetry c1  #important for SAPT in psi4, default
}

set PROPERTIES_ORIGIN ["COM"]
properties('MP2/aug-cc-pvtz', properties = ['dipole'])
--------------------------------------------------------------------------

    Molecular point group: c1
  Charge       = 0
  Multiplicity = 1
  Basis Set: AUG-CC-PVTZ
    Blend: AUG-CC-PVTZ
  Basis Set: (AUG-CC-PVTZ AUX)
    Blend: AUG-CC-PVTZ-JKFIT

    Orbital Energies [Eh]
    ---------------------

    Doubly Occupied:

       1A    -91.997975     2A    -20.558511     3A    -11.347452
       4A    -11.281912     5A    -11.266167     6A    -11.261672
       7A    -11.256108     8A    -11.244485     9A     -8.998668
      10A     -6.679644    11A     -6.679233    12A     -6.678369
      13A     -1.382857    14A     -1.205078    15A     -1.058557
      16A     -1.012598    17A     -0.948308    18A     -0.868076
      19A     -0.782086    20A     -0.725804    21A     -0.687583
      22A     -0.649020    23A     -0.605913    24A     -0.598885
      25A     -0.583051    26A     -0.559283    27A     -0.545532
      28A     -0.519565    29A     -0.505905    30A     -0.483078
      31A     -0.437621    32A     -0.361466    33A     -0.340907

  @DF-RHF Final Energy:  -703.18622351403440

   => Energetics <=

    Nuclear Repulsion Energy =            406.4608425229949376
    One-Electron Energy =               -1771.0713946041198597
    Two-Electron Energy =                 661.4243285670905834
    Total Energy =                       -703.1862235140343955
  Basis Set: (AUG-CC-PVTZ AUX)
    Blend: AUG-CC-PVTZ-RI
    Molecular point group: c1

    Geometry (in Angstrom), charge = 0, multiplicity = 1:

       Center              X                  Y                   Z               Mass
    ------------   -----------------  -----------------  -----------------  -----------------
         S            0.059388136844     1.565159337131     0.000000325175    31.972071174400
         O            2.723928136844    -1.339034662869    -0.000006674825    15.994914619570
         C           -1.531462863156    -0.475587662869    -0.000005674825    12.000000000000
         C           -0.183450563156    -0.902581262869    -0.000001774825    12.000000000000
         C            0.759647136844    -0.013572662869     0.000007325175    12.000000000000
         C           -1.522931863156     0.909720337131    -0.000004674825    12.000000000000
         C           -2.778869863156    -1.312143662869     0.000005325175    12.000000000000
         C            2.208380136844    -0.223034662869     0.000005325175    12.000000000000
         H            0.040190136844    -2.051298662869    -0.000002674825     1.007825032230
         H           -2.380982863156     1.572274337131    -0.000013674825     1.007825032230
         H           -2.818329863156    -1.956501662869    -0.883386674825     1.007825032230
         H           -2.818339863156    -1.956459662869     0.883426325175     1.007825032230
         H           -3.672248863156    -0.682438662869    -0.000014674825     1.007825032230
         H            2.835180136844     0.691475337131     0.000017325175     1.007825032230

  Basis Set: AUG-CC-PVTZ
    Blend: AUG-CC-PVTZ
  Basis Set: (AUG-CC-PVTZ AUX)
    Blend: AUG-CC-PVTZ-JKFIT
	 Reference Energy          =    -703.1862235140343955 [Eh]
	 Singles Energy            =      -0.0000000000000000 [Eh]
	 Same-Spin Energy          =      -0.3835776121625466 [Eh]
	 Opposite-Spin Energy      =      -1.1755501116988205 [Eh]
	 Correlation Energy        =      -1.5591277238613670 [Eh]
	 Total Energy              =    -704.7453512378957612 [Eh]

	 ================> DF-SCS-MP2 Energies <==================
	-----------------------------------------------------------
	 SCS Same-Spin Scale       =       0.3333333333333333 [-]
	 SCS Opposite-Spin Scale   =       1.2000000000000000 [-]
	 SCS Same-Spin Energy      =      -0.1278592040541822 [Eh]
	 SCS Opposite-Spin Energy  =      -1.4106601340385845 [Eh]
	 SCS Correlation Energy    =      -1.5385193380927666 [Eh]
	 SCS Total Energy          =    -704.7247428521271786 [Eh]
	-----------------------------------------------------------

  Dipole Moment: [D]
     X:    -3.0974      Y:     1.4080      Z:     0.0000     Total:     3.4024

*** Psi4 exiting successfully. Buy a developer a beer!
