                               Psi4 1.4a3.dev225

  ==> Input File <==

--------------------------------------------------------------------------
#psi4
#
memory 32 gb

molecule  {
0 1
  S        0.1285310     1.6062780     0.0000000
  O        2.7930710    -1.2979160    -0.0000070
  C       -1.4623200    -0.4344690    -0.0000060
  C       -0.1473770    -0.9544550    -0.0000010
  C        0.8287900     0.0275460     0.0000070
  C       -1.5504440     0.9480596    -0.0000041
  C       -2.7097270    -1.2710250     0.0000050
  C        2.2775230    -0.1819160     0.0000050
  H        0.1093330    -2.0101800    -0.0000030
  H       -2.3118400     1.6133930    -0.0000140
  H       -2.7491870    -1.9153830    -0.8833870
  H       -2.7491970    -1.9153410     0.8834260
  H       -3.6031060    -0.6413200    -0.0000150
  H        2.9043230     0.7325940     0.0000170
units angstrom
no_reorient  #important for SAPT in psi4, default
symmetry c1  #important for SAPT in psi4, default
}

set PROPERTIES_ORIGIN ["COM"]
properties('MP2/aug-cc-pvtz', properties = ['dipole'])
--------------------------------------------------------------------------

    Molecular point group: c1
  Charge       = 0
  Multiplicity = 1
  Basis Set: AUG-CC-PVTZ
    Blend: AUG-CC-PVTZ
  Basis Set: (AUG-CC-PVTZ AUX)
    Blend: AUG-CC-PVTZ-JKFIT

    Orbital Energies [Eh]
    ---------------------

    Doubly Occupied:

       1A    -92.000396     2A    -20.559398     3A    -11.347524
       4A    -11.284232     5A    -11.281258     6A    -11.267768
       7A    -11.262345     8A    -11.240948     9A     -8.999170
      10A     -6.680129    11A     -6.679568    12A     -6.678980
      13A     -1.383558    14A     -1.185374    15A     -1.057397
      16A     -1.002064    17A     -0.945897    18A     -0.871880
      19A     -0.785239    20A     -0.741191    21A     -0.679346
      22A     -0.652510    23A     -0.611464    24A     -0.597855
      25A     -0.595903    26A     -0.553465    27A     -0.544325
      28A     -0.526902    29A     -0.498664    30A     -0.473296
      31A     -0.438038    32A     -0.354376    33A     -0.338771

  @DF-RHF Final Energy:  -703.18712883807927

   => Energetics <=

    Nuclear Repulsion Energy =            402.9065907958668049
    One-Electron Energy =               -1763.9489751520156915
    Two-Electron Energy =                 657.8552555180696118
    Total Energy =                       -703.1871288380792748
  Basis Set: (AUG-CC-PVTZ AUX)
    Blend: AUG-CC-PVTZ-RI
    Molecular point group: c1

    Geometry (in Angstrom), charge = 0, multiplicity = 1:

       Center              X                  Y                   Z               Mass
    ------------   -----------------  -----------------  -----------------  -----------------
         S            0.071741465766     1.574279452228     0.000000134720    31.972071174400
         O            2.736281465766    -1.329914547772    -0.000006865280    15.994914619570
         C           -1.519109534234    -0.466467547772    -0.000005865280    12.000000000000
         C           -0.204166534234    -0.986453547772    -0.000000865280    12.000000000000
         C            0.772000465766    -0.004452547772     0.000007134720    12.000000000000
         C           -1.607233534234     0.916061052228    -0.000003965280    12.000000000000
         C           -2.766516534234    -1.303023547772     0.000005134720    12.000000000000
         C            2.220733465766    -0.213914547772     0.000005134720    12.000000000000
         H            0.052543465766    -2.042178547772    -0.000002865280     1.007825032230
         H           -2.368629534234     1.581394452228    -0.000013865280     1.007825032230
         H           -2.805976534234    -1.947381547772    -0.883386865280     1.007825032230
         H           -2.805986534234    -1.947339547772     0.883426134720     1.007825032230
         H           -3.659895534234    -0.673318547772    -0.000014865280     1.007825032230
         H            2.847533465766     0.700595452228     0.000017134720     1.007825032230

  Basis Set: AUG-CC-PVTZ
    Blend: AUG-CC-PVTZ
  Basis Set: (AUG-CC-PVTZ AUX)
    Blend: AUG-CC-PVTZ-JKFIT
	 Reference Energy          =    -703.1871288380792748 [Eh]
	 Singles Energy            =      -0.0000000000000000 [Eh]
	 Same-Spin Energy          =      -0.3840535334132511 [Eh]
	 Opposite-Spin Energy      =      -1.1777358034776619 [Eh]
	 Correlation Energy        =      -1.5617893368909130 [Eh]
	 Total Energy              =    -704.7489181749701856 [Eh]

	 ================> DF-SCS-MP2 Energies <==================
	-----------------------------------------------------------
	 SCS Same-Spin Scale       =       0.3333333333333333 [-]
	 SCS Opposite-Spin Scale   =       1.2000000000000000 [-]
	 SCS Same-Spin Energy      =      -0.1280178444710837 [Eh]
	 SCS Opposite-Spin Energy  =      -1.4132829641731943 [Eh]
	 SCS Correlation Energy    =      -1.5413008086442781 [Eh]
	 SCS Total Energy          =    -704.7284296467234981 [Eh]
	-----------------------------------------------------------

  Dipole Moment: [D]
     X:    -3.1020      Y:     1.3980      Z:     0.0000     Total:     3.4024

*** Psi4 exiting successfully. Buy a developer a beer!
