                               Psi4 1.4a3.dev225

  ==> Input File <==

--------------------------------------------------------------------------
#psi4
#
memory 32 gb

molecule  {
0 1
  S        0.1285310     1.6062780     0.0000000
  O        2.7930710    -1.2979160    -0.0000070
  C       -1.4623200    -0.4344690    -0.0000060
  C       -0.1473770    -0.9544550    -0.0000010
  C        0.8287900     0.0275460     0.0000070
  C       -1.4536658     0.9708386    -0.0000050
  C       -2.7097270    -1.2710250     0.0000050
  C        2.2775230    -0.1819160     0.0000050
  H        0.1093330    -2.0101800    -0.0000030
  H       -2.3118400     1.6133930    -0.0000140
  H       -2.7491870    -1.9153830    -0.8833870
  H       -2.7491970    -1.9153410     0.8834260
  H       -3.6031060    -0.6413200    -0.0000150
  H        2.9043230     0.7325940     0.0000170
units angstrom
no_reorient  #important for SAPT in psi4, default
symmetry c1  #important for SAPT in psi4, default
}

set PROPERTIES_ORIGIN ["COM"]
properties('MP2/aug-cc-pvtz', properties = ['dipole'])
--------------------------------------------------------------------------

    Molecular point group: c1
  Charge       = 0
  Multiplicity = 1
  Basis Set: AUG-CC-PVTZ
    Blend: AUG-CC-PVTZ
  Basis Set: (AUG-CC-PVTZ AUX)
    Blend: AUG-CC-PVTZ-JKFIT

    Orbital Energies [Eh]
    ---------------------

    Doubly Occupied:

       1A    -92.005544     2A    -20.554652     3A    -11.344589
       4A    -11.284102     5A    -11.276144     6A    -11.265229
       7A    -11.260987     8A    -11.241916     9A     -9.005588
      10A     -6.686552    11A     -6.686118    12A     -6.685395
      13A     -1.379758    14A     -1.192471    15A     -1.053917
      16A     -1.011617    17A     -0.945838    18A     -0.865065
      19A     -0.774418    20A     -0.739267    21A     -0.678975
      22A     -0.648468    23A     -0.604307    24A     -0.596008
      25A     -0.591162    26A     -0.553870    27A     -0.538687
      28A     -0.534829    29A     -0.502690    30A     -0.489629
      31A     -0.434274    32A     -0.356826    33A     -0.334157

  @DF-RHF Final Energy:  -703.19553314324435

   => Energetics <=

    Nuclear Repulsion Energy =            404.4704878855894208
    One-Electron Energy =               -1767.0859420487543048
    Two-Electron Energy =                 659.4199210199205936
    Total Energy =                       -703.1955331432443472
  Basis Set: (AUG-CC-PVTZ AUX)
    Blend: AUG-CC-PVTZ-RI
    Molecular point group: c1

    Geometry (in Angstrom), charge = 0, multiplicity = 1:

       Center              X                  Y                   Z               Mass
    ------------   -----------------  -----------------  -----------------  -----------------
         S            0.062525513650     1.572110263575     0.000000220425    31.972071174400
         O            2.727065513650    -1.332083736425    -0.000006779575    15.994914619570
         C           -1.528325486350    -0.468636736425    -0.000005779575    12.000000000000
         C           -0.213382486350    -0.988622736425    -0.000000779575    12.000000000000
         C            0.762784513650    -0.006621736425     0.000007220425    12.000000000000
         C           -1.519671286350     0.936670863575    -0.000004779575    12.000000000000
         C           -2.775732486350    -1.305192736425     0.000005220425    12.000000000000
         C            2.211517513650    -0.216083736425     0.000005220425    12.000000000000
         H            0.043327513650    -2.044347736425    -0.000002779575     1.007825032230
         H           -2.377845486350     1.579225263575    -0.000013779575     1.007825032230
         H           -2.815192486350    -1.949550736425    -0.883386779575     1.007825032230
         H           -2.815202486350    -1.949508736425     0.883426220425     1.007825032230
         H           -3.669111486350    -0.675487736425    -0.000014779575     1.007825032230
         H            2.838317513650     0.698426263575     0.000017220425     1.007825032230

  Basis Set: AUG-CC-PVTZ
    Blend: AUG-CC-PVTZ
  Basis Set: (AUG-CC-PVTZ AUX)
    Blend: AUG-CC-PVTZ-JKFIT
	 Reference Energy          =    -703.1955331432443472 [Eh]
	 Singles Energy            =      -0.0000000000000000 [Eh]
	 Same-Spin Energy          =      -0.3849957931236342 [Eh]
	 Opposite-Spin Energy      =      -1.1772795522588104 [Eh]
	 Correlation Energy        =      -1.5622753453824447 [Eh]
	 Total Energy              =    -704.7578084886267789 [Eh]

	 ================> DF-SCS-MP2 Energies <==================
	-----------------------------------------------------------
	 SCS Same-Spin Scale       =       0.3333333333333333 [-]
	 SCS Opposite-Spin Scale   =       1.2000000000000000 [-]
	 SCS Same-Spin Energy      =      -0.1283319310412114 [Eh]
	 SCS Opposite-Spin Energy  =      -1.4127354627105724 [Eh]
	 SCS Correlation Energy    =      -1.5410673937517838 [Eh]
	 SCS Total Energy          =    -704.7366005369960931 [Eh]
	-----------------------------------------------------------

  Dipole Moment: [D]
     X:    -3.1401      Y:     1.5402      Z:     0.0000     Total:     3.4975

*** Psi4 exiting successfully. Buy a developer a beer!
