                               Psi4 1.4a3.dev225

  ==> Input File <==

--------------------------------------------------------------------------
#psi4
#
memory 32 gb

molecule  {
0 1
  S        0.1285310     1.6062780     0.0000000
  O        2.7930710    -1.2979160    -0.0000070
  C       -1.4623200    -0.4344690    -0.0000060
  C       -0.1473770    -0.9544550    -0.0000010
  C        0.8287900     0.0275460     0.0000070
  C       -1.4537890     0.9508390    -0.0000050
  C       -2.7097270    -1.2710250     0.0000050
  C        2.2775230    -0.1819160     0.0000050
  H        0.1093330    -2.0101800    -0.0000030
  H       -2.3118400     1.6133930    -0.0000140
  H       -2.7491870    -1.9153830    -0.8833870
  H       -2.7484755    -1.9035634     0.8672777
  H       -3.6031060    -0.6413200    -0.0000150
  H        2.9043230     0.7325940     0.0000170
units angstrom
no_reorient  #important for SAPT in psi4, default
symmetry c1  #important for SAPT in psi4, default
}

set PROPERTIES_ORIGIN ["COM"]
properties('MP2/aug-cc-pvtz', properties = ['dipole'])
--------------------------------------------------------------------------

    Molecular point group: c1
  Charge       = 0
  Multiplicity = 1
  Basis Set: AUG-CC-PVTZ
    Blend: AUG-CC-PVTZ
  Basis Set: (AUG-CC-PVTZ AUX)
    Blend: AUG-CC-PVTZ-JKFIT

    Orbital Energies [Eh]
    ---------------------

    Doubly Occupied:

       1A    -92.004092     2A    -20.554899     3A    -11.344590
       4A    -11.282959     5A    -11.276156     6A    -11.262973
       7A    -11.261060     8A    -11.239591     9A     -9.004150
      10A     -6.685119    11A     -6.684656    12A     -6.683928
      13A     -1.379915    14A     -1.193741    15A     -1.055702
      16A     -1.009877    17A     -0.947733    18A     -0.866615
      19A     -0.772994    20A     -0.739701    21A     -0.679432
      22A     -0.647848    23A     -0.605765    24A     -0.598489
      25A     -0.589591    26A     -0.554303    27A     -0.538977
      28A     -0.533482    29A     -0.503104    30A     -0.490155
      31A     -0.434383    32A     -0.356428    33A     -0.336575

  @DF-RHF Final Energy:  -703.19676188273866

   => Energetics <=

    Nuclear Repulsion Energy =            404.7577332947817581
    One-Electron Energy =               -1767.6710216689762092
    Two-Electron Energy =                 659.7165264914558520
    Total Energy =                       -703.1967618827386559
  Basis Set: (AUG-CC-PVTZ AUX)
    Blend: AUG-CC-PVTZ-RI
    Molecular point group: c1

    Geometry (in Angstrom), charge = 0, multiplicity = 1:

       Center              X                  Y                   Z               Mass
    ------------   -----------------  -----------------  -----------------  -----------------
         S            0.062531475326     1.573920582713     0.000129370116    31.972071174400
         O            2.727071475326    -1.330273417287     0.000122370116    15.994914619570
         C           -1.528319524674    -0.466826417287     0.000123370116    12.000000000000
         C           -0.213376524674    -0.986812417287     0.000128370116    12.000000000000
         C            0.762790475326    -0.004811417287     0.000136370116    12.000000000000
         C           -1.519788524674     0.918481582713     0.000124370116    12.000000000000
         C           -2.775726524674    -1.303382417287     0.000134370116    12.000000000000
         C            2.211523475326    -0.214273417287     0.000134370116    12.000000000000
         H            0.043333475326    -2.042537417287     0.000126370116     1.007825032230
         H           -2.377839524674     1.581035582713     0.000115370116     1.007825032230
         H           -2.815186524674    -1.947740417287    -0.883257629884     1.007825032230
         H           -2.814475024674    -1.935920817287     0.867407070116     1.007825032230
         H           -3.669105524674    -0.673677417287     0.000114370116     1.007825032230
         H            2.838323475326     0.700236582713     0.000146370116     1.007825032230

  Basis Set: AUG-CC-PVTZ
    Blend: AUG-CC-PVTZ
  Basis Set: (AUG-CC-PVTZ AUX)
    Blend: AUG-CC-PVTZ-JKFIT
	 Reference Energy          =    -703.1967618827386559 [Eh]
	 Singles Energy            =      -0.0000000000000000 [Eh]
	 Same-Spin Energy          =      -0.3846320855157310 [Eh]
	 Opposite-Spin Energy      =      -1.1767743598956166 [Eh]
	 Correlation Energy        =      -1.5614064454113477 [Eh]
	 Total Energy              =    -704.7581683281499636 [Eh]

	 ================> DF-SCS-MP2 Energies <==================
	-----------------------------------------------------------
	 SCS Same-Spin Scale       =       0.3333333333333333 [-]
	 SCS Opposite-Spin Scale   =       1.2000000000000000 [-]
	 SCS Same-Spin Energy      =      -0.1282106951719103 [Eh]
	 SCS Opposite-Spin Energy  =      -1.4121292318747398 [Eh]
	 SCS Correlation Energy    =      -1.5403399270466502 [Eh]
	 SCS Total Energy          =    -704.7371018097852584 [Eh]
	-----------------------------------------------------------

  Dipole Moment: [D]
     X:    -3.1387      Y:     1.5234      Z:     0.0046     Total:     3.4889

*** Psi4 exiting successfully. Buy a developer a beer!
