                               Psi4 1.4a3.dev225

  ==> Input File <==

--------------------------------------------------------------------------
#psi4
#
memory 32 gb

molecule  {
0 1
  S        0.1285310     1.6062780     0.0000000
  O        2.7930710    -1.2979160    -0.0000070
  C       -1.4623200    -0.4344690    -0.0000060
  C       -0.1473770    -0.9544550    -0.0000010
  C        0.8287900     0.0275460     0.0000070
  C       -1.4296133     0.9504791    -0.0000052
  C       -2.7097270    -1.2710250     0.0000050
  C        2.2775230    -0.1819160     0.0000050
  H        0.1093330    -2.0101800    -0.0000030
  H       -2.3118400     1.6133930    -0.0000140
  H       -2.7491870    -1.9153830    -0.8833870
  H       -2.7491970    -1.9153410     0.8834260
  H       -3.6031060    -0.6413200    -0.0000150
  H        2.9043230     0.7325940     0.0000170
units angstrom
no_reorient  #important for SAPT in psi4, default
symmetry c1  #important for SAPT in psi4, default
}

set PROPERTIES_ORIGIN ["COM"]
properties('MP2/aug-cc-pvtz', properties = ['dipole'])
--------------------------------------------------------------------------

    Molecular point group: c1
  Charge       = 0
  Multiplicity = 1
  Basis Set: AUG-CC-PVTZ
    Blend: AUG-CC-PVTZ
  Basis Set: (AUG-CC-PVTZ AUX)
    Blend: AUG-CC-PVTZ-JKFIT

    Orbital Energies [Eh]
    ---------------------

    Doubly Occupied:

       1A    -92.004868     2A    -20.553807     3A    -11.343869
       4A    -11.283005     5A    -11.274948     6A    -11.262256
       7A    -11.260765     8A    -11.242345     9A     -9.005357
      10A     -6.686352    11A     -6.685860    12A     -6.685111
      13A     -1.379032    14A     -1.196406    15A     -1.055038
      16A     -1.011894    17A     -0.946814    18A     -0.865044
      19A     -0.770231    20A     -0.739798    21A     -0.679341
      22A     -0.646620    23A     -0.604801    24A     -0.596945
      25A     -0.585769    26A     -0.554083    27A     -0.537629
      28A     -0.534638    29A     -0.504046    30A     -0.493561
      31A     -0.433469    32A     -0.357266    33A     -0.335803

  @DF-RHF Final Energy:  -703.19601458249178

   => Energetics <=

    Nuclear Repulsion Energy =            405.1417699666855583
    One-Electron Energy =               -1768.4420250781056438
    Two-Electron Energy =                 660.1042405289282442
    Total Energy =                       -703.1960145824917845
  Basis Set: (AUG-CC-PVTZ AUX)
    Blend: AUG-CC-PVTZ-RI
    Molecular point group: c1

    Geometry (in Angstrom), charge = 0, multiplicity = 1:

       Center              X                  Y                   Z               Mass
    ------------   -----------------  -----------------  -----------------  -----------------
         S            0.060235052696     1.574049049140     0.000000239470    31.972071174400
         O            2.724775052696    -1.330144950860    -0.000006760530    15.994914619570
         C           -1.530615947304    -0.466697950860    -0.000005760530    12.000000000000
         C           -0.215672947304    -0.986683950860    -0.000000760530    12.000000000000
         C            0.760494052696    -0.004682950860     0.000007239470    12.000000000000
         C           -1.497909247304     0.918250149140    -0.000004960530    12.000000000000
         C           -2.778022947304    -1.303253950860     0.000005239470    12.000000000000
         C            2.209227052696    -0.214144950860     0.000005239470    12.000000000000
         H            0.041037052696    -2.042408950860    -0.000002760530     1.007825032230
         H           -2.380135947304     1.581164049140    -0.000013760530     1.007825032230
         H           -2.817482947304    -1.947611950860    -0.883386760530     1.007825032230
         H           -2.817492947304    -1.947569950860     0.883426239470     1.007825032230
         H           -3.671401947304    -0.673548950860    -0.000014760530     1.007825032230
         H            2.836027052696     0.700365049140     0.000017239470     1.007825032230

  Basis Set: AUG-CC-PVTZ
    Blend: AUG-CC-PVTZ
  Basis Set: (AUG-CC-PVTZ AUX)
    Blend: AUG-CC-PVTZ-JKFIT
	 Reference Energy          =    -703.1960145824917845 [Eh]
	 Singles Energy            =      -0.0000000000000000 [Eh]
	 Same-Spin Energy          =      -0.3848490593751961 [Eh]
	 Opposite-Spin Energy      =      -1.1768385528936438 [Eh]
	 Correlation Energy        =      -1.5616876122688399 [Eh]
	 Total Energy              =    -704.7577021947606681 [Eh]

	 ================> DF-SCS-MP2 Energies <==================
	-----------------------------------------------------------
	 SCS Same-Spin Scale       =       0.3333333333333333 [-]
	 SCS Opposite-Spin Scale   =       1.2000000000000000 [-]
	 SCS Same-Spin Energy      =      -0.1282830197917320 [Eh]
	 SCS Opposite-Spin Energy  =      -1.4122062634723724 [Eh]
	 SCS Correlation Energy    =      -1.5404892832641044 [Eh]
	 SCS Total Energy          =    -704.7365038657559353 [Eh]
	-----------------------------------------------------------

  Dipole Moment: [D]
     X:    -3.1443      Y:     1.5597      Z:     0.0000     Total:     3.5099

*** Psi4 exiting successfully. Buy a developer a beer!
