                               Psi4 1.4a3.dev225

  ==> Input File <==

--------------------------------------------------------------------------
#psi4
#
memory 32 gb

molecule  {
0 1
  S        0.1285310     1.6062780     0.0000000
  O        2.7930710    -1.2979160    -0.0000070
  C       -1.4623200    -0.4344690    -0.0000060
  C       -0.1473770    -0.9544550    -0.0000010
  C        0.8287900     0.0275460     0.0000070
  C       -1.4537890     0.9508390    -0.0000050
  C       -2.7097270    -1.2710250     0.0000050
  C        2.3764939    -0.1962255     0.0000049
  H        0.1093330    -2.0101800    -0.0000030
  H       -2.3118400     1.6133930    -0.0000140
  H       -2.7491870    -1.9153830    -0.8833870
  H       -2.7491970    -1.9153410     0.8834260
  H       -3.6031060    -0.6413200    -0.0000150
  H        2.9043230     0.7325940     0.0000170
units angstrom
no_reorient  #important for SAPT in psi4, default
symmetry c1  #important for SAPT in psi4, default
}

set PROPERTIES_ORIGIN ["COM"]
properties('MP2/aug-cc-pvtz', properties = ['dipole'])
--------------------------------------------------------------------------

    Molecular point group: c1
  Charge       = 0
  Multiplicity = 1
  Basis Set: AUG-CC-PVTZ
    Blend: AUG-CC-PVTZ
  Basis Set: (AUG-CC-PVTZ AUX)
    Blend: AUG-CC-PVTZ-JKFIT

    Orbital Energies [Eh]
    ---------------------

    Doubly Occupied:

       1A    -91.997130     2A    -20.567994     3A    -11.349385
       4A    -11.275277     5A    -11.273327     6A    -11.257156
       7A    -11.251262     8A    -11.237662     9A     -8.997275
      10A     -6.678283    11A     -6.677812    12A     -6.677098
      13A     -1.424090    14A     -1.184916    15A     -1.044940
      16A     -0.997666    17A     -0.936692    18A     -0.862608
      19A     -0.770219    20A     -0.736434    21A     -0.678967
      22A     -0.671852    23A     -0.602935    24A     -0.592008
      25A     -0.586875    26A     -0.565364    27A     -0.534308
      28A     -0.530247    29A     -0.510749    30A     -0.484255
      31A     -0.431613    32A     -0.350620    33A     -0.330001

  @DF-RHF Final Energy:  -703.19255282160395

   => Energetics <=

    Nuclear Repulsion Energy =            403.6696920543240594
    One-Electron Energy =               -1765.5904502559612865
    Two-Electron Energy =                 658.7282053800332733
    Total Energy =                       -703.1925528216039538
  Basis Set: (AUG-CC-PVTZ AUX)
    Blend: AUG-CC-PVTZ-RI
    Molecular point group: c1

    Geometry (in Angstrom), charge = 0, multiplicity = 1:

       Center              X                  Y                   Z               Mass
    ------------   -----------------  -----------------  -----------------  -----------------
         S            0.053112488093     1.575377435549     0.000000229948    31.972071174400
         O            2.717652488093    -1.328816564451    -0.000006770052    15.994914619570
         C           -1.537738511907    -0.465369564451    -0.000005770052    12.000000000000
         C           -0.222795511907    -0.985355564451    -0.000000770052    12.000000000000
         C            0.753371488093    -0.003354564451     0.000007229948    12.000000000000
         C           -1.529207511907     0.919938435549    -0.000004770052    12.000000000000
         C           -2.785145511907    -1.301925564451     0.000005229948    12.000000000000
         C            2.301075388093    -0.227126064451     0.000005129948    12.000000000000
         H            0.033914488093    -2.041080564451    -0.000002770052     1.007825032230
         H           -2.387258511907     1.582492435549    -0.000013770052     1.007825032230
         H           -2.824605511907    -1.946283564451    -0.883386770052     1.007825032230
         H           -2.824615511907    -1.946241564451     0.883426229948     1.007825032230
         H           -3.678524511907    -0.672220564451    -0.000014770052     1.007825032230
         H            2.828904488093     0.701693435549     0.000017229948     1.007825032230

  Basis Set: AUG-CC-PVTZ
    Blend: AUG-CC-PVTZ
  Basis Set: (AUG-CC-PVTZ AUX)
    Blend: AUG-CC-PVTZ-JKFIT
	 Reference Energy          =    -703.1925528216039538 [Eh]
	 Singles Energy            =      -0.0000000000000000 [Eh]
	 Same-Spin Energy          =      -0.3826790611384797 [Eh]
	 Opposite-Spin Energy      =      -1.1737007719578205 [Eh]
	 Correlation Energy        =      -1.5563798330963001 [Eh]
	 Total Energy              =    -704.7489326547002975 [Eh]

	 ================> DF-SCS-MP2 Energies <==================
	-----------------------------------------------------------
	 SCS Same-Spin Scale       =       0.3333333333333333 [-]
	 SCS Opposite-Spin Scale   =       1.2000000000000000 [-]
	 SCS Same-Spin Energy      =      -0.1275596870461599 [Eh]
	 SCS Opposite-Spin Energy  =      -1.4084409263493847 [Eh]
	 SCS Correlation Energy    =      -1.5360006133955446 [Eh]
	 SCS Total Energy          =    -704.7285534349995260 [Eh]
	-----------------------------------------------------------

  Dipole Moment: [D]
     X:    -2.2535      Y:     1.3053      Z:     0.0000     Total:     2.6042

*** Psi4 exiting successfully. Buy a developer a beer!
