                               Psi4 1.4a3.dev225

  ==> Input File <==

--------------------------------------------------------------------------
#psi4
#
memory 32 gb

molecule  {
0 1
  S        0.1285310     1.6062780     0.0000000
  O        2.7930710    -1.2979160    -0.0000070
  C       -1.4623200    -0.4344690    -0.0000060
  C       -0.2089337    -1.0890554     0.0000006
  C        0.8287900     0.0275460     0.0000070
  C       -1.4537890     0.9508390    -0.0000050
  C       -2.7097270    -1.2710250     0.0000050
  C        2.2775230    -0.1819160     0.0000050
  H        0.1093330    -2.0101800    -0.0000030
  H       -2.3118400     1.6133930    -0.0000140
  H       -2.7491870    -1.9153830    -0.8833870
  H       -2.7491970    -1.9153410     0.8834260
  H       -3.6031060    -0.6413200    -0.0000150
  H        2.9043230     0.7325940     0.0000170
units angstrom
no_reorient  #important for SAPT in psi4, default
symmetry c1  #important for SAPT in psi4, default
}

set PROPERTIES_ORIGIN ["COM"]
properties('MP2/aug-cc-pvtz', properties = ['dipole'])
--------------------------------------------------------------------------

    Molecular point group: c1
  Charge       = 0
  Multiplicity = 1
  Basis Set: AUG-CC-PVTZ
    Blend: AUG-CC-PVTZ
  Basis Set: (AUG-CC-PVTZ AUX)
    Blend: AUG-CC-PVTZ-JKFIT

    Orbital Energies [Eh]
    ---------------------

    Doubly Occupied:

       1A    -92.014311     2A    -20.550983     3A    -11.341360
       4A    -11.289440     5A    -11.285261     6A    -11.269150
       7A    -11.267247     8A    -11.238548     9A     -9.013432
      10A     -6.694344    11A     -6.693850    12A     -6.693303
      13A     -1.376491    14A     -1.182605    15A     -1.056081
      16A     -1.004781    17A     -0.944181    18A     -0.868085
      19A     -0.773998    20A     -0.751011    21A     -0.666958
      22A     -0.648247    23A     -0.622882    24A     -0.594696
      25A     -0.589771    26A     -0.550664    27A     -0.547919
      28A     -0.513621    29A     -0.500130    30A     -0.492738
      31A     -0.430031    32A     -0.356990    33A     -0.324761

  @DF-RHF Final Energy:  -703.16213834122209

   => Energetics <=

    Nuclear Repulsion Energy =            402.2794581939749037
    One-Electron Energy =               -1762.5874584342898288
    Two-Electron Energy =                 657.1458618990927789
    Total Energy =                       -703.1621383412220894
  Basis Set: (AUG-CC-PVTZ AUX)
    Blend: AUG-CC-PVTZ-RI
    Molecular point group: c1

    Geometry (in Angstrom), charge = 0, multiplicity = 1:

       Center              X                  Y                   Z               Mass
    ------------   -----------------  -----------------  -----------------  -----------------
         S            0.068399140199     1.586832444781     0.000000068061    31.972071174400
         O            2.732939140199    -1.317361555219    -0.000006931939    15.994914619570
         C           -1.522451859801    -0.453914555219    -0.000005931939    12.000000000000
         C           -0.269065559801    -1.108500955219     0.000000668061    12.000000000000
         C            0.768658140199     0.008100444781     0.000007068061    12.000000000000
         C           -1.513920859801     0.931393444781    -0.000004931939    12.000000000000
         C           -2.769858859801    -1.290470555219     0.000005068061    12.000000000000
         C            2.217391140199    -0.201361555219     0.000005068061    12.000000000000
         H            0.049201140199    -2.029625555219    -0.000002931939     1.007825032230
         H           -2.371971859801     1.593947444781    -0.000013931939     1.007825032230
         H           -2.809318859801    -1.934828555219    -0.883386931939     1.007825032230
         H           -2.809328859801    -1.934786555219     0.883426068061     1.007825032230
         H           -3.663237859801    -0.660765555219    -0.000014931939     1.007825032230
         H            2.844191140199     0.713148444781     0.000017068061     1.007825032230

  Basis Set: AUG-CC-PVTZ
    Blend: AUG-CC-PVTZ
  Basis Set: (AUG-CC-PVTZ AUX)
    Blend: AUG-CC-PVTZ-JKFIT
	 Reference Energy          =    -703.1621383412220894 [Eh]
	 Singles Energy            =      -0.0000000000000000 [Eh]
	 Same-Spin Energy          =      -0.3875249389823116 [Eh]
	 Opposite-Spin Energy      =      -1.1816858258807645 [Eh]
	 Correlation Energy        =      -1.5692107648630760 [Eh]
	 Total Energy              =    -704.7313491060851902 [Eh]

	 ================> DF-SCS-MP2 Energies <==================
	-----------------------------------------------------------
	 SCS Same-Spin Scale       =       0.3333333333333333 [-]
	 SCS Opposite-Spin Scale   =       1.2000000000000000 [-]
	 SCS Same-Spin Energy      =      -0.1291749796607705 [Eh]
	 SCS Opposite-Spin Energy  =      -1.4180229910569173 [Eh]
	 SCS Correlation Energy    =      -1.5471979707176877 [Eh]
	 SCS Total Energy          =    -704.7093363119397509 [Eh]
	-----------------------------------------------------------

  Dipole Moment: [D]
     X:    -3.1750      Y:     1.7323      Z:     0.0000     Total:     3.6169

*** Psi4 exiting successfully. Buy a developer a beer!
