                               Psi4 1.4a3.dev225

  ==> Input File <==

--------------------------------------------------------------------------
#psi4
#
memory 32 gb

molecule  {
0 1
  S        0.1285310     1.6062780     0.0000000
  O        2.7930710    -1.2979160    -0.0000070
  C       -1.4623200    -0.4344690    -0.0000060
  C       -0.1473770    -0.9544550    -0.0000010
  C        0.8287900     0.0275460     0.0000070
  C       -1.3090316     0.9423584    -0.0000064
  C       -2.7097270    -1.2710250     0.0000050
  C        2.2775230    -0.1819160     0.0000050
  H        0.1093330    -2.0101800    -0.0000030
  H       -2.3118400     1.6133930    -0.0000140
  H       -2.7491870    -1.9153830    -0.8833870
  H       -2.7491970    -1.9153410     0.8834260
  H       -3.6031060    -0.6413200    -0.0000150
  H        2.9043230     0.7325940     0.0000170
units angstrom
no_reorient  #important for SAPT in psi4, default
symmetry c1  #important for SAPT in psi4, default
}

set PROPERTIES_ORIGIN ["COM"]
properties('MP2/aug-cc-pvtz', properties = ['dipole'])
--------------------------------------------------------------------------

    Molecular point group: c1
  Charge       = 0
  Multiplicity = 1
  Basis Set: AUG-CC-PVTZ
    Blend: AUG-CC-PVTZ
  Basis Set: (AUG-CC-PVTZ AUX)
    Blend: AUG-CC-PVTZ-JKFIT

    Orbital Energies [Eh]
    ---------------------

    Doubly Occupied:

       1A    -92.007396     2A    -20.548083     3A    -11.339946
       4A    -11.283798     5A    -11.268794     6A    -11.260067
       7A    -11.258501     8A    -11.244556     9A     -9.010757
      10A     -6.692077    11A     -6.691005    12A     -6.690262
      13A     -1.374393    14A     -1.213070    15A     -1.058030
      16A     -1.020127    17A     -0.948735    18A     -0.858768
      19A     -0.758459    20A     -0.742257    21A     -0.680468
      22A     -0.640195    23A     -0.605733    24A     -0.599607
      25A     -0.568123    26A     -0.557049    27A     -0.545961
      28A     -0.525746    29A     -0.509647    30A     -0.501640
      31A     -0.428278    32A     -0.362826    33A     -0.331245

  @DF-RHF Final Energy:  -703.17219851343498

   => Energetics <=

    Nuclear Repulsion Energy =            407.6757357583480825
    One-Electron Energy =               -1773.4446696595953199
    Two-Electron Energy =                 662.5967353878122594
    Total Energy =                       -703.1721985134349779
  Basis Set: (AUG-CC-PVTZ AUX)
    Blend: AUG-CC-PVTZ-RI
    Molecular point group: c1

    Geometry (in Angstrom), charge = 0, multiplicity = 1:

       Center              X                  Y                   Z               Mass
    ------------   -----------------  -----------------  -----------------  -----------------
         S            0.048752351290     1.574822363609     0.000000353743    31.972071174400
         O            2.713292351290    -1.329371636391    -0.000006646257    15.994914619570
         C           -1.542098648710    -0.465924636391    -0.000005646257    12.000000000000
         C           -0.227155648710    -0.985910636391    -0.000000646257    12.000000000000
         C            0.749011351290    -0.003909636391     0.000007353743    12.000000000000
         C           -1.388810248710     0.910902763609    -0.000006046257    12.000000000000
         C           -2.789505648710    -1.302480636391     0.000005353743    12.000000000000
         C            2.197744351290    -0.213371636391     0.000005353743    12.000000000000
         H            0.029554351290    -2.041635636391    -0.000002646257     1.007825032230
         H           -2.391618648710     1.581937363609    -0.000013646257     1.007825032230
         H           -2.828965648710    -1.946838636391    -0.883386646257     1.007825032230
         H           -2.828975648710    -1.946796636391     0.883426353743     1.007825032230
         H           -3.682884648710    -0.672775636391    -0.000014646257     1.007825032230
         H            2.824544351290     0.701138363609     0.000017353743     1.007825032230

  Basis Set: AUG-CC-PVTZ
    Blend: AUG-CC-PVTZ
  Basis Set: (AUG-CC-PVTZ AUX)
    Blend: AUG-CC-PVTZ-JKFIT
	 Reference Energy          =    -703.1721985134349779 [Eh]
	 Singles Energy            =      -0.0000000000000000 [Eh]
	 Same-Spin Energy          =      -0.3864806570594120 [Eh]
	 Opposite-Spin Energy      =      -1.1777637172456612 [Eh]
	 Correlation Energy        =      -1.5642443743050731 [Eh]
	 Total Energy              =    -704.7364428877400542 [Eh]

	 ================> DF-SCS-MP2 Energies <==================
	-----------------------------------------------------------
	 SCS Same-Spin Scale       =       0.3333333333333333 [-]
	 SCS Opposite-Spin Scale   =       1.2000000000000000 [-]
	 SCS Same-Spin Energy      =      -0.1288268856864707 [Eh]
	 SCS Opposite-Spin Energy  =      -1.4133164606947934 [Eh]
	 SCS Correlation Energy    =      -1.5421433463812642 [Eh]
	 SCS Total Energy          =    -704.7143418598162725 [Eh]
	-----------------------------------------------------------

  Dipole Moment: [D]
     X:    -3.2068      Y:     1.6933      Z:     0.0000     Total:     3.6264

*** Psi4 exiting successfully. Buy a developer a beer!
