                               Psi4 1.4a3.dev225

  ==> Input File <==

--------------------------------------------------------------------------
#psi4
#
memory 32 gb

molecule  {
0 1
  S        0.1285310     1.6062780     0.0000000
  O        2.7930710    -1.2979160    -0.0000070
  C       -1.4623200    -0.4344690    -0.0000060
  C       -0.1473770    -0.9544550    -0.0000010
  C        0.8287900     0.0275460     0.0000070
  C       -1.4537890     0.9508390    -0.0000050
  C       -2.7097270    -1.2710250     0.0000050
  C        2.2577288    -0.1790541     0.0000050
  H        0.1093330    -2.0101800    -0.0000030
  H       -2.3118400     1.6133930    -0.0000140
  H       -2.7491870    -1.9153830    -0.8833870
  H       -2.7491970    -1.9153410     0.8834260
  H       -3.6031060    -0.6413200    -0.0000150
  H        2.9043230     0.7325940     0.0000170
units angstrom
no_reorient  #important for SAPT in psi4, default
symmetry c1  #important for SAPT in psi4, default
}

set PROPERTIES_ORIGIN ["COM"]
properties('MP2/aug-cc-pvtz', properties = ['dipole'])
--------------------------------------------------------------------------

    Molecular point group: c1
  Charge       = 0
  Multiplicity = 1
  Basis Set: AUG-CC-PVTZ
    Blend: AUG-CC-PVTZ
  Basis Set: (AUG-CC-PVTZ AUX)
    Blend: AUG-CC-PVTZ-JKFIT

    Orbital Energies [Eh]
    ---------------------

    Doubly Occupied:

       1A    -92.005525     2A    -20.552188     3A    -11.343690
       4A    -11.285181     5A    -11.275859     6A    -11.264447
       7A    -11.263121     8A    -11.242881     9A     -9.005571
      10A     -6.686531    11A     -6.686067    12A     -6.685338
      13A     -1.371051    14A     -1.195641    15A     -1.057613
      16A     -1.012494    17A     -0.948679    18A     -0.867910
      19A     -0.773497    20A     -0.740062    21A     -0.679261
      22A     -0.643390    23A     -0.605542    24A     -0.597642
      25A     -0.590038    26A     -0.553191    27A     -0.539849
      28A     -0.533700    29A     -0.500063    30A     -0.491226
      31A     -0.433563    32A     -0.357550    33A     -0.337774

  @DF-RHF Final Energy:  -703.19481322627303

   => Energetics <=

    Nuclear Repulsion Energy =            404.8878559771549703
    One-Electron Energy =               -1767.9130666670091614
    Two-Electron Energy =                 659.8303974635812210
    Total Energy =                       -703.1948132262730269
  Basis Set: (AUG-CC-PVTZ AUX)
    Blend: AUG-CC-PVTZ-RI
    Molecular point group: c1

    Geometry (in Angstrom), charge = 0, multiplicity = 1:

       Center              X                  Y                   Z               Mass
    ------------   -----------------  -----------------  -----------------  -----------------
         S            0.064422199109     1.573742244978     0.000000220425    31.972071174400
         O            2.728962199109    -1.330451755022    -0.000006779575    15.994914619570
         C           -1.526428800891    -0.467004755022    -0.000005779575    12.000000000000
         C           -0.211485800891    -0.986990755022    -0.000000779575    12.000000000000
         C            0.764681199109    -0.004989755022     0.000007220425    12.000000000000
         C           -1.517897800891     0.918303244978    -0.000004779575    12.000000000000
         C           -2.773835800891    -1.303560755022     0.000005220425    12.000000000000
         C            2.193619999109    -0.211589855022     0.000005220425    12.000000000000
         H            0.045224199109    -2.042715755022    -0.000002779575     1.007825032230
         H           -2.375948800891     1.580857244978    -0.000013779575     1.007825032230
         H           -2.813295800891    -1.947918755022    -0.883386779575     1.007825032230
         H           -2.813305800891    -1.947876755022     0.883426220425     1.007825032230
         H           -3.667214800891    -0.673855755022    -0.000014779575     1.007825032230
         H            2.840214199109     0.700058244978     0.000017220425     1.007825032230

  Basis Set: AUG-CC-PVTZ
    Blend: AUG-CC-PVTZ
  Basis Set: (AUG-CC-PVTZ AUX)
    Blend: AUG-CC-PVTZ-JKFIT
	 Reference Energy          =    -703.1948132262730269 [Eh]
	 Singles Energy            =      -0.0000000000000000 [Eh]
	 Same-Spin Energy          =      -0.3851356200855154 [Eh]
	 Opposite-Spin Energy      =      -1.1777188605338749 [Eh]
	 Correlation Energy        =      -1.5628544806193903 [Eh]
	 Total Energy              =    -704.7576677068924482 [Eh]

	 ================> DF-SCS-MP2 Energies <==================
	-----------------------------------------------------------
	 SCS Same-Spin Scale       =       0.3333333333333333 [-]
	 SCS Opposite-Spin Scale   =       1.2000000000000000 [-]
	 SCS Same-Spin Energy      =      -0.1283785400285051 [Eh]
	 SCS Opposite-Spin Energy  =      -1.4132626326406499 [Eh]
	 SCS Correlation Energy    =      -1.5416411726691550 [Eh]
	 SCS Total Energy          =    -704.7364543989422145 [Eh]
	-----------------------------------------------------------

  Dipole Moment: [D]
     X:    -3.2999      Y:     1.5711      Z:     0.0000     Total:     3.6548

*** Psi4 exiting successfully. Buy a developer a beer!
