                               Psi4 1.4a3.dev225

  ==> Input File <==

--------------------------------------------------------------------------
#psi4
#
memory 32 gb

molecule  {
0 1
  S        0.1285310     1.6062780     0.0000000
  O        2.7930710    -1.2979160    -0.0000070
  C       -1.4623200    -0.4344690    -0.0000060
  C       -0.1868525    -1.0449141     0.0000001
  C        0.8287900     0.0275460     0.0000070
  C       -1.4537890     0.9508390    -0.0000050
  C       -2.7097270    -1.2710250     0.0000050
  C        2.2775230    -0.1819160     0.0000050
  H        0.1093330    -2.0101800    -0.0000030
  H       -2.3118400     1.6133930    -0.0000140
  H       -2.7491870    -1.9153830    -0.8833870
  H       -2.7491970    -1.9153410     0.8834260
  H       -3.6031060    -0.6413200    -0.0000150
  H        2.9043230     0.7325940     0.0000170
units angstrom
no_reorient  #important for SAPT in psi4, default
symmetry c1  #important for SAPT in psi4, default
}

set PROPERTIES_ORIGIN ["COM"]
properties('MP2/aug-cc-pvtz', properties = ['dipole'])
--------------------------------------------------------------------------

    Molecular point group: c1
  Charge       = 0
  Multiplicity = 1
  Basis Set: AUG-CC-PVTZ
    Blend: AUG-CC-PVTZ
  Basis Set: (AUG-CC-PVTZ AUX)
    Blend: AUG-CC-PVTZ-JKFIT

    Orbital Energies [Eh]
    ---------------------

    Doubly Occupied:

       1A    -92.010874     2A    -20.552100     3A    -11.342318
       4A    -11.285392     5A    -11.284533     6A    -11.266701
       7A    -11.265337     8A    -11.239642     9A     -9.010305
      10A     -6.691241    11A     -6.690751    12A     -6.690146
      13A     -1.377510    14A     -1.185676    15A     -1.055185
      16A     -1.006416    17A     -0.944892    18A     -0.867031
      19A     -0.769629    20A     -0.750629    21A     -0.670902
      22A     -0.647572    23A     -0.615679    24A     -0.595183
      25A     -0.590734    26A     -0.549617    27A     -0.547808
      28A     -0.520963    29A     -0.500864    30A     -0.493020
      31A     -0.431440    32A     -0.356161    33A     -0.328945

  @DF-RHF Final Energy:  -703.17972632354827

   => Energetics <=

    Nuclear Repulsion Energy =            403.0382977837967360
    One-Electron Energy =               -1764.1656568418436564
    Two-Electron Energy =                 657.9476327344987112
    Total Energy =                       -703.1797263235482660
  Basis Set: (AUG-CC-PVTZ AUX)
    Blend: AUG-CC-PVTZ-RI
    Molecular point group: c1

    Geometry (in Angstrom), charge = 0, multiplicity = 1:

       Center              X                  Y                   Z               Mass
    ------------   -----------------  -----------------  -----------------  -----------------
         S            0.066296401340     1.582628976364     0.000000115675    31.972071174400
         O            2.730836401340    -1.321565023636    -0.000006884325    15.994914619570
         C           -1.524554598660    -0.458118023636    -0.000005884325    12.000000000000
         C           -0.249087098660    -1.068563123636     0.000000215675    12.000000000000
         C            0.766555401340     0.003896976364     0.000007115675    12.000000000000
         C           -1.516023598660     0.927189976364    -0.000004884325    12.000000000000
         C           -2.771961598660    -1.294674023636     0.000005115675    12.000000000000
         C            2.215288401340    -0.205565023636     0.000005115675    12.000000000000
         H            0.047098401340    -2.033829023636    -0.000002884325     1.007825032230
         H           -2.374074598660     1.589743976364    -0.000013884325     1.007825032230
         H           -2.811421598660    -1.939032023636    -0.883386884325     1.007825032230
         H           -2.811431598660    -1.938990023636     0.883426115675     1.007825032230
         H           -3.665340598660    -0.664969023636    -0.000014884325     1.007825032230
         H            2.842088401340     0.708944976364     0.000017115675     1.007825032230

  Basis Set: AUG-CC-PVTZ
    Blend: AUG-CC-PVTZ
  Basis Set: (AUG-CC-PVTZ AUX)
    Blend: AUG-CC-PVTZ-JKFIT
	 Reference Energy          =    -703.1797263235482660 [Eh]
	 Singles Energy            =      -0.0000000000000000 [Eh]
	 Same-Spin Energy          =      -0.3863918955092506 [Eh]
	 Opposite-Spin Energy      =      -1.1797123487461394 [Eh]
	 Correlation Energy        =      -1.5661042442553899 [Eh]
	 Total Energy              =    -704.7458305678036368 [Eh]

	 ================> DF-SCS-MP2 Energies <==================
	-----------------------------------------------------------
	 SCS Same-Spin Scale       =       0.3333333333333333 [-]
	 SCS Opposite-Spin Scale   =       1.2000000000000000 [-]
	 SCS Same-Spin Energy      =      -0.1287972985030835 [Eh]
	 SCS Opposite-Spin Energy  =      -1.4156548184953672 [Eh]
	 SCS Correlation Energy    =      -1.5444521169984506 [Eh]
	 SCS Total Energy          =    -704.7241784405466660 [Eh]
	-----------------------------------------------------------

  Dipole Moment: [D]
     X:    -3.1607      Y:     1.6654      Z:     0.0000     Total:     3.5726

*** Psi4 exiting successfully. Buy a developer a beer!
