                               Psi4 1.4a3.dev225

  ==> Input File <==

--------------------------------------------------------------------------
#psi4
#
memory 32 gb

molecule  {
0 1
  S        0.1285310     1.6062780     0.0000000
  O        2.7930710    -1.2979160    -0.0000070
  C       -1.4623200    -0.4344690    -0.0000060
  C       -0.1473770    -0.9544550    -0.0000010
  C        0.8287900     0.0275460     0.0000070
  C       -1.4537890     0.9508390    -0.0000050
  C       -2.7097270    -1.2710250     0.0000050
  C        2.2280376    -0.1747613     0.0000051
  H        0.1093330    -2.0101800    -0.0000030
  H       -2.3118400     1.6133930    -0.0000140
  H       -2.7491870    -1.9153830    -0.8833870
  H       -2.7491970    -1.9153410     0.8834260
  H       -3.6031060    -0.6413200    -0.0000150
  H        2.9043230     0.7325940     0.0000170
units angstrom
no_reorient  #important for SAPT in psi4, default
symmetry c1  #important for SAPT in psi4, default
}

set PROPERTIES_ORIGIN ["COM"]
properties('MP2/aug-cc-pvtz', properties = ['dipole'])
--------------------------------------------------------------------------

    Molecular point group: c1
  Charge       = 0
  Multiplicity = 1
  Basis Set: AUG-CC-PVTZ
    Blend: AUG-CC-PVTZ
  Basis Set: (AUG-CC-PVTZ AUX)
    Blend: AUG-CC-PVTZ-JKFIT

    Orbital Energies [Eh]
    ---------------------

    Doubly Occupied:

       1A    -92.007574     2A    -20.547856     3A    -11.342153
       4A    -11.288488     5A    -11.275030     6A    -11.267011
       7A    -11.265718     8A    -11.244261     9A     -9.007607
      10A     -6.688553    11A     -6.688085    12A     -6.687355
      13A     -1.357657    14A     -1.198484    15A     -1.061545
      16A     -1.016477    17A     -0.951959    18A     -0.870593
      19A     -0.774412    20A     -0.740395    21A     -0.678977
      22A     -0.637356    23A     -0.606686    24A     -0.599247
      25A     -0.590295    26A     -0.553102    27A     -0.541506
      28A     -0.533691    29A     -0.495273    30A     -0.492851
      31A     -0.431392    32A     -0.359289    33A     -0.339426

  @DF-RHF Final Energy:  -703.19000269057915

   => Energetics <=

    Nuclear Repulsion Energy =            405.2265038615318531
    One-Electron Energy =               -1768.5524077288480385
    Two-Electron Energy =                 660.1359011767369793
    Total Energy =                       -703.1900026905791492
  Basis Set: (AUG-CC-PVTZ AUX)
    Blend: AUG-CC-PVTZ-RI
    Molecular point group: c1

    Geometry (in Angstrom), charge = 0, multiplicity = 1:

       Center              X                  Y                   Z               Mass
    ------------   -----------------  -----------------  -----------------  -----------------
         S            0.067249619721     1.573333452096     0.000000210902    31.972071174400
         O            2.731789619721    -1.330860547904    -0.000006789098    15.994914619570
         C           -1.523601380279    -0.467413547904    -0.000005789098    12.000000000000
         C           -0.208658380279    -0.987399547904    -0.000000789098    12.000000000000
         C            0.767508619721    -0.005398547904     0.000007210902    12.000000000000
         C           -1.515070380279     0.917894452096    -0.000004789098    12.000000000000
         C           -2.771008380279    -1.303969547904     0.000005210902    12.000000000000
         C            2.166756219721    -0.207705847904     0.000005310902    12.000000000000
         H            0.048051619721    -2.043124547904    -0.000002789098     1.007825032230
         H           -2.373121380279     1.580448452096    -0.000013789098     1.007825032230
         H           -2.810468380279    -1.948327547904    -0.883386789098     1.007825032230
         H           -2.810478380279    -1.948285547904     0.883426210902     1.007825032230
         H           -3.664387380279    -0.674264547904    -0.000014789098     1.007825032230
         H            2.843041619721     0.699649452096     0.000017210902     1.007825032230

  Basis Set: AUG-CC-PVTZ
    Blend: AUG-CC-PVTZ
  Basis Set: (AUG-CC-PVTZ AUX)
    Blend: AUG-CC-PVTZ-JKFIT
	 Reference Energy          =    -703.1900026905791492 [Eh]
	 Singles Energy            =      -0.0000000000000000 [Eh]
	 Same-Spin Energy          =      -0.3859729063240792 [Eh]
	 Opposite-Spin Energy      =      -1.1790924444138244 [Eh]
	 Correlation Energy        =      -1.5650653507379035 [Eh]
	 Total Energy              =    -704.7550680413170312 [Eh]

	 ================> DF-SCS-MP2 Energies <==================
	-----------------------------------------------------------
	 SCS Same-Spin Scale       =       0.3333333333333333 [-]
	 SCS Opposite-Spin Scale   =       1.2000000000000000 [-]
	 SCS Same-Spin Energy      =      -0.1286576354413597 [Eh]
	 SCS Opposite-Spin Energy  =      -1.4149109332965892 [Eh]
	 SCS Correlation Energy    =      -1.5435685687379490 [Eh]
	 SCS Total Energy          =    -704.7335712593170456 [Eh]
	-----------------------------------------------------------

  Dipole Moment: [D]
     X:    -3.5437      Y:     1.6315      Z:     0.0000     Total:     3.9013

*** Psi4 exiting successfully. Buy a developer a beer!
