                               Psi4 1.4a3.dev225

  ==> Input File <==

--------------------------------------------------------------------------
#psi4
#
memory 32 gb

molecule  {
0 1
  S        0.1285310     1.6062780     0.0000000
  O        2.7930710    -1.2979160    -0.0000070
  C       -1.4623200    -0.4344690    -0.0000060
  C       -0.1473770    -0.9544550    -0.0000010
  C        0.8287900     0.0275460     0.0000070
  C       -1.4550206     0.7508428    -0.0000051
  C       -2.7097270    -1.2710250     0.0000050
  C        2.2775230    -0.1819160     0.0000050
  H        0.1093330    -2.0101800    -0.0000030
  H       -2.3118400     1.6133930    -0.0000140
  H       -2.7491870    -1.9153830    -0.8833870
  H       -2.7491970    -1.9153410     0.8834260
  H       -3.6031060    -0.6413200    -0.0000150
  H        2.9043230     0.7325940     0.0000170
units angstrom
no_reorient  #important for SAPT in psi4, default
symmetry c1  #important for SAPT in psi4, default
}

set PROPERTIES_ORIGIN ["COM"]
properties('MP2/aug-cc-pvtz', properties = ['dipole'])
--------------------------------------------------------------------------

    Molecular point group: c1
  Charge       = 0
  Multiplicity = 1
  Basis Set: AUG-CC-PVTZ
    Blend: AUG-CC-PVTZ
  Basis Set: (AUG-CC-PVTZ AUX)
    Blend: AUG-CC-PVTZ-JKFIT

    Orbital Energies [Eh]
    ---------------------

    Doubly Occupied:

       1A    -91.992200     2A    -20.557686     3A    -11.345038
       4A    -11.277379     5A    -11.271353     6A    -11.264407
       7A    -11.243940     8A    -11.235942     9A     -8.992160
      10A     -6.673176    11A     -6.672371    12A     -6.671642
      13A     -1.381834    14A     -1.216959    15A     -1.073017
      16A     -0.993044    17A     -0.954672    18A     -0.884418
      19A     -0.764172    20A     -0.730564    21A     -0.682877
      22A     -0.645903    23A     -0.611046    24A     -0.606828
      25A     -0.586393    26A     -0.554093    27A     -0.546488
      28A     -0.511162    29A     -0.508962    30A     -0.472133
      31A     -0.435105    32A     -0.378977    33A     -0.340600

  @DF-RHF Final Energy:  -703.14097478957581

   => Energetics <=

    Nuclear Repulsion Energy =            406.9954253794899159
    One-Electron Energy =               -1772.1197179843106824
    Two-Electron Energy =                 661.9833178152449591
    Total Energy =                       -703.1409747895758073
  Basis Set: (AUG-CC-PVTZ AUX)
    Blend: AUG-CC-PVTZ-RI
    Molecular point group: c1

    Geometry (in Angstrom), charge = 0, multiplicity = 1:

       Center              X                  Y                   Z               Mass
    ------------   -----------------  -----------------  -----------------  -----------------
         S            0.062654527952     1.593059927430     0.000000229948    31.972071174400
         O            2.727194527952    -1.311134072570    -0.000006770052    15.994914619570
         C           -1.528196472048    -0.447687072570    -0.000005770052    12.000000000000
         C           -0.213253472048    -0.967673072570    -0.000000770052    12.000000000000
         C            0.762913527952     0.014327927430     0.000007229948    12.000000000000
         C           -1.520897072048     0.737624727430    -0.000004870052    12.000000000000
         C           -2.775603472048    -1.284243072570     0.000005229948    12.000000000000
         C            2.211646527952    -0.195134072570     0.000005229948    12.000000000000
         H            0.043456527952    -2.023398072570    -0.000002770052     1.007825032230
         H           -2.377716472048     1.600174927430    -0.000013770052     1.007825032230
         H           -2.815063472048    -1.928601072570    -0.883386770052     1.007825032230
         H           -2.815073472048    -1.928559072570     0.883426229948     1.007825032230
         H           -3.668982472048    -0.654538072570    -0.000014770052     1.007825032230
         H            2.838446527952     0.719375927430     0.000017229948     1.007825032230

  Basis Set: AUG-CC-PVTZ
    Blend: AUG-CC-PVTZ
  Basis Set: (AUG-CC-PVTZ AUX)
    Blend: AUG-CC-PVTZ-JKFIT
	 Reference Energy          =    -703.1409747895758073 [Eh]
	 Singles Energy            =      -0.0000000000000000 [Eh]
	 Same-Spin Energy          =      -0.3819605364758699 [Eh]
	 Opposite-Spin Energy      =      -1.1753367653642273 [Eh]
	 Correlation Energy        =      -1.5572973018400971 [Eh]
	 Total Energy              =    -704.6982720914159017 [Eh]

	 ================> DF-SCS-MP2 Energies <==================
	-----------------------------------------------------------
	 SCS Same-Spin Scale       =       0.3333333333333333 [-]
	 SCS Opposite-Spin Scale   =       1.2000000000000000 [-]
	 SCS Same-Spin Energy      =      -0.1273201788252900 [Eh]
	 SCS Opposite-Spin Energy  =      -1.4104041184370726 [Eh]
	 SCS Correlation Energy    =      -1.5377242972623626 [Eh]
	 SCS Total Energy          =    -704.6786990868381508 [Eh]
	-----------------------------------------------------------

  Dipole Moment: [D]
     X:    -3.0723      Y:     1.2851      Z:     0.0000     Total:     3.3302

*** Psi4 exiting successfully. Buy a developer a beer!
