                               Psi4 1.4a3.dev225

  ==> Input File <==

--------------------------------------------------------------------------
#psi4
#
memory 32 gb

molecule  {
0 1
  S        0.1285310     1.6062780     0.0000000
  O        2.7930710    -1.2979160    -0.0000070
  C       -1.4623200    -0.4344690    -0.0000060
  C       -0.1473770    -0.9544550    -0.0000010
  C        0.8287900     0.0275460     0.0000070
  C       -1.4537890     0.9508390    -0.0000050
  C       -2.7097270    -1.2710250     0.0000050
  C        2.2775230    -0.1819160     0.0000050
  H        0.0975192    -1.9615957    -0.0000029
  H       -2.3118400     1.6133930    -0.0000140
  H       -2.7491870    -1.9153830    -0.8833870
  H       -2.7491970    -1.9153410     0.8834260
  H       -3.6031060    -0.6413200    -0.0000150
  H        2.9043230     0.7325940     0.0000170
units angstrom
no_reorient  #important for SAPT in psi4, default
symmetry c1  #important for SAPT in psi4, default
}

set PROPERTIES_ORIGIN ["COM"]
properties('MP2/aug-cc-pvtz', properties = ['dipole'])
--------------------------------------------------------------------------

    Molecular point group: c1
  Charge       = 0
  Multiplicity = 1
  Basis Set: AUG-CC-PVTZ
    Blend: AUG-CC-PVTZ
  Basis Set: (AUG-CC-PVTZ AUX)
    Blend: AUG-CC-PVTZ-JKFIT

    Orbital Energies [Eh]
    ---------------------

    Doubly Occupied:

       1A    -92.004005     2A    -20.555045     3A    -11.344680
       4A    -11.282859     5A    -11.276074     6A    -11.262712
       7A    -11.255863     8A    -11.242060     9A     -9.004070
      10A     -6.685039    11A     -6.684576    12A     -6.683852
      13A     -1.380062    14A     -1.193935    15A     -1.055171
      16A     -1.011847    17A     -0.947289    18A     -0.866783
      19A     -0.773385    20A     -0.747093    21A     -0.680081
      22A     -0.648341    23A     -0.606840    24A     -0.596661
      25A     -0.591607    26A     -0.553841    27A     -0.540080
      28A     -0.534329    29A     -0.502893    30A     -0.490485
      31A     -0.434466    32A     -0.356362    33A     -0.336490

  @DF-RHF Final Energy:  -703.19599707996690

   => Energetics <=

    Nuclear Repulsion Energy =            404.9366612996244044
    One-Electron Energy =               -1768.0075642745155164
    Two-Electron Energy =                 659.8749058949242681
    Total Energy =                       -703.1959970799669009
  Basis Set: (AUG-CC-PVTZ AUX)
    Blend: AUG-CC-PVTZ-RI
    Molecular point group: c1

    Geometry (in Angstrom), charge = 0, multiplicity = 1:

       Center              X                  Y                   Z               Mass
    ------------   -----------------  -----------------  -----------------  -----------------
         S            0.062631729230     1.573626212782     0.000000219625    31.972071174400
         O            2.727171729230    -1.330567787218    -0.000006780375    15.994914619570
         C           -1.528219270770    -0.467120787218    -0.000005780375    12.000000000000
         C           -0.213276270770    -0.987106787218    -0.000000780375    12.000000000000
         C            0.762890729230    -0.005105787218     0.000007219625    12.000000000000
         C           -1.519688270770     0.918187212782    -0.000004780375    12.000000000000
         C           -2.775626270770    -1.303676787218     0.000005219625    12.000000000000
         C            2.211623729230    -0.214567787218     0.000005219625    12.000000000000
         H            0.031619929230    -1.994247487218    -0.000002680375     1.007825032230
         H           -2.377739270770     1.580741212782    -0.000013780375     1.007825032230
         H           -2.815086270770    -1.948034787218    -0.883386780375     1.007825032230
         H           -2.815096270770    -1.947992787218     0.883426219625     1.007825032230
         H           -3.669005270770    -0.673971787218    -0.000014780375     1.007825032230
         H            2.838423729230     0.699942212782     0.000017219625     1.007825032230

  Basis Set: AUG-CC-PVTZ
    Blend: AUG-CC-PVTZ
  Basis Set: (AUG-CC-PVTZ AUX)
    Blend: AUG-CC-PVTZ-JKFIT
	 Reference Energy          =    -703.1959970799669009 [Eh]
	 Singles Energy            =      -0.0000000000000000 [Eh]
	 Same-Spin Energy          =      -0.3844926322024799 [Eh]
	 Opposite-Spin Energy      =      -1.1765843374232601 [Eh]
	 Correlation Energy        =      -1.5610769696257401 [Eh]
	 Total Energy              =    -704.7570740495926884 [Eh]

	 ================> DF-SCS-MP2 Energies <==================
	-----------------------------------------------------------
	 SCS Same-Spin Scale       =       0.3333333333333333 [-]
	 SCS Opposite-Spin Scale   =       1.2000000000000000 [-]
	 SCS Same-Spin Energy      =      -0.1281642107341600 [Eh]
	 SCS Opposite-Spin Energy  =      -1.4119012049079120 [Eh]
	 SCS Correlation Energy    =      -1.5400654156420721 [Eh]
	 SCS Total Energy          =    -704.7360624956089623 [Eh]
	-----------------------------------------------------------

  Dipole Moment: [D]
     X:    -3.1364      Y:     1.5331      Z:     0.0000     Total:     3.4911

*** Psi4 exiting successfully. Buy a developer a beer!
