                               Psi4 1.4a3.dev225

  ==> Input File <==

--------------------------------------------------------------------------
#psi4
#
memory 32 gb

molecule  {
0 1
  S        0.1285310     1.6062780     0.0000000
  O        2.7930710    -1.2979160    -0.0000070
  C       -1.4623200    -0.4344690    -0.0000060
  C       -0.1473770    -0.9544550    -0.0000010
  C        0.8287900     0.0275460     0.0000070
  C       -1.4537890     0.9508390    -0.0000050
  C       -2.7097270    -1.2710250     0.0000050
  C        2.2973172    -0.1847779     0.0000050
  H        0.1093330    -2.0101800    -0.0000030
  H       -2.3118400     1.6133930    -0.0000140
  H       -2.7491870    -1.9153830    -0.8833870
  H       -2.7491970    -1.9153410     0.8834260
  H       -3.6031060    -0.6413200    -0.0000150
  H        2.9043230     0.7325940     0.0000170
units angstrom
no_reorient  #important for SAPT in psi4, default
symmetry c1  #important for SAPT in psi4, default
}

set PROPERTIES_ORIGIN ["COM"]
properties('MP2/aug-cc-pvtz', properties = ['dipole'])
--------------------------------------------------------------------------

    Molecular point group: c1
  Charge       = 0
  Multiplicity = 1
  Basis Set: AUG-CC-PVTZ
    Blend: AUG-CC-PVTZ
  Basis Set: (AUG-CC-PVTZ AUX)
    Blend: AUG-CC-PVTZ-JKFIT

    Orbital Energies [Eh]
    ---------------------

    Doubly Occupied:

       1A    -92.002785     2A    -20.557618     3A    -11.345540
       4A    -11.281026     5A    -11.276389     6A    -11.261878
       7A    -11.259098     8A    -11.241105     9A     -9.002857
      10A     -6.683834    11A     -6.683371    12A     -6.682644
      13A     -1.388832    14A     -1.191971    15A     -1.052926
      16A     -1.007338    17A     -0.944470    18A     -0.865083
      19A     -0.772480    20A     -0.739273    21A     -0.679126
      22A     -0.652610    23A     -0.604192    24A     -0.595623
      25A     -0.589261    26A     -0.554977    27A     -0.537823
      28A     -0.533046    29A     -0.505404    30A     -0.488994
      31A     -0.434817    32A     -0.355256    33A     -0.335373

  @DF-RHF Final Energy:  -703.19770458117023

   => Energetics <=

    Nuclear Repulsion Energy =            404.4598623287446344
    One-Electron Energy =               -1767.1010970228676342
    Two-Electron Energy =                 659.4435301129526579
    Total Energy =                       -703.1977045811702283
  Basis Set: (AUG-CC-PVTZ AUX)
    Blend: AUG-CC-PVTZ-RI
    Molecular point group: c1

    Geometry (in Angstrom), charge = 0, multiplicity = 1:

       Center              X                  Y                   Z               Mass
    ------------   -----------------  -----------------  -----------------  -----------------
         S            0.060652292262     1.574287308502     0.000000220425    31.972071174400
         O            2.725192292262    -1.329906691498    -0.000006779575    15.994914619570
         C           -1.530198707738    -0.466459691498    -0.000005779575    12.000000000000
         C           -0.215255707738    -0.986445691498    -0.000000779575    12.000000000000
         C            0.760911292262    -0.004444691498     0.000007220425    12.000000000000
         C           -1.521667707738     0.918848308502    -0.000004779575    12.000000000000
         C           -2.777605707738    -1.303015691498     0.000005220425    12.000000000000
         C            2.229438492262    -0.216768591498     0.000005220425    12.000000000000
         H            0.041454292262    -2.042170691498    -0.000002779575     1.007825032230
         H           -2.379718707738     1.581402308502    -0.000013779575     1.007825032230
         H           -2.817065707738    -1.947373691498    -0.883386779575     1.007825032230
         H           -2.817075707738    -1.947331691498     0.883426220425     1.007825032230
         H           -3.670984707738    -0.673310691498    -0.000014779575     1.007825032230
         H            2.836444292262     0.700603308502     0.000017220425     1.007825032230

  Basis Set: AUG-CC-PVTZ
    Blend: AUG-CC-PVTZ
  Basis Set: (AUG-CC-PVTZ AUX)
    Blend: AUG-CC-PVTZ-JKFIT
	 Reference Energy          =    -703.1977045811702283 [Eh]
	 Singles Energy            =      -0.0000000000000000 [Eh]
	 Same-Spin Energy          =      -0.3841496050561648 [Eh]
	 Opposite-Spin Energy      =      -1.1761042686556131 [Eh]
	 Correlation Energy        =      -1.5602538737117779 [Eh]
	 Total Energy              =    -704.7579584548819867 [Eh]

	 ================> DF-SCS-MP2 Energies <==================
	-----------------------------------------------------------
	 SCS Same-Spin Scale       =       0.3333333333333333 [-]
	 SCS Opposite-Spin Scale   =       1.2000000000000000 [-]
	 SCS Same-Spin Energy      =      -0.1280498683520549 [Eh]
	 SCS Opposite-Spin Energy  =      -1.4113251223867358 [Eh]
	 SCS Correlation Energy    =      -1.5393749907387908 [Eh]
	 SCS Total Energy          =    -704.7370795719090211 [Eh]
	-----------------------------------------------------------

  Dipole Moment: [D]
     X:    -2.9634      Y:     1.4868      Z:     0.0000     Total:     3.3154

*** Psi4 exiting successfully. Buy a developer a beer!
