                               Psi4 1.4a3.dev225

  ==> Input File <==

--------------------------------------------------------------------------
#psi4
#
memory 32 gb

molecule  {
0 1
  S        0.1285310     1.6062780     0.0000000
  O        2.7930710    -1.2979160    -0.0000070
  C       -1.4623200    -0.4344690    -0.0000060
  C       -0.1473770    -0.9544550    -0.0000010
  C        0.8287900     0.0275460     0.0000070
  C       -1.4999828     0.9317043    -0.0000051
  C       -2.7097270    -1.2710250     0.0000050
  C        2.2775230    -0.1819160     0.0000050
  H        0.1093330    -2.0101800    -0.0000030
  H       -2.3118400     1.6133930    -0.0000140
  H       -2.7491870    -1.9153830    -0.8833870
  H       -2.7491970    -1.9153410     0.8834260
  H       -3.6031060    -0.6413200    -0.0000150
  H        2.9043230     0.7325940     0.0000170
units angstrom
no_reorient  #important for SAPT in psi4, default
symmetry c1  #important for SAPT in psi4, default
}

set PROPERTIES_ORIGIN ["COM"]
properties('MP2/aug-cc-pvtz', properties = ['dipole'])
--------------------------------------------------------------------------

    Molecular point group: c1
  Charge       = 0
  Multiplicity = 1
  Basis Set: AUG-CC-PVTZ
    Blend: AUG-CC-PVTZ
  Basis Set: (AUG-CC-PVTZ AUX)
    Blend: AUG-CC-PVTZ-JKFIT

    Orbital Energies [Eh]
    ---------------------

    Doubly Occupied:

       1A    -92.001220     2A    -20.557293     3A    -11.346035
       4A    -11.282496     5A    -11.278618     6A    -11.263075
       7A    -11.261706     8A    -11.241478     9A     -9.000621
      10A     -6.681583    11A     -6.681063    12A     -6.680397
      13A     -1.381818    14A     -1.190806    15A     -1.057335
      16A     -1.004439    17A     -0.946740    18A     -0.870053
      19A     -0.777030    20A     -0.740533    21A     -0.679414
      22A     -0.649619    23A     -0.606820    24A     -0.596763
      25A     -0.594511    26A     -0.553469    27A     -0.541936
      28A     -0.528899    29A     -0.501113    30A     -0.482443
      31A     -0.436274    32A     -0.355457    33A     -0.339564

  @DF-RHF Final Energy:  -703.19534682018570

   => Energetics <=

    Nuclear Repulsion Energy =            404.0007849498269934
    One-Electron Energy =               -1766.1710248915235297
    Two-Electron Energy =                 658.9748931215108314
    Total Energy =                       -703.1953468201857049
  Basis Set: (AUG-CC-PVTZ AUX)
    Blend: AUG-CC-PVTZ-RI
    Molecular point group: c1

    Geometry (in Angstrom), charge = 0, multiplicity = 1:

       Center              X                  Y                   Z               Mass
    ------------   -----------------  -----------------  -----------------  -----------------
         S            0.066936168675     1.575836927585     0.000000229948    31.972071174400
         O            2.731476168675    -1.328357072415    -0.000006770052    15.994914619570
         C           -1.523914831325    -0.464910072415    -0.000005770052    12.000000000000
         C           -0.208971831325    -0.984896072415    -0.000000770052    12.000000000000
         C            0.767195168675    -0.002895072415     0.000007229948    12.000000000000
         C           -1.561577631325     0.901263227585    -0.000004870052    12.000000000000
         C           -2.771321831325    -1.301466072415     0.000005229948    12.000000000000
         C            2.215928168675    -0.212357072415     0.000005229948    12.000000000000
         H            0.047738168675    -2.040621072415    -0.000002770052     1.007825032230
         H           -2.373434831325     1.582951927585    -0.000013770052     1.007825032230
         H           -2.810781831325    -1.945824072415    -0.883386770052     1.007825032230
         H           -2.810791831325    -1.945782072415     0.883426229948     1.007825032230
         H           -3.664700831325    -0.671761072415    -0.000014770052     1.007825032230
         H            2.842728168675     0.702152927585     0.000017229948     1.007825032230

  Basis Set: AUG-CC-PVTZ
    Blend: AUG-CC-PVTZ
  Basis Set: (AUG-CC-PVTZ AUX)
    Blend: AUG-CC-PVTZ-JKFIT
	 Reference Energy          =    -703.1953468201857049 [Eh]
	 Singles Energy            =      -0.0000000000000000 [Eh]
	 Same-Spin Energy          =      -0.3839501602528521 [Eh]
	 Opposite-Spin Energy      =      -1.1767799128671772 [Eh]
	 Correlation Energy        =      -1.5607300731200293 [Eh]
	 Total Energy              =    -704.7560768933057034 [Eh]

	 ================> DF-SCS-MP2 Energies <==================
	-----------------------------------------------------------
	 SCS Same-Spin Scale       =       0.3333333333333333 [-]
	 SCS Opposite-Spin Scale   =       1.2000000000000000 [-]
	 SCS Same-Spin Energy      =      -0.1279833867509507 [Eh]
	 SCS Opposite-Spin Energy  =      -1.4121358954406127 [Eh]
	 SCS Correlation Energy    =      -1.5401192821915635 [Eh]
	 SCS Total Energy          =    -704.7354661023772451 [Eh]
	-----------------------------------------------------------

  Dipole Moment: [D]
     X:    -3.1137      Y:     1.4570      Z:     0.0000     Total:     3.4378

*** Psi4 exiting successfully. Buy a developer a beer!
