                               Psi4 1.4a3.dev225

  ==> Input File <==

--------------------------------------------------------------------------
#psi4
#
memory 32 gb

molecule  {
0 1
  S        0.1285310     1.6062780     0.0000000
  O        2.7930710    -1.2979160    -0.0000070
  C       -1.4623200    -0.4344690    -0.0000060
  C       -0.1473770    -0.9544550    -0.0000010
  C        0.8287900     0.0275460     0.0000070
  C       -1.4353115     0.9584929    -0.0000049
  C       -2.7097270    -1.2710250     0.0000050
  C        2.2775230    -0.1819160     0.0000050
  H        0.1093330    -2.0101800    -0.0000030
  H       -2.3118400     1.6133930    -0.0000140
  H       -2.7491870    -1.9153830    -0.8833870
  H       -2.7491970    -1.9153410     0.8834260
  H       -3.6031060    -0.6413200    -0.0000150
  H        2.9043230     0.7325940     0.0000170
units angstrom
no_reorient  #important for SAPT in psi4, default
symmetry c1  #important for SAPT in psi4, default
}

set PROPERTIES_ORIGIN ["COM"]
properties('MP2/aug-cc-pvtz', properties = ['dipole'])
--------------------------------------------------------------------------

    Molecular point group: c1
  Charge       = 0
  Multiplicity = 1
  Basis Set: AUG-CC-PVTZ
    Blend: AUG-CC-PVTZ
  Basis Set: (AUG-CC-PVTZ AUX)
    Blend: AUG-CC-PVTZ-JKFIT

    Orbital Energies [Eh]
    ---------------------

    Doubly Occupied:

       1A    -92.005235     2A    -20.553953     3A    -11.344027
       4A    -11.283428     5A    -11.275210     6A    -11.263233
       7A    -11.260837     8A    -11.242225     9A     -9.005619
      10A     -6.686606    11A     -6.686132    12A     -6.685390
      13A     -1.379166    14A     -1.195237    15A     -1.054556
      16A     -1.012101    17A     -0.946443    18A     -0.864770
      19A     -0.771410    20A     -0.739640    21A     -0.679195
      22A     -0.647123    23A     -0.604606    24A     -0.596613
      25A     -0.587251    26A     -0.554029    27A     -0.537513
      28A     -0.535359    29A     -0.503685    30A     -0.492543
      31A     -0.433631    32A     -0.357227    33A     -0.335016

  @DF-RHF Final Energy:  -703.19600743623255

   => Energetics <=

    Nuclear Repulsion Energy =            404.9499491656087571
    One-Electron Energy =               -1768.0538952550373324
    Two-Electron Energy =                 659.9079386531959699
    Total Energy =                       -703.1960074362325486
  Basis Set: (AUG-CC-PVTZ AUX)
    Blend: AUG-CC-PVTZ-RI
    Molecular point group: c1

    Geometry (in Angstrom), charge = 0, multiplicity = 1:

       Center              X                  Y                   Z               Mass
    ------------   -----------------  -----------------  -----------------  -----------------
         S            0.060777678394     1.573285914497     0.000000210902    31.972071174400
         O            2.725317678394    -1.330908085503    -0.000006789098    15.994914619570
         C           -1.530073321606    -0.467461085503    -0.000005789098    12.000000000000
         C           -0.215130321606    -0.987447085503    -0.000000789098    12.000000000000
         C            0.761036678394    -0.005446085503     0.000007210902    12.000000000000
         C           -1.503064821606     0.925500814497    -0.000004689098    12.000000000000
         C           -2.777480321606    -1.304017085503     0.000005210902    12.000000000000
         C            2.209769678394    -0.214908085503     0.000005210902    12.000000000000
         H            0.041579678394    -2.043172085503    -0.000002789098     1.007825032230
         H           -2.379593321606     1.580400914497    -0.000013789098     1.007825032230
         H           -2.816940321606    -1.948375085503    -0.883386789098     1.007825032230
         H           -2.816950321606    -1.948333085503     0.883426210902     1.007825032230
         H           -3.670859321606    -0.674312085503    -0.000014789098     1.007825032230
         H            2.836569678394     0.699601914497     0.000017210902     1.007825032230

  Basis Set: AUG-CC-PVTZ
    Blend: AUG-CC-PVTZ
  Basis Set: (AUG-CC-PVTZ AUX)
    Blend: AUG-CC-PVTZ-JKFIT
	 Reference Energy          =    -703.1960074362325486 [Eh]
	 Singles Energy            =      -0.0000000000000000 [Eh]
	 Same-Spin Energy          =      -0.3849377078158995 [Eh]
	 Opposite-Spin Energy      =      -1.1769874897808377 [Eh]
	 Correlation Energy        =      -1.5619251975967372 [Eh]
	 Total Energy              =    -704.7579326338293413 [Eh]

	 ================> DF-SCS-MP2 Energies <==================
	-----------------------------------------------------------
	 SCS Same-Spin Scale       =       0.3333333333333333 [-]
	 SCS Opposite-Spin Scale   =       1.2000000000000000 [-]
	 SCS Same-Spin Energy      =      -0.1283125692719665 [Eh]
	 SCS Opposite-Spin Energy  =      -1.4123849877370052 [Eh]
	 SCS Correlation Energy    =      -1.5406975570089716 [Eh]
	 SCS Total Energy          =    -704.7367049932415739 [Eh]
	-----------------------------------------------------------

  Dipole Moment: [D]
     X:    -3.1451      Y:     1.5573      Z:     0.0000     Total:     3.5096

*** Psi4 exiting successfully. Buy a developer a beer!
