                               Psi4 1.4a3.dev225

  ==> Input File <==

--------------------------------------------------------------------------
#psi4
#
memory 32 gb

molecule  {
0 1
  S        0.1285310     1.6062780     0.0000000
  O        2.7930710    -1.2979160    -0.0000070
  C       -1.4623200    -0.4344690    -0.0000060
  C       -0.1473770    -0.9544550    -0.0000010
  C        0.8287900     0.0275460     0.0000070
  C       -1.4537890     0.9508390    -0.0000050
  C       -2.7097270    -1.2710250     0.0000050
  C        2.2775230    -0.1819160     0.0000050
  H        0.1093330    -2.0101800    -0.0000030
  H       -2.3118400     1.6133930    -0.0000140
  H       -2.7491870    -1.9153830    -0.8833870
  H       -2.7564118    -2.0331172     1.0449088
  H       -3.6031060    -0.6413200    -0.0000150
  H        2.9043230     0.7325940     0.0000170
units angstrom
no_reorient  #important for SAPT in psi4, default
symmetry c1  #important for SAPT in psi4, default
}

set PROPERTIES_ORIGIN ["COM"]
properties('MP2/aug-cc-pvtz', properties = ['dipole'])
--------------------------------------------------------------------------

    Molecular point group: c1
  Charge       = 0
  Multiplicity = 1
  Basis Set: AUG-CC-PVTZ
    Blend: AUG-CC-PVTZ
  Basis Set: (AUG-CC-PVTZ AUX)
    Blend: AUG-CC-PVTZ-JKFIT

    Orbital Energies [Eh]
    ---------------------

    Doubly Occupied:

       1A    -92.005205     2A    -20.555571     3A    -11.345238
       4A    -11.284782     5A    -11.276996     6A    -11.265107
       7A    -11.264109     8A    -11.262024     9A     -9.005260
      10A     -6.686228    11A     -6.685761    12A     -6.685031
      13A     -1.380528    14A     -1.194764    15A     -1.052765
      16A     -1.010534    17A     -0.938775    18A     -0.864921
      19A     -0.773398    20A     -0.740308    21A     -0.678908
      22A     -0.648477    23A     -0.605426    24A     -0.591231
      25A     -0.577997    26A     -0.549395    27A     -0.537869
      28A     -0.527692    29A     -0.499687    30A     -0.488160
      31A     -0.435069    32A     -0.356308    33A     -0.337042

  @DF-RHF Final Energy:  -703.17691056972967

   => Energetics <=

    Nuclear Repulsion Energy =            403.9010986424527232
    One-Electron Energy =               -1765.9348851578911308
    Two-Electron Energy =                 658.8568759457086799
    Total Energy =                       -703.1769105697296709
  Basis Set: (AUG-CC-PVTZ AUX)
    Blend: AUG-CC-PVTZ-RI
    Molecular point group: c1

    Geometry (in Angstrom), charge = 0, multiplicity = 1:

       Center              X                  Y                   Z               Mass
    ------------   -----------------  -----------------  -----------------  -----------------
         S            0.062594947685     1.574956718610    -0.001291274891    31.972071174400
         O            2.727134947685    -1.329237281390    -0.001298274891    15.994914619570
         C           -1.528256052315    -0.465790281390    -0.001297274891    12.000000000000
         C           -0.213313052315    -0.985776281390    -0.001292274891    12.000000000000
         C            0.762853947685    -0.003775281390    -0.001284274891    12.000000000000
         C           -1.519725052315     0.919517718610    -0.001296274891    12.000000000000
         C           -2.775663052315    -1.302346281390    -0.001286274891    12.000000000000
         C            2.211586947685    -0.213237281390    -0.001286274891    12.000000000000
         H            0.043396947685    -2.041501281390    -0.001294274891     1.007825032230
         H           -2.377776052315     1.582071718610    -0.001305274891     1.007825032230
         H           -2.815123052315    -1.946704281390    -0.884678274891     1.007825032230
         H           -2.822347852315    -2.064438481390     1.043617525109     1.007825032230
         H           -3.669042052315    -0.672641281390    -0.001306274891     1.007825032230
         H            2.838386947685     0.701272718610    -0.001274274891     1.007825032230

  Basis Set: AUG-CC-PVTZ
    Blend: AUG-CC-PVTZ
  Basis Set: (AUG-CC-PVTZ AUX)
    Blend: AUG-CC-PVTZ-JKFIT
	 Reference Energy          =    -703.1769105697296709 [Eh]
	 Singles Energy            =      -0.0000000000000000 [Eh]
	 Same-Spin Energy          =      -0.3845498721989464 [Eh]
	 Opposite-Spin Energy      =      -1.1782994489657461 [Eh]
	 Correlation Energy        =      -1.5628493211646926 [Eh]
	 Total Energy              =    -704.7397598908943337 [Eh]

	 ================> DF-SCS-MP2 Energies <==================
	-----------------------------------------------------------
	 SCS Same-Spin Scale       =       0.3333333333333333 [-]
	 SCS Opposite-Spin Scale   =       1.2000000000000000 [-]
	 SCS Same-Spin Energy      =      -0.1281832907329821 [Eh]
	 SCS Opposite-Spin Energy  =      -1.4139593387588953 [Eh]
	 SCS Correlation Energy    =      -1.5421426294918774 [Eh]
	 SCS Total Energy          =    -704.7190531992215483 [Eh]
	-----------------------------------------------------------

  Dipole Moment: [D]
     X:    -3.0535      Y:     1.6188      Z:    -0.0690     Total:     3.4567

*** Psi4 exiting successfully. Buy a developer a beer!
