                               Psi4 1.4a3.dev225

  ==> Input File <==

--------------------------------------------------------------------------
#psi4
#
memory 32 gb

molecule  {
0 1
  S        0.1285310     1.6062780     0.0000000
  O        2.7930710    -1.2979160    -0.0000070
  C       -1.4623200    -0.4344690    -0.0000060
  C       -0.1473770    -0.9544550    -0.0000010
  C        0.8287900     0.0275460     0.0000070
  C       -1.5461765     0.9125696    -0.0000053
  C       -2.7097270    -1.2710250     0.0000050
  C        2.2775230    -0.1819160     0.0000050
  H        0.1093330    -2.0101800    -0.0000030
  H       -2.3118400     1.6133930    -0.0000140
  H       -2.7491870    -1.9153830    -0.8833870
  H       -2.7491970    -1.9153410     0.8834260
  H       -3.6031060    -0.6413200    -0.0000150
  H        2.9043230     0.7325940     0.0000170
units angstrom
no_reorient  #important for SAPT in psi4, default
symmetry c1  #important for SAPT in psi4, default
}

set PROPERTIES_ORIGIN ["COM"]
properties('MP2/aug-cc-pvtz', properties = ['dipole'])
--------------------------------------------------------------------------

    Molecular point group: c1
  Charge       = 0
  Multiplicity = 1
  Basis Set: AUG-CC-PVTZ
    Blend: AUG-CC-PVTZ
  Basis Set: (AUG-CC-PVTZ AUX)
    Blend: AUG-CC-PVTZ-JKFIT

    Orbital Energies [Eh]
    ---------------------

    Doubly Occupied:

       1A    -91.997893     2A    -20.559473     3A    -11.347283
       4A    -11.282492     5A    -11.280906     6A    -11.263391
       7A    -11.262186     8A    -11.241157     9A     -8.996837
      10A     -6.677813    11A     -6.677192    12A     -6.676593
      13A     -1.383535    14A     -1.188582    15A     -1.060013
      16A     -0.999344    17A     -0.946871    18A     -0.873225
      19A     -0.781355    20A     -0.742188    21A     -0.679622
      22A     -0.651151    23A     -0.611613    24A     -0.597129
      25A     -0.596368    26A     -0.553297    27A     -0.544696
      28A     -0.524903    29A     -0.499479    30A     -0.472798
      31A     -0.437928    32A     -0.356643    33A     -0.340517

  @DF-RHF Final Energy:  -703.18980920683282

   => Energetics <=

    Nuclear Repulsion Energy =            403.3660518077618917
    One-Electron Energy =               -1764.9027745856817546
    Two-Electron Energy =                 658.3469135710869296
    Total Energy =                       -703.1898092068328197
  Basis Set: (AUG-CC-PVTZ AUX)
    Blend: AUG-CC-PVTZ-RI
    Molecular point group: c1

    Geometry (in Angstrom), charge = 0, multiplicity = 1:

       Center              X                  Y                   Z               Mass
    ------------   -----------------  -----------------  -----------------  -----------------
         S            0.071335082142     1.577659078431     0.000000248993    31.972071174400
         O            2.735875082142    -1.326534921569    -0.000006751007    15.994914619570
         C           -1.519515917858    -0.463087921569    -0.000005751007    12.000000000000
         C           -0.204572917858    -0.983073921569    -0.000000751007    12.000000000000
         C            0.771594082142    -0.001072921569     0.000007248993    12.000000000000
         C           -1.603372417858     0.883950678431    -0.000005051007    12.000000000000
         C           -2.766922917858    -1.299643921569     0.000005248993    12.000000000000
         C            2.220327082142    -0.210534921569     0.000005248993    12.000000000000
         H            0.052137082142    -2.038798921569    -0.000002751007     1.007825032230
         H           -2.369035917858     1.584774078431    -0.000013751007     1.007825032230
         H           -2.806382917858    -1.944001921569    -0.883386751007     1.007825032230
         H           -2.806392917858    -1.943959921569     0.883426248993     1.007825032230
         H           -3.660301917858    -0.669938921569    -0.000014751007     1.007825032230
         H            2.847127082142     0.703975078431     0.000017248993     1.007825032230

  Basis Set: AUG-CC-PVTZ
    Blend: AUG-CC-PVTZ
  Basis Set: (AUG-CC-PVTZ AUX)
    Blend: AUG-CC-PVTZ-JKFIT
	 Reference Energy          =    -703.1898092068328197 [Eh]
	 Singles Energy            =      -0.0000000000000000 [Eh]
	 Same-Spin Energy          =      -0.3834498196176963 [Eh]
	 Opposite-Spin Energy      =      -1.1769198337272453 [Eh]
	 Correlation Energy        =      -1.5603696533449416 [Eh]
	 Total Energy              =    -704.7501788601778117 [Eh]

	 ================> DF-SCS-MP2 Energies <==================
	-----------------------------------------------------------
	 SCS Same-Spin Scale       =       0.3333333333333333 [-]
	 SCS Opposite-Spin Scale   =       1.2000000000000000 [-]
	 SCS Same-Spin Energy      =      -0.1278166065392321 [Eh]
	 SCS Opposite-Spin Energy  =      -1.4123038004726942 [Eh]
	 SCS Correlation Energy    =      -1.5401204070119263 [Eh]
	 SCS Total Energy          =    -704.7299296138447744 [Eh]
	-----------------------------------------------------------

  Dipole Moment: [D]
     X:    -3.1098      Y:     1.3808      Z:     0.0000     Total:     3.4025

*** Psi4 exiting successfully. Buy a developer a beer!
