                               Psi4 1.4a3.dev225

  ==> Input File <==

--------------------------------------------------------------------------
#psi4
#
memory 32 gb

molecule  {
0 1
  S        0.1285310     1.6062780     0.0000000
  O        2.7930710    -1.2979160    -0.0000070
  C       -1.4623200    -0.4344690    -0.0000060
  C       -0.1473770    -0.9544550    -0.0000010
  C        0.8287900     0.0275460     0.0000070
  C       -1.4722665     0.9431851    -0.0000051
  C       -2.7097270    -1.2710250     0.0000050
  C        2.2775230    -0.1819160     0.0000050
  H        0.1093330    -2.0101800    -0.0000030
  H       -2.3118400     1.6133930    -0.0000140
  H       -2.7491870    -1.9153830    -0.8833870
  H       -2.7491970    -1.9153410     0.8834260
  H       -3.6031060    -0.6413200    -0.0000150
  H        2.9043230     0.7325940     0.0000170
units angstrom
no_reorient  #important for SAPT in psi4, default
symmetry c1  #important for SAPT in psi4, default
}

set PROPERTIES_ORIGIN ["COM"]
properties('MP2/aug-cc-pvtz', properties = ['dipole'])
--------------------------------------------------------------------------

    Molecular point group: c1
  Charge       = 0
  Multiplicity = 1
  Basis Set: AUG-CC-PVTZ
    Blend: AUG-CC-PVTZ
  Basis Set: (AUG-CC-PVTZ AUX)
    Blend: AUG-CC-PVTZ-JKFIT

    Orbital Energies [Eh]
    ---------------------

    Doubly Occupied:

       1A    -92.003026     2A    -20.555904     3A    -11.345212
       4A    -11.282781     5A    -11.277188     6A    -11.263054
       7A    -11.261374     8A    -11.241765     9A     -9.002795
      10A     -6.683756    11A     -6.683281    12A     -6.682575
      13A     -1.380718    14A     -1.192494    15A     -1.055971
      16A     -1.007685    17A     -0.946637    18A     -0.867909
      19A     -0.774568    20A     -0.739941    21A     -0.679311
      22A     -0.648599    23A     -0.605319    24A     -0.596650
      25A     -0.591922    26A     -0.553653    27A     -0.540103
      28A     -0.531571    29A     -0.502177    30A     -0.487312
      31A     -0.435191    32A     -0.355804    33A     -0.337986

  @DF-RHF Final Energy:  -703.19672250798101

   => Energetics <=

    Nuclear Repulsion Energy =            404.3981097050094036
    One-Electron Energy =               -1766.9612029934669408
    Two-Electron Energy =                 659.3663707804765863
    Total Energy =                       -703.1967225079810078
  Basis Set: (AUG-CC-PVTZ AUX)
    Blend: AUG-CC-PVTZ-RI
    Molecular point group: c1

    Geometry (in Angstrom), charge = 0, multiplicity = 1:

       Center              X                  Y                   Z               Mass
    ------------   -----------------  -----------------  -----------------  -----------------
         S            0.064296812977     1.574743638982     0.000000229948    31.972071174400
         O            2.728836812977    -1.329450361018    -0.000006770052    15.994914619570
         C           -1.526554187023    -0.466003361018    -0.000005770052    12.000000000000
         C           -0.211611187023    -0.985989361018    -0.000000770052    12.000000000000
         C            0.764555812977    -0.003988361018     0.000007229948    12.000000000000
         C           -1.536500687023     0.911650738982    -0.000004870052    12.000000000000
         C           -2.773961187023    -1.302559361018     0.000005229948    12.000000000000
         C            2.213288812977    -0.213450361018     0.000005229948    12.000000000000
         H            0.045098812977    -2.041714361018    -0.000002770052     1.007825032230
         H           -2.376074187023     1.581858638982    -0.000013770052     1.007825032230
         H           -2.813421187023    -1.946917361018    -0.883386770052     1.007825032230
         H           -2.813431187023    -1.946875361018     0.883426229948     1.007825032230
         H           -3.667340187023    -0.672854361018    -0.000014770052     1.007825032230
         H            2.840088812977     0.701059638982     0.000017229948     1.007825032230

  Basis Set: AUG-CC-PVTZ
    Blend: AUG-CC-PVTZ
  Basis Set: (AUG-CC-PVTZ AUX)
    Blend: AUG-CC-PVTZ-JKFIT
	 Reference Energy          =    -703.1967225079810078 [Eh]
	 Singles Energy            =      -0.0000000000000000 [Eh]
	 Same-Spin Energy          =      -0.3843337245055216 [Eh]
	 Opposite-Spin Energy      =      -1.1768098948766033 [Eh]
	 Correlation Energy        =      -1.5611436193821249 [Eh]
	 Total Energy              =    -704.7578661273631724 [Eh]

	 ================> DF-SCS-MP2 Energies <==================
	-----------------------------------------------------------
	 SCS Same-Spin Scale       =       0.3333333333333333 [-]
	 SCS Opposite-Spin Scale   =       1.2000000000000000 [-]
	 SCS Same-Spin Energy      =      -0.1281112415018405 [Eh]
	 SCS Opposite-Spin Energy  =      -1.4121718738519238 [Eh]
	 SCS Correlation Energy    =      -1.5402831153537644 [Eh]
	 SCS Total Energy          =    -704.7370056233347668 [Eh]
	-----------------------------------------------------------

  Dipole Moment: [D]
     X:    -3.1236      Y:     1.5009      Z:     0.0000     Total:     3.4655

*** Psi4 exiting successfully. Buy a developer a beer!
