                               Psi4 1.4a3.dev225

  ==> Input File <==

--------------------------------------------------------------------------
#psi4
#
memory 32 gb

molecule  {
0 1
  S        0.1285310     1.6062780     0.0000000
  O        2.7930710    -1.2979160    -0.0000070
  C       -1.4623200    -0.4344690    -0.0000060
  C       -0.1473770    -0.9544550    -0.0000010
  C        0.8287900     0.0275460     0.0000070
  C       -1.4537890     0.9508390    -0.0000050
  C       -2.7097270    -1.2710250     0.0000050
  C        2.1785521    -0.1676065     0.0000051
  H        0.1093330    -2.0101800    -0.0000030
  H       -2.3118400     1.6133930    -0.0000140
  H       -2.7491870    -1.9153830    -0.8833870
  H       -2.7491970    -1.9153410     0.8834260
  H       -3.6031060    -0.6413200    -0.0000150
  H        2.9043230     0.7325940     0.0000170
units angstrom
no_reorient  #important for SAPT in psi4, default
symmetry c1  #important for SAPT in psi4, default
}

set PROPERTIES_ORIGIN ["COM"]
properties('MP2/aug-cc-pvtz', properties = ['dipole'])
--------------------------------------------------------------------------

    Molecular point group: c1
  Charge       = 0
  Multiplicity = 1
  Basis Set: AUG-CC-PVTZ
    Blend: AUG-CC-PVTZ
  Basis Set: (AUG-CC-PVTZ AUX)
    Blend: AUG-CC-PVTZ-JKFIT

    Orbital Energies [Eh]
    ---------------------

    Doubly Occupied:

       1A    -92.011023     2A    -20.539927     3A    -11.339019
       4A    -11.294451     5A    -11.273420     6A    -11.272131
       7A    -11.269196     8A    -11.246688     9A     -9.011045
      10A     -6.691967    11A     -6.691487    12A     -6.690758
      13A     -1.335302    14A     -1.203387    15A     -1.069038
      16A     -1.023242    17A     -0.957627    18A     -0.875885
      19A     -0.776497    20A     -0.740640    21A     -0.677387
      22A     -0.630168    23A     -0.608673    24A     -0.602126
      25A     -0.589623    26A     -0.554709    27A     -0.544550
      28A     -0.532215    29A     -0.495401    30A     -0.486677
      31A     -0.425562    32A     -0.362266    33A     -0.341805

  @DF-RHF Final Energy:  -703.17654142859055

   => Energetics <=

    Nuclear Repulsion Energy =            405.8294550367772899
    One-Electron Energy =               -1769.6842102940354380
    Two-Electron Energy =                 660.6782138286675945
    Total Energy =                       -703.1765414285905536
  Basis Set: (AUG-CC-PVTZ AUX)
    Blend: AUG-CC-PVTZ-RI
    Molecular point group: c1

    Geometry (in Angstrom), charge = 0, multiplicity = 1:

       Center              X                  Y                   Z               Mass
    ------------   -----------------  -----------------  -----------------  -----------------
         S            0.071962003278     1.572652117930     0.000000210902    31.972071174400
         O            2.736502003278    -1.331541882070    -0.000006789098    15.994914619570
         C           -1.518888996722    -0.468094882070    -0.000005789098    12.000000000000
         C           -0.203945996722    -0.988080882070    -0.000000789098    12.000000000000
         C            0.772221003278    -0.006079882070     0.000007210902    12.000000000000
         C           -1.510357996722     0.917213117930    -0.000004789098    12.000000000000
         C           -2.766295996722    -1.304650882070     0.000005210902    12.000000000000
         C            2.121983103278    -0.201232382070     0.000005310902    12.000000000000
         H            0.052764003278    -2.043805882070    -0.000002789098     1.007825032230
         H           -2.368408996722     1.579767117930    -0.000013789098     1.007825032230
         H           -2.805755996722    -1.949008882070    -0.883386789098     1.007825032230
         H           -2.805765996722    -1.948966882070     0.883426210902     1.007825032230
         H           -3.659674996722    -0.674945882070    -0.000014789098     1.007825032230
         H            2.847754003278     0.698968117930     0.000017210902     1.007825032230

  Basis Set: AUG-CC-PVTZ
    Blend: AUG-CC-PVTZ
  Basis Set: (AUG-CC-PVTZ AUX)
    Blend: AUG-CC-PVTZ-JKFIT
	 Reference Energy          =    -703.1765414285905536 [Eh]
	 Singles Energy            =      -0.0000000000000000 [Eh]
	 Same-Spin Energy          =      -0.3875203826347255 [Eh]
	 Opposite-Spin Energy      =      -1.1816371377489545 [Eh]
	 Correlation Energy        =      -1.5691575203836801 [Eh]
	 Total Energy              =    -704.7456989489742227 [Eh]

	 ================> DF-SCS-MP2 Energies <==================
	-----------------------------------------------------------
	 SCS Same-Spin Scale       =       0.3333333333333333 [-]
	 SCS Opposite-Spin Scale   =       1.2000000000000000 [-]
	 SCS Same-Spin Energy      =      -0.1291734608782418 [Eh]
	 SCS Opposite-Spin Energy  =      -1.4179645652987454 [Eh]
	 SCS Correlation Energy    =      -1.5471380261769871 [Eh]
	 SCS Total Energy          =    -704.7236794547675345 [Eh]
	-----------------------------------------------------------

  Dipole Moment: [D]
     X:    -3.9313      Y:     1.7265      Z:     0.0000     Total:     4.2937

*** Psi4 exiting successfully. Buy a developer a beer!
