                               Psi4 1.4a3.dev225

  ==> Input File <==

--------------------------------------------------------------------------
#psi4
#
memory 32 gb

molecule  {
0 1
  S        0.1285310     1.6062780     0.0000000
  O        2.7930710    -1.2979160    -0.0000070
  C       -1.4623200    -0.4344690    -0.0000060
  C       -0.1473770    -0.9544550    -0.0000010
  C        0.8287900     0.0275460     0.0000070
  C       -1.4537890     0.9508390    -0.0000050
  C       -2.7097270    -1.2710250     0.0000050
  C        2.2775230    -0.1819160     0.0000050
  H        0.1093330    -2.0101800    -0.0000030
  H       -2.3118400     1.6133930    -0.0000140
  H       -2.7491870    -1.9153830    -0.8833870
  H       -2.7473933    -1.8858969     0.8430553
  H       -3.6031060    -0.6413200    -0.0000150
  H        2.9043230     0.7325940     0.0000170
units angstrom
no_reorient  #important for SAPT in psi4, default
symmetry c1  #important for SAPT in psi4, default
}

set PROPERTIES_ORIGIN ["COM"]
properties('MP2/aug-cc-pvtz', properties = ['dipole'])
--------------------------------------------------------------------------

    Molecular point group: c1
  Charge       = 0
  Multiplicity = 1
  Basis Set: AUG-CC-PVTZ
    Blend: AUG-CC-PVTZ
  Basis Set: (AUG-CC-PVTZ AUX)
    Blend: AUG-CC-PVTZ-JKFIT

    Orbital Energies [Eh]
    ---------------------

    Doubly Occupied:

       1A    -92.004006     2A    -20.554839     3A    -11.344534
       4A    -11.282812     5A    -11.276083     6A    -11.262776
       7A    -11.260981     8A    -11.235957     9A     -9.004064
      10A     -6.685033    11A     -6.684570    12A     -6.683843
      13A     -1.379861    14A     -1.193683    15A     -1.056581
      16A     -1.009874    17A     -0.949665    18A     -0.866994
      19A     -0.773049    20A     -0.739684    21A     -0.679775
      22A     -0.647815    23A     -0.608497    24A     -0.600179
      25A     -0.589450    26A     -0.554971    27A     -0.539191
      28A     -0.533478    29A     -0.503352    30A     -0.490197
      31A     -0.434323    32A     -0.356474    33A     -0.336545

  @DF-RHF Final Energy:  -703.19573992367566

   => Energetics <=

    Nuclear Repulsion Energy =            404.8924530331653386
    One-Electron Energy =               -1767.9301169053685499
    Two-Electron Energy =                 659.8419239485275511
    Total Energy =                       -703.1957399236756601
  Basis Set: (AUG-CC-PVTZ AUX)
    Blend: AUG-CC-PVTZ-RI
    Molecular point group: c1

    Geometry (in Angstrom), charge = 0, multiplicity = 1:

       Center              X                  Y                   Z               Mass
    ------------   -----------------  -----------------  -----------------  -----------------
         S            0.062522820186     1.573779290872     0.000323094254    31.972071174400
         O            2.727062820186    -1.330414709128     0.000316094254    15.994914619570
         C           -1.528328179814    -0.466967709128     0.000317094254    12.000000000000
         C           -0.213385179814    -0.986953709128     0.000322094254    12.000000000000
         C            0.762781820186    -0.004952709128     0.000330094254    12.000000000000
         C           -1.519797179814     0.918340290872     0.000318094254    12.000000000000
         C           -2.775735179814    -1.303523709128     0.000328094254    12.000000000000
         C            2.211514820186    -0.214414709128     0.000328094254    12.000000000000
         H            0.043324820186    -2.042678709128     0.000320094254     1.007825032230
         H           -2.377848179814     1.580894290872     0.000309094254     1.007825032230
         H           -2.815195179814    -1.947881709128    -0.883063905746     1.007825032230
         H           -2.813401479814    -1.918395609128     0.843378394254     1.007825032230
         H           -3.669114179814    -0.673818709128     0.000308094254     1.007825032230
         H            2.838314820186     0.700095290872     0.000340094254     1.007825032230

  Basis Set: AUG-CC-PVTZ
    Blend: AUG-CC-PVTZ
  Basis Set: (AUG-CC-PVTZ AUX)
    Blend: AUG-CC-PVTZ-JKFIT
	 Reference Energy          =    -703.1957399236756601 [Eh]
	 Singles Energy            =      -0.0000000000000000 [Eh]
	 Same-Spin Energy          =      -0.3846482720877092 [Eh]
	 Opposite-Spin Energy      =      -1.1766354883238648 [Eh]
	 Correlation Energy        =      -1.5612837604115741 [Eh]
	 Total Energy              =    -704.7570236840872440 [Eh]

	 ================> DF-SCS-MP2 Energies <==================
	-----------------------------------------------------------
	 SCS Same-Spin Scale       =       0.3333333333333333 [-]
	 SCS Opposite-Spin Scale   =       1.2000000000000000 [-]
	 SCS Same-Spin Energy      =      -0.1282160906959031 [Eh]
	 SCS Opposite-Spin Energy  =      -1.4119625859886378 [Eh]
	 SCS Correlation Energy    =      -1.5401786766845409 [Eh]
	 SCS Total Energy          =    -704.7359186003601508 [Eh]
	-----------------------------------------------------------

  Dipole Moment: [D]
     X:    -3.1462      Y:     1.5152      Z:     0.0107     Total:     3.4921

*** Psi4 exiting successfully. Buy a developer a beer!
