                               Psi4 1.4a3.dev225

  ==> Input File <==

--------------------------------------------------------------------------
#psi4
#
memory 32 gb

molecule  {
0 1
  S        0.1285310     1.6062780     0.0000000
  O        2.7930710    -1.2979160    -0.0000070
  C       -1.4623200    -0.4344690    -0.0000060
  C       -0.1473770    -0.9544550    -0.0000010
  C        0.8287900     0.0275460     0.0000070
  C       -1.4537890     0.9508390    -0.0000050
  C       -2.7097270    -1.2710250     0.0000050
  C        2.2775230    -0.1819160     0.0000050
  H        0.1093330    -2.0101800    -0.0000030
  H       -2.1535397     1.4911596    -0.0000123
  H       -2.7491870    -1.9153830    -0.8833870
  H       -2.7491970    -1.9153410     0.8834260
  H       -3.6031060    -0.6413200    -0.0000150
  H        2.9043230     0.7325940     0.0000170
units angstrom
no_reorient  #important for SAPT in psi4, default
symmetry c1  #important for SAPT in psi4, default
}

set PROPERTIES_ORIGIN ["COM"]
properties('MP2/aug-cc-pvtz', properties = ['dipole'])
--------------------------------------------------------------------------

    Molecular point group: c1
  Charge       = 0
  Multiplicity = 1
  Basis Set: AUG-CC-PVTZ
    Blend: AUG-CC-PVTZ
  Basis Set: (AUG-CC-PVTZ AUX)
    Blend: AUG-CC-PVTZ-JKFIT

    Orbital Energies [Eh]
    ---------------------

    Doubly Occupied:

       1A    -92.003331     2A    -20.555080     3A    -11.344599
       4A    -11.276384     5A    -11.262907     6A    -11.260644
       7A    -11.260284     8A    -11.242365     9A     -9.003439
      10A     -6.684427    11A     -6.683958    12A     -6.683250
      13A     -1.380038    14A     -1.195233    15A     -1.056256
      16A     -1.020302    17A     -0.946647    18A     -0.879407
      19A     -0.797505    20A     -0.744380    21A     -0.679433
      22A     -0.654265    23A     -0.607805    24A     -0.603117
      25A     -0.596777    26A     -0.553759    27A     -0.540469
      28A     -0.535115    29A     -0.502809    30A     -0.489509
      31A     -0.434661    32A     -0.355975    33A     -0.336849

  @DF-RHF Final Energy:  -703.16124899266924

   => Energetics <=

    Nuclear Repulsion Energy =            405.9064342155498935
    One-Electron Energy =               -1769.7934112139498666
    Two-Electron Energy =                 660.7257280057306161
    Total Energy =                       -703.1612489926692433
  Basis Set: (AUG-CC-PVTZ AUX)
    Blend: AUG-CC-PVTZ-RI
    Molecular point group: c1

    Geometry (in Angstrom), charge = 0, multiplicity = 1:

       Center              X                  Y                   Z               Mass
    ------------   -----------------  -----------------  -----------------  -----------------
         S            0.061271203135     1.574992366078     0.000000206829    31.972071174400
         O            2.725811203135    -1.329201633922    -0.000006793171    15.994914619570
         C           -1.529579796865    -0.465754633922    -0.000005793171    12.000000000000
         C           -0.214636796865    -0.985740633922    -0.000000793171    12.000000000000
         C            0.761530203135    -0.003739633922     0.000007206829    12.000000000000
         C           -1.521048796865     0.919553366078    -0.000004793171    12.000000000000
         C           -2.776986796865    -1.302310633922     0.000005206829    12.000000000000
         C            2.210263203135    -0.213201633922     0.000005206829    12.000000000000
         H            0.042073203135    -2.041465633922    -0.000002793171     1.007825032230
         H           -2.220799496865     1.459873966078    -0.000012093171     1.007825032230
         H           -2.816446796865    -1.946668633922    -0.883386793171     1.007825032230
         H           -2.816456796865    -1.946626633922     0.883426206829     1.007825032230
         H           -3.670365796865    -0.672605633922    -0.000014793171     1.007825032230
         H            2.837063203135     0.701308366078     0.000017206829     1.007825032230

  Basis Set: AUG-CC-PVTZ
    Blend: AUG-CC-PVTZ
  Basis Set: (AUG-CC-PVTZ AUX)
    Blend: AUG-CC-PVTZ-JKFIT
	 Reference Energy          =    -703.1612489926692433 [Eh]
	 Singles Energy            =      -0.0000000000000000 [Eh]
	 Same-Spin Energy          =      -0.3843137395047238 [Eh]
	 Opposite-Spin Energy      =      -1.1765103302874913 [Eh]
	 Correlation Energy        =      -1.5608240697922151 [Eh]
	 Total Energy              =    -704.7220730624615044 [Eh]

	 ================> DF-SCS-MP2 Energies <==================
	-----------------------------------------------------------
	 SCS Same-Spin Scale       =       0.3333333333333333 [-]
	 SCS Opposite-Spin Scale   =       1.2000000000000000 [-]
	 SCS Same-Spin Energy      =      -0.1281045798349079 [Eh]
	 SCS Opposite-Spin Energy  =      -1.4118123963449896 [Eh]
	 SCS Correlation Energy    =      -1.5399169761798974 [Eh]
	 SCS Total Energy          =    -704.7011659688491818 [Eh]
	-----------------------------------------------------------

  Dipole Moment: [D]
     X:    -3.1073      Y:     1.4975      Z:     0.0000     Total:     3.4493

*** Psi4 exiting successfully. Buy a developer a beer!
