                               Psi4 1.4a3.dev225

  ==> Input File <==

--------------------------------------------------------------------------
#psi4
#
memory 32 gb

molecule  {
0 1
  S        0.1285310     1.6062780     0.0000000
  O        2.7930710    -1.2979160    -0.0000070
  C       -1.4623200    -0.4344690    -0.0000060
  C       -0.1566523    -0.9773247    -0.0000007
  C        0.8287900     0.0275460     0.0000070
  C       -1.4537890     0.9508390    -0.0000050
  C       -2.7097270    -1.2710250     0.0000050
  C        2.2775230    -0.1819160     0.0000050
  H        0.1093330    -2.0101800    -0.0000030
  H       -2.3118400     1.6133930    -0.0000140
  H       -2.7491870    -1.9153830    -0.8833870
  H       -2.7491970    -1.9153410     0.8834260
  H       -3.6031060    -0.6413200    -0.0000150
  H        2.9043230     0.7325940     0.0000170
units angstrom
no_reorient  #important for SAPT in psi4, default
symmetry c1  #important for SAPT in psi4, default
}

set PROPERTIES_ORIGIN ["COM"]
properties('MP2/aug-cc-pvtz', properties = ['dipole'])
--------------------------------------------------------------------------

    Molecular point group: c1
  Charge       = 0
  Multiplicity = 1
  Basis Set: AUG-CC-PVTZ
    Blend: AUG-CC-PVTZ
  Basis Set: (AUG-CC-PVTZ AUX)
    Blend: AUG-CC-PVTZ-JKFIT

    Orbital Energies [Eh]
    ---------------------

    Doubly Occupied:

       1A    -92.005803     2A    -20.554161     3A    -11.344005
       4A    -11.283422     5A    -11.278619     6A    -11.263751
       7A    -11.262320     8A    -11.241383     9A     -9.005703
      10A     -6.686666    11A     -6.686194    12A     -6.685498
      13A     -1.379297    14A     -1.191488    15A     -1.054920
      16A     -1.009045    17A     -0.946117    18A     -0.866340
      19A     -0.771150    20A     -0.743168    21A     -0.677138
      22A     -0.647685    23A     -0.606424    24A     -0.596193
      25A     -0.590671    26A     -0.552659    27A     -0.541118
      28A     -0.531287    29A     -0.502324    30A     -0.491148
      31A     -0.433655    32A     -0.355995    33A     -0.334888

  @DF-RHF Final Energy:  -703.19492562287587

   => Energetics <=

    Nuclear Repulsion Energy =            404.2479049762512773
    One-Electron Energy =               -1766.6451931105955282
    Two-Electron Energy =                 659.2023625114684364
    Total Energy =                       -703.1949256228758713
  Basis Set: (AUG-CC-PVTZ AUX)
    Blend: AUG-CC-PVTZ-RI
    Molecular point group: c1

    Geometry (in Angstrom), charge = 0, multiplicity = 1:

       Center              X                  Y                   Z               Mass
    ------------   -----------------  -----------------  -----------------  -----------------
         S            0.063420509899     1.576192602532     0.000000191857    31.972071174400
         O            2.727960509899    -1.328001397468    -0.000006808143    15.994914619570
         C           -1.527430490101    -0.464554397468    -0.000005808143    12.000000000000
         C           -0.221762790101    -1.007410097468    -0.000000508143    12.000000000000
         C            0.763679509899    -0.002539397468     0.000007191857    12.000000000000
         C           -1.518899490101     0.920753602532    -0.000004808143    12.000000000000
         C           -2.774837490101    -1.301110397468     0.000005191857    12.000000000000
         C            2.212412509899    -0.212001397468     0.000005191857    12.000000000000
         H            0.044222509899    -2.040265397468    -0.000002808143     1.007825032230
         H           -2.376950490101     1.583307602532    -0.000013808143     1.007825032230
         H           -2.814297490101    -1.945468397468    -0.883386808143     1.007825032230
         H           -2.814307490101    -1.945426397468     0.883426191857     1.007825032230
         H           -3.668216490101    -0.671405397468    -0.000014808143     1.007825032230
         H            2.839212509899     0.702508602532     0.000017191857     1.007825032230

  Basis Set: AUG-CC-PVTZ
    Blend: AUG-CC-PVTZ
  Basis Set: (AUG-CC-PVTZ AUX)
    Blend: AUG-CC-PVTZ-JKFIT
	 Reference Energy          =    -703.1949256228758713 [Eh]
	 Singles Energy            =      -0.0000000000000000 [Eh]
	 Same-Spin Energy          =      -0.3850001016808998 [Eh]
	 Opposite-Spin Energy      =      -1.1774459886412507 [Eh]
	 Correlation Energy        =      -1.5624460903221506 [Eh]
	 Total Energy              =    -704.7573717131980402 [Eh]

	 ================> DF-SCS-MP2 Energies <==================
	-----------------------------------------------------------
	 SCS Same-Spin Scale       =       0.3333333333333333 [-]
	 SCS Opposite-Spin Scale   =       1.2000000000000000 [-]
	 SCS Same-Spin Energy      =      -0.1283333672269666 [Eh]
	 SCS Opposite-Spin Energy  =      -1.4129351863695008 [Eh]
	 SCS Correlation Energy    =      -1.5412685535964674 [Eh]
	 SCS Total Energy          =    -704.7361941764723952 [Eh]
	-----------------------------------------------------------

  Dipole Moment: [D]
     X:    -3.1405      Y:     1.5629      Z:     0.0000     Total:     3.5079

*** Psi4 exiting successfully. Buy a developer a beer!
