                               Psi4 1.4a3.dev225

  ==> Input File <==

--------------------------------------------------------------------------
#psi4
#
memory 32 gb

molecule  {
0 1
  S        0.1285310     1.6062780     0.0000000
  O        2.7930710    -1.2979160    -0.0000070
  C       -1.4623200    -0.4344690    -0.0000060
  C       -0.1473770    -0.9544550    -0.0000010
  C        0.8287900     0.0275460     0.0000070
  C       -1.6385641     0.8743003    -0.0000056
  C       -2.7097270    -1.2710250     0.0000050
  C        2.2775230    -0.1819160     0.0000050
  H        0.1093330    -2.0101800    -0.0000030
  H       -2.3118400     1.6133930    -0.0000140
  H       -2.7491870    -1.9153830    -0.8833870
  H       -2.7491970    -1.9153410     0.8834260
  H       -3.6031060    -0.6413200    -0.0000150
  H        2.9043230     0.7325940     0.0000170
units angstrom
no_reorient  #important for SAPT in psi4, default
symmetry c1  #important for SAPT in psi4, default
}

set PROPERTIES_ORIGIN ["COM"]
properties('MP2/aug-cc-pvtz', properties = ['dipole'])
--------------------------------------------------------------------------

    Molecular point group: c1
  Charge       = 0
  Multiplicity = 1
  Basis Set: AUG-CC-PVTZ
    Blend: AUG-CC-PVTZ
  Basis Set: (AUG-CC-PVTZ AUX)
    Blend: AUG-CC-PVTZ-JKFIT

    Orbital Energies [Eh]
    ---------------------

    Doubly Occupied:

       1A    -91.989842     2A    -20.563366     3A    -11.349306
       4A    -11.285165     5A    -11.284660     6A    -11.265206
       7A    -11.262950     8A    -11.241371     9A     -8.988379
      10A     -6.669372    11A     -6.668565    12A     -6.668067
      13A     -1.386555    14A     -1.185902    15A     -1.066352
      16A     -0.990774    17A     -0.947154    18A     -0.878083
      19A     -0.791078    20A     -0.747467    21A     -0.680145
      22A     -0.653602    23A     -0.623918    24A     -0.598668
      25A     -0.595701    26A     -0.553226    27A     -0.549501
      28A     -0.518360    29A     -0.496746    30A     -0.449422
      31A     -0.440634    32A     -0.363463    33A     -0.338009

  @DF-RHF Final Energy:  -703.16878419969464

   => Energetics <=

    Nuclear Repulsion Energy =            402.1780787328384008
    One-Electron Energy =               -1762.5117068047036355
    Two-Electron Energy =                 657.1648438721705361
    Total Energy =                       -703.1687841996946418
  Basis Set: (AUG-CC-PVTZ AUX)
    Blend: AUG-CC-PVTZ-RI
    Molecular point group: c1

    Geometry (in Angstrom), charge = 0, multiplicity = 1:

       Center              X                  Y                   Z               Mass
    ------------   -----------------  -----------------  -----------------  -----------------
         S            0.080132928120     1.581303370599     0.000000277561    31.972071174400
         O            2.744672928120    -1.322890629401    -0.000006722439    15.994914619570
         C           -1.510718071880    -0.459443629401    -0.000005722439    12.000000000000
         C           -0.195775071880    -0.979429629401    -0.000000722439    12.000000000000
         C            0.780391928120     0.002571370599     0.000007277561    12.000000000000
         C           -1.686962171880     0.849325670599    -0.000005322439    12.000000000000
         C           -2.758125071880    -1.295999629401     0.000005277561    12.000000000000
         C            2.229124928120    -0.206890629401     0.000005277561    12.000000000000
         H            0.060934928120    -2.035154629401    -0.000002722439     1.007825032230
         H           -2.360238071880     1.588418370599    -0.000013722439     1.007825032230
         H           -2.797585071880    -1.940357629401    -0.883386722439     1.007825032230
         H           -2.797595071880    -1.940315629401     0.883426277561     1.007825032230
         H           -3.651504071880    -0.666294629401    -0.000014722439     1.007825032230
         H            2.855924928120     0.707619370599     0.000017277561     1.007825032230

  Basis Set: AUG-CC-PVTZ
    Blend: AUG-CC-PVTZ
  Basis Set: (AUG-CC-PVTZ AUX)
    Blend: AUG-CC-PVTZ-JKFIT
	 Reference Energy          =    -703.1687841996946418 [Eh]
	 Singles Energy            =      -0.0000000000000000 [Eh]
	 Same-Spin Energy          =      -0.3829644585057382 [Eh]
	 Opposite-Spin Energy      =      -1.1778246199375129 [Eh]
	 Correlation Energy        =      -1.5607890784432512 [Eh]
	 Total Energy              =    -704.7295732781378774 [Eh]

	 ================> DF-SCS-MP2 Energies <==================
	-----------------------------------------------------------
	 SCS Same-Spin Scale       =       0.3333333333333333 [-]
	 SCS Opposite-Spin Scale   =       1.2000000000000000 [-]
	 SCS Same-Spin Energy      =      -0.1276548195019127 [Eh]
	 SCS Opposite-Spin Energy  =      -1.4133895439250155 [Eh]
	 SCS Correlation Energy    =      -1.5410443634269282 [Eh]
	 SCS Total Energy          =    -704.7098285631216186 [Eh]
	-----------------------------------------------------------

  Dipole Moment: [D]
     X:    -3.1500      Y:     1.2172      Z:     0.0000     Total:     3.3770

*** Psi4 exiting successfully. Buy a developer a beer!
