                               Psi4 1.4a3.dev225

  ==> Input File <==

--------------------------------------------------------------------------
#psi4
#
memory 32 gb

molecule  {
0 1
  S        0.1285310     1.6062780     0.0000000
  O        2.7930710    -1.2979160    -0.0000070
  C       -1.4623200    -0.4344690    -0.0000060
  C       -0.1473770    -0.9544550    -0.0000010
  C        0.8287900     0.0275460     0.0000070
  C       -1.4537890     0.9508390    -0.0000050
  C       -2.7097270    -1.2710250     0.0000050
  C        2.2775230    -0.1819160     0.0000050
  H        0.1093330    -2.0101800    -0.0000030
  H       -2.3118400     1.6133930    -0.0000140
  H       -2.7491870    -1.9153830    -0.8833870
  H       -2.7510007    -1.9447851     0.9237967
  H       -3.6031060    -0.6413200    -0.0000150
  H        2.9043230     0.7325940     0.0000170
units angstrom
no_reorient  #important for SAPT in psi4, default
symmetry c1  #important for SAPT in psi4, default
}

set PROPERTIES_ORIGIN ["COM"]
properties('MP2/aug-cc-pvtz', properties = ['dipole'])
--------------------------------------------------------------------------

    Molecular point group: c1
  Charge       = 0
  Multiplicity = 1
  Basis Set: AUG-CC-PVTZ
    Blend: AUG-CC-PVTZ
  Basis Set: (AUG-CC-PVTZ AUX)
    Blend: AUG-CC-PVTZ-JKFIT

    Orbital Energies [Eh]
    ---------------------

    Doubly Occupied:

       1A    -92.004352     2A    -20.555067     3A    -11.344750
       4A    -11.283394     5A    -11.276362     6A    -11.263508
       7A    -11.261291     8A    -11.247850     9A     -9.004409
      10A     -6.685378    11A     -6.684914    12A     -6.684185
      13A     -1.380067    14A     -1.193952    15A     -1.054181
      16A     -1.009968    17A     -0.943941    18A     -0.865857
      19A     -0.772973    20A     -0.739801    21A     -0.678937
      22A     -0.647978    23A     -0.604194    24A     -0.590896
      25A     -0.589996    26A     -0.552514    27A     -0.538333
      28A     -0.533155    29A     -0.502364    30A     -0.489979
      31A     -0.434554    32A     -0.356350    33A     -0.336678

  @DF-RHF Final Energy:  -703.19468229102347

   => Energetics <=

    Nuclear Repulsion Energy =            404.4620797245902963
    One-Electron Energy =               -1767.0892612273942177
    Two-Electron Energy =                 659.4324992117805095
    Total Energy =                       -703.1946822910234687
  Basis Set: (AUG-CC-PVTZ AUX)
    Blend: AUG-CC-PVTZ-RI
    Molecular point group: c1

    Geometry (in Angstrom), charge = 0, multiplicity = 1:

       Center              X                  Y                   Z               Mass
    ------------   -----------------  -----------------  -----------------  -----------------
         S            0.062551671185     1.574250262607    -0.000322653404    31.972071174400
         O            2.727091671185    -1.329943737393    -0.000329653404    15.994914619570
         C           -1.528299328815    -0.466496737393    -0.000328653404    12.000000000000
         C           -0.213356328815    -0.986482737393    -0.000323653404    12.000000000000
         C            0.762810671185    -0.004481737393    -0.000315653404    12.000000000000
         C           -1.519768328815     0.918811262607    -0.000327653404    12.000000000000
         C           -2.775706328815    -1.303052737393    -0.000317653404    12.000000000000
         C            2.211543671185    -0.213943737393    -0.000317653404    12.000000000000
         H            0.043353671185    -2.042207737393    -0.000325653404     1.007825032230
         H           -2.377819328815     1.581365262607    -0.000336653404     1.007825032230
         H           -2.815166328815    -1.947410737393    -0.883709653404     1.007825032230
         H           -2.816980028815    -1.976812837393     0.923474046596     1.007825032230
         H           -3.669085328815    -0.673347737393    -0.000337653404     1.007825032230
         H            2.838343671185     0.700566262607    -0.000305653404     1.007825032230

  Basis Set: AUG-CC-PVTZ
    Blend: AUG-CC-PVTZ
  Basis Set: (AUG-CC-PVTZ AUX)
    Blend: AUG-CC-PVTZ-JKFIT
	 Reference Energy          =    -703.1946822910234687 [Eh]
	 Singles Energy            =      -0.0000000000000000 [Eh]
	 Same-Spin Energy          =      -0.3846036923473280 [Eh]
	 Opposite-Spin Energy      =      -1.1771762581599345 [Eh]
	 Correlation Energy        =      -1.5617799505072625 [Eh]
	 Total Energy              =    -704.7564622415306985 [Eh]

	 ================> DF-SCS-MP2 Energies <==================
	-----------------------------------------------------------
	 SCS Same-Spin Scale       =       0.3333333333333333 [-]
	 SCS Opposite-Spin Scale   =       1.2000000000000000 [-]
	 SCS Same-Spin Energy      =      -0.1282012307824427 [Eh]
	 SCS Opposite-Spin Energy  =      -1.4126115097919214 [Eh]
	 SCS Correlation Energy    =      -1.5408127405743641 [Eh]
	 SCS Total Energy          =    -704.7354950315977931 [Eh]
	-----------------------------------------------------------

  Dipole Moment: [D]
     X:    -3.1174      Y:     1.5469      Z:    -0.0134     Total:     3.4801

*** Psi4 exiting successfully. Buy a developer a beer!
