                               Psi4 1.4a3.dev225

  ==> Input File <==

--------------------------------------------------------------------------
#psi4
#
memory 32 gb

molecule  {
0 1
  S        0.1285310     1.6062780     0.0000000
  O        2.7930710    -1.2979160    -0.0000070
  C       -1.4623200    -0.4344690    -0.0000060
  C       -0.1473770    -0.9544550    -0.0000010
  C        0.8287900     0.0275460     0.0000070
  C       -1.4537890     0.9508390    -0.0000050
  C       -2.7097270    -1.2710250     0.0000050
  C        2.2775230    -0.1819160     0.0000050
  H        0.0620780    -1.8158428    -0.0000026
  H       -2.3118400     1.6133930    -0.0000140
  H       -2.7491870    -1.9153830    -0.8833870
  H       -2.7491970    -1.9153410     0.8834260
  H       -3.6031060    -0.6413200    -0.0000150
  H        2.9043230     0.7325940     0.0000170
units angstrom
no_reorient  #important for SAPT in psi4, default
symmetry c1  #important for SAPT in psi4, default
}

set PROPERTIES_ORIGIN ["COM"]
properties('MP2/aug-cc-pvtz', properties = ['dipole'])
--------------------------------------------------------------------------

    Molecular point group: c1
  Charge       = 0
  Multiplicity = 1
  Basis Set: AUG-CC-PVTZ
    Blend: AUG-CC-PVTZ
  Basis Set: (AUG-CC-PVTZ AUX)
    Blend: AUG-CC-PVTZ-JKFIT

    Orbital Energies [Eh]
    ---------------------

    Doubly Occupied:

       1A    -92.003782     2A    -20.555443     3A    -11.344894
       4A    -11.282335     5A    -11.276057     6A    -11.262146
       7A    -11.242266     8A    -11.239349     9A     -9.003858
      10A     -6.684828    11A     -6.684365    12A     -6.683652
      13A     -1.380432    14A     -1.195050    15A     -1.055263
      16A     -1.020989    17A     -0.950393    18A     -0.868871
      19A     -0.782472    20A     -0.766850    21A     -0.682160
      22A     -0.649813    23A     -0.614052    24A     -0.596811
      25A     -0.594473    26A     -0.553975    27A     -0.543783
      28A     -0.535086    29A     -0.502908    30A     -0.491276
      31A     -0.434646    32A     -0.356526    33A     -0.336282

  @DF-RHF Final Energy:  -703.16183355471344

   => Energetics <=

    Nuclear Repulsion Energy =            405.8433561122331525
    One-Electron Energy =               -1769.6602098514154022
    Two-Electron Energy =                 660.6550201844688672
    Total Energy =                       -703.1618335547134393
  Basis Set: (AUG-CC-PVTZ AUX)
    Blend: AUG-CC-PVTZ-RI
    Molecular point group: c1

    Geometry (in Angstrom), charge = 0, multiplicity = 1:

       Center              X                  Y                   Z               Mass
    ------------   -----------------  -----------------  -----------------  -----------------
         S            0.062915178265     1.572460520908     0.000000217226    31.972071174400
         O            2.727455178265    -1.331733479092    -0.000006782774    15.994914619570
         C           -1.527935821735    -0.468286479092    -0.000005782774    12.000000000000
         C           -0.212992821735    -0.988272479092    -0.000000782774    12.000000000000
         C            0.763174178265    -0.006271479092     0.000007217226    12.000000000000
         C           -1.519404821735     0.917021520908    -0.000004782774    12.000000000000
         C           -2.775342821735    -1.304842479092     0.000005217226    12.000000000000
         C            2.211907178265    -0.215733479092     0.000005217226    12.000000000000
         H           -0.003537821735    -1.849660279092    -0.000002382774     1.007825032230
         H           -2.377455821735     1.579575520908    -0.000013782774     1.007825032230
         H           -2.814802821735    -1.949200479092    -0.883386782774     1.007825032230
         H           -2.814812821735    -1.949158479092     0.883426217226     1.007825032230
         H           -3.668721821735    -0.675137479092    -0.000014782774     1.007825032230
         H            2.838707178265     0.698776520908     0.000017217226     1.007825032230

  Basis Set: AUG-CC-PVTZ
    Blend: AUG-CC-PVTZ
  Basis Set: (AUG-CC-PVTZ AUX)
    Blend: AUG-CC-PVTZ-JKFIT
	 Reference Energy          =    -703.1618335547134393 [Eh]
	 Singles Energy            =      -0.0000000000000000 [Eh]
	 Same-Spin Energy          =      -0.3842828515822169 [Eh]
	 Opposite-Spin Energy      =      -1.1763867715856438 [Eh]
	 Correlation Energy        =      -1.5606696231678607 [Eh]
	 Total Energy              =    -704.7225031778813218 [Eh]

	 ================> DF-SCS-MP2 Energies <==================
	-----------------------------------------------------------
	 SCS Same-Spin Scale       =       0.3333333333333333 [-]
	 SCS Opposite-Spin Scale   =       1.2000000000000000 [-]
	 SCS Same-Spin Energy      =      -0.1280942838607390 [Eh]
	 SCS Opposite-Spin Energy  =      -1.4116641259027725 [Eh]
	 SCS Correlation Energy    =      -1.5397584097635113 [Eh]
	 SCS Total Energy          =    -704.7015919644769610 [Eh]
	-----------------------------------------------------------

  Dipole Moment: [D]
     X:    -3.1459      Y:     1.5570      Z:     0.0000     Total:     3.5101

*** Psi4 exiting successfully. Buy a developer a beer!
