                               Psi4 1.4a3.dev225

  ==> Input File <==

--------------------------------------------------------------------------
#psi4
#
memory 32 gb

molecule  {
0 1
  S        0.1285310     1.6062780     0.0000000
  O        2.7930710    -1.2979160    -0.0000070
  C       -1.4623200    -0.4344690    -0.0000060
  C       -0.1473770    -0.9544550    -0.0000010
  C        0.8287900     0.0275460     0.0000070
  C       -1.4537890     0.9508390    -0.0000050
  C       -2.7097270    -1.2710250     0.0000050
  C        2.2775230    -0.1819160     0.0000050
  H        0.1093330    -2.0101800    -0.0000030
  H       -2.3276700     1.6256163    -0.0000142
  H       -2.7491870    -1.9153830    -0.8833870
  H       -2.7491970    -1.9153410     0.8834260
  H       -3.6031060    -0.6413200    -0.0000150
  H        2.9043230     0.7325940     0.0000170
units angstrom
no_reorient  #important for SAPT in psi4, default
symmetry c1  #important for SAPT in psi4, default
}

set PROPERTIES_ORIGIN ["COM"]
properties('MP2/aug-cc-pvtz', properties = ['dipole'])
--------------------------------------------------------------------------

    Molecular point group: c1
  Charge       = 0
  Multiplicity = 1
  Basis Set: AUG-CC-PVTZ
    Blend: AUG-CC-PVTZ
  Basis Set: (AUG-CC-PVTZ AUX)
    Blend: AUG-CC-PVTZ-JKFIT

    Orbital Energies [Eh]
    ---------------------

    Doubly Occupied:

       1A    -92.004287     2A    -20.554958     3A    -11.344662
       4A    -11.285199     5A    -11.276230     6A    -11.263209
       7A    -11.261221     8A    -11.241951     9A     -9.004334
      10A     -6.685300    11A     -6.684838    12A     -6.684108
      13A     -1.379972    14A     -1.193749    15A     -1.055169
      16A     -1.009257    17A     -0.946563    18A     -0.865655
      19A     -0.771124    20A     -0.739007    21A     -0.679256
      22A     -0.647333    23A     -0.604810    24A     -0.596612
      25A     -0.587683    26A     -0.553848    27A     -0.538647
      28A     -0.533097    29A     -0.502958    30A     -0.490209
      31A     -0.434426    32A     -0.356464    33A     -0.336620

  @DF-RHF Final Energy:  -703.19607573636574

   => Energetics <=

    Nuclear Repulsion Energy =            404.5630644212902212
    One-Electron Energy =               -1767.2927670728142857
    Two-Electron Energy =                 659.5336269151583792
    Total Energy =                       -703.1960757363657422
  Basis Set: (AUG-CC-PVTZ AUX)
    Blend: AUG-CC-PVTZ-RI
    Molecular point group: c1

    Geometry (in Angstrom), charge = 0, multiplicity = 1:

       Center              X                  Y                   Z               Mass
    ------------   -----------------  -----------------  -----------------  -----------------
         S            0.062663849701     1.573917018126     0.000000222024    31.972071174400
         O            2.727203849701    -1.330276981874    -0.000006777976    15.994914619570
         C           -1.528187150299    -0.466829981874    -0.000005777976    12.000000000000
         C           -0.213244150299    -0.986815981874    -0.000000777976    12.000000000000
         C            0.762922849701    -0.004814981874     0.000007222024    12.000000000000
         C           -1.519656150299     0.918478018126    -0.000004777976    12.000000000000
         C           -2.775594150299    -1.303385981874     0.000005222024    12.000000000000
         C            2.211655849701    -0.214276981874     0.000005222024    12.000000000000
         H            0.043465849701    -2.042540981874    -0.000002777976     1.007825032230
         H           -2.393537150299     1.593255318126    -0.000013977976     1.007825032230
         H           -2.815054150299    -1.947743981874    -0.883386777976     1.007825032230
         H           -2.815064150299    -1.947701981874     0.883426222024     1.007825032230
         H           -3.668973150299    -0.673680981874    -0.000014777976     1.007825032230
         H            2.838455849701     0.700233018126     0.000017222024     1.007825032230

  Basis Set: AUG-CC-PVTZ
    Blend: AUG-CC-PVTZ
  Basis Set: (AUG-CC-PVTZ AUX)
    Blend: AUG-CC-PVTZ-JKFIT
	 Reference Energy          =    -703.1960757363657422 [Eh]
	 Singles Energy            =      -0.0000000000000000 [Eh]
	 Same-Spin Energy          =      -0.3846767142169352 [Eh]
	 Opposite-Spin Energy      =      -1.1770246697704021 [Eh]
	 Correlation Energy        =      -1.5617013839873373 [Eh]
	 Total Energy              =    -704.7577771203531256 [Eh]

	 ================> DF-SCS-MP2 Energies <==================
	-----------------------------------------------------------
	 SCS Same-Spin Scale       =       0.3333333333333333 [-]
	 SCS Opposite-Spin Scale   =       1.2000000000000000 [-]
	 SCS Same-Spin Energy      =      -0.1282255714056451 [Eh]
	 SCS Opposite-Spin Energy  =      -1.4124296037244826 [Eh]
	 SCS Correlation Energy    =      -1.5406551751301276 [Eh]
	 SCS Total Energy          =    -704.7367309114958971 [Eh]
	-----------------------------------------------------------

  Dipole Moment: [D]
     X:    -3.1337      Y:     1.5315      Z:     0.0000     Total:     3.4879

*** Psi4 exiting successfully. Buy a developer a beer!
