                               Psi4 1.4a3.dev225

  ==> Input File <==

--------------------------------------------------------------------------
#psi4
#
memory 32 gb

molecule  {
0 1
  S        0.1285310     1.6062780     0.0000000
  O        2.7930710    -1.2979160    -0.0000070
  C       -1.4623200    -0.4344690    -0.0000060
  C       -0.1473770    -0.9544550    -0.0000010
  C        0.8287900     0.0275460     0.0000070
  C       -1.4537890     0.9508390    -0.0000050
  C       -2.7097270    -1.2710250     0.0000050
  C        2.2775230    -0.1819160     0.0000050
  H        0.1093330    -2.0101800    -0.0000030
  H       -2.3909902     1.6745097    -0.0000148
  H       -2.7491870    -1.9153830    -0.8833870
  H       -2.7491970    -1.9153410     0.8834260
  H       -3.6031060    -0.6413200    -0.0000150
  H        2.9043230     0.7325940     0.0000170
units angstrom
no_reorient  #important for SAPT in psi4, default
symmetry c1  #important for SAPT in psi4, default
}

set PROPERTIES_ORIGIN ["COM"]
properties('MP2/aug-cc-pvtz', properties = ['dipole'])
--------------------------------------------------------------------------

    Molecular point group: c1
  Charge       = 0
  Multiplicity = 1
  Basis Set: AUG-CC-PVTZ
    Blend: AUG-CC-PVTZ
  Basis Set: (AUG-CC-PVTZ AUX)
    Blend: AUG-CC-PVTZ-JKFIT

    Orbital Energies [Eh]
    ---------------------

    Doubly Occupied:

       1A    -92.004877     2A    -20.555073     3A    -11.344831
       4A    -11.293319     5A    -11.276382     6A    -11.263664
       7A    -11.261681     8A    -11.241822     9A     -9.004874
      10A     -6.685830    11A     -6.685373    12A     -6.684633
      13A     -1.380093    14A     -1.193729    15A     -1.055149
      16A     -1.007236    17A     -0.946660    18A     -0.863436
      19A     -0.765305    20A     -0.735740    21A     -0.679324
      22A     -0.645417    23A     -0.604816    24A     -0.596621
      25A     -0.579270    26A     -0.554002    27A     -0.538114
      28A     -0.530878    29A     -0.503167    30A     -0.490609
      31A     -0.434457    32A     -0.356752    33A     -0.336780

  @DF-RHF Final Energy:  -703.18913411255846

   => Energetics <=

    Nuclear Repulsion Energy =            404.1552115498753324
    One-Electron Energy =               -1766.4888633666710120
    Two-Electron Energy =                 659.1445177042372734
    Total Energy =                       -703.1891341125584631
  Basis Set: (AUG-CC-PVTZ AUX)
    Blend: AUG-CC-PVTZ-RI
    Molecular point group: c1

    Geometry (in Angstrom), charge = 0, multiplicity = 1:

       Center              X                  Y                   Z               Mass
    ------------   -----------------  -----------------  -----------------  -----------------
         S            0.063170267361     1.573525982071     0.000000226823    31.972071174400
         O            2.727710267361    -1.330668017929    -0.000006773177    15.994914619570
         C           -1.527680732639    -0.467221017929    -0.000005773177    12.000000000000
         C           -0.212737732639    -0.987207017929    -0.000000773177    12.000000000000
         C            0.763429267361    -0.005206017929     0.000007226823    12.000000000000
         C           -1.519149732639     0.918086982071    -0.000004773177    12.000000000000
         C           -2.775087732639    -1.303777017929     0.000005226823    12.000000000000
         C            2.212162267361    -0.214668017929     0.000005226823    12.000000000000
         H            0.043972267361    -2.042932017929    -0.000002773177     1.007825032230
         H           -2.456350932639     1.641757682071    -0.000014573177     1.007825032230
         H           -2.814547732639    -1.948135017929    -0.883386773177     1.007825032230
         H           -2.814557732639    -1.948093017929     0.883426226823     1.007825032230
         H           -3.668466732639    -0.674072017929    -0.000014773177     1.007825032230
         H            2.838962267361     0.699841982071     0.000017226823     1.007825032230

  Basis Set: AUG-CC-PVTZ
    Blend: AUG-CC-PVTZ
  Basis Set: (AUG-CC-PVTZ AUX)
    Blend: AUG-CC-PVTZ-JKFIT
	 Reference Energy          =    -703.1891341125584631 [Eh]
	 Singles Energy            =      -0.0000000000000000 [Eh]
	 Same-Spin Energy          =      -0.3849198413035695 [Eh]
	 Opposite-Spin Energy      =      -1.1777895160960217 [Eh]
	 Correlation Energy        =      -1.5627093573995912 [Eh]
	 Total Energy              =    -704.7518434699580894 [Eh]

	 ================> DF-SCS-MP2 Energies <==================
	-----------------------------------------------------------
	 SCS Same-Spin Scale       =       0.3333333333333333 [-]
	 SCS Opposite-Spin Scale   =       1.2000000000000000 [-]
	 SCS Same-Spin Energy      =      -0.1283066137678565 [Eh]
	 SCS Opposite-Spin Energy  =      -1.4133474193152260 [Eh]
	 SCS Correlation Energy    =      -1.5416540330830826 [Eh]
	 SCS Total Energy          =    -704.7307881456415544 [Eh]
	-----------------------------------------------------------

  Dipole Moment: [D]
     X:    -3.1323      Y:     1.5373      Z:     0.0000     Total:     3.4892

*** Psi4 exiting successfully. Buy a developer a beer!
