                               Psi4 1.4a3.dev225

  ==> Input File <==

--------------------------------------------------------------------------
#psi4
#
memory 32 gb

molecule  {
0 1
  S        0.1285310     1.6062780     0.0000000
  O        2.7930710    -1.2979160    -0.0000070
  C       -1.4623200    -0.4344690    -0.0000060
  C       -0.1473770    -0.9544550    -0.0000010
  C        0.8287900     0.0275460     0.0000070
  C       -1.4540969     0.9008399    -0.0000050
  C       -2.7097270    -1.2710250     0.0000050
  C        2.2775230    -0.1819160     0.0000050
  H        0.1093330    -2.0101800    -0.0000030
  H       -2.3118400     1.6133930    -0.0000140
  H       -2.7491870    -1.9153830    -0.8833870
  H       -2.7491970    -1.9153410     0.8834260
  H       -3.6031060    -0.6413200    -0.0000150
  H        2.9043230     0.7325940     0.0000170
units angstrom
no_reorient  #important for SAPT in psi4, default
symmetry c1  #important for SAPT in psi4, default
}

set PROPERTIES_ORIGIN ["COM"]
properties('MP2/aug-cc-pvtz', properties = ['dipole'])
--------------------------------------------------------------------------

    Molecular point group: c1
  Charge       = 0
  Multiplicity = 1
  Basis Set: AUG-CC-PVTZ
    Blend: AUG-CC-PVTZ
  Basis Set: (AUG-CC-PVTZ AUX)
    Blend: AUG-CC-PVTZ-JKFIT

    Orbital Energies [Eh]
    ---------------------

    Doubly Occupied:

       1A    -92.000858     2A    -20.555648     3A    -11.344727
       4A    -11.280367     5A    -11.276397     6A    -11.261947
       7A    -11.256950     8A    -11.242226     9A     -9.000926
      10A     -6.681909    11A     -6.681363    12A     -6.680630
      13A     -1.380429    14A     -1.197771    15A     -1.058861
      16A     -1.005514    17A     -0.948454    18A     -0.870327
      19A     -0.769487    20A     -0.740001    21A     -0.679989
      22A     -0.646793    23A     -0.606285    24A     -0.598378
      25A     -0.587002    26A     -0.553738    27A     -0.540545
      28A     -0.527498    29A     -0.503726    30A     -0.490058
      31A     -0.434755    32A     -0.357248    33A     -0.341370

  @DF-RHF Final Energy:  -703.19537852222413

   => Energetics <=

    Nuclear Repulsion Energy =            405.1920328284788297
    One-Electron Energy =               -1768.5704760821579384
    Two-Electron Energy =                 660.1830647314549196
    Total Energy =                       -703.1953785222241322
  Basis Set: (AUG-CC-PVTZ AUX)
    Blend: AUG-CC-PVTZ-RI
    Molecular point group: c1

    Geometry (in Angstrom), charge = 0, multiplicity = 1:

       Center              X                  Y                   Z               Mass
    ------------   -----------------  -----------------  -----------------  -----------------
         S            0.062566566252     1.578776069174     0.000000220425    31.972071174400
         O            2.727106566252    -1.325417930826    -0.000006779575    15.994914619570
         C           -1.528284433748    -0.461970930826    -0.000005779575    12.000000000000
         C           -0.213341433748    -0.981956930826    -0.000000779575    12.000000000000
         C            0.762825566252     0.000044069174     0.000007220425    12.000000000000
         C           -1.520061333748     0.873337969174    -0.000004779575    12.000000000000
         C           -2.775691433748    -1.298526930826     0.000005220425    12.000000000000
         C            2.211558566252    -0.209417930826     0.000005220425    12.000000000000
         H            0.043368566252    -2.037681930826    -0.000002779575     1.007825032230
         H           -2.377804433748     1.585891069174    -0.000013779575     1.007825032230
         H           -2.815151433748    -1.942884930826    -0.883386779575     1.007825032230
         H           -2.815161433748    -1.942842930826     0.883426220425     1.007825032230
         H           -3.669070433748    -0.668821930826    -0.000014779575     1.007825032230
         H            2.838358566252     0.705092069174     0.000017220425     1.007825032230

  Basis Set: AUG-CC-PVTZ
    Blend: AUG-CC-PVTZ
  Basis Set: (AUG-CC-PVTZ AUX)
    Blend: AUG-CC-PVTZ-JKFIT
	 Reference Energy          =    -703.1953785222241322 [Eh]
	 Singles Energy            =      -0.0000000000000000 [Eh]
	 Same-Spin Energy          =      -0.3837475304435912 [Eh]
	 Opposite-Spin Energy      =      -1.1760669949440719 [Eh]
	 Correlation Energy        =      -1.5598145253876630 [Eh]
	 Total Energy              =    -704.7551930476117832 [Eh]

	 ================> DF-SCS-MP2 Energies <==================
	-----------------------------------------------------------
	 SCS Same-Spin Scale       =       0.3333333333333333 [-]
	 SCS Opposite-Spin Scale   =       1.2000000000000000 [-]
	 SCS Same-Spin Energy      =      -0.1279158434811971 [Eh]
	 SCS Opposite-Spin Energy  =      -1.4112803939328862 [Eh]
	 SCS Correlation Energy    =      -1.5391962374140833 [Eh]
	 SCS Total Energy          =    -704.7345747596382353 [Eh]
	-----------------------------------------------------------

  Dipole Moment: [D]
     X:    -3.1161      Y:     1.4918      Z:     0.0000     Total:     3.4548

*** Psi4 exiting successfully. Buy a developer a beer!
