                               Psi4 1.4a3.dev225

  ==> Input File <==

--------------------------------------------------------------------------
#psi4
#
memory 32 gb

molecule  {
0 1
  S        0.1285310     1.6062780     0.0000000
  O        2.7930710    -1.2979160    -0.0000070
  C       -1.4623200    -0.4344690    -0.0000060
  C       -0.1473770    -0.9544550    -0.0000010
  C        0.8287900     0.0275460     0.0000070
  C       -1.4537890     0.9508390    -0.0000050
  C       -2.7097270    -1.2710250     0.0000050
  C        2.2775230    -0.1819160     0.0000050
  H        0.1211468    -2.0587643    -0.0000031
  H       -2.3118400     1.6133930    -0.0000140
  H       -2.7491870    -1.9153830    -0.8833870
  H       -2.7491970    -1.9153410     0.8834260
  H       -3.6031060    -0.6413200    -0.0000150
  H        2.9043230     0.7325940     0.0000170
units angstrom
no_reorient  #important for SAPT in psi4, default
symmetry c1  #important for SAPT in psi4, default
}

set PROPERTIES_ORIGIN ["COM"]
properties('MP2/aug-cc-pvtz', properties = ['dipole'])
--------------------------------------------------------------------------

    Molecular point group: c1
  Charge       = 0
  Multiplicity = 1
  Basis Set: AUG-CC-PVTZ
    Blend: AUG-CC-PVTZ
  Basis Set: (AUG-CC-PVTZ AUX)
    Blend: AUG-CC-PVTZ-JKFIT

    Orbital Energies [Eh]
    ---------------------

    Doubly Occupied:

       1A    -92.004349     2A    -20.554855     3A    -11.344596
       4A    -11.283301     5A    -11.276409     6A    -11.266525
       7A    -11.263192     8A    -11.241909     9A     -9.004398
      10A     -6.685366    11A     -6.684903    12A     -6.684171
      13A     -1.379855    14A     -1.193735    15A     -1.055246
      16A     -1.008327    17A     -0.945940    18A     -0.866079
      19A     -0.772800    20A     -0.733239    21A     -0.678368
      22A     -0.647440    23A     -0.603310    24A     -0.596576
      25A     -0.587210    26A     -0.553810    27A     -0.537940
      28A     -0.531720    29A     -0.502959    30A     -0.489648
      31A     -0.434399    32A     -0.356486    33A     -0.336730

  @DF-RHF Final Energy:  -703.19419928267848

   => Energetics <=

    Nuclear Repulsion Energy =            404.4192789775577808
    One-Electron Energy =               -1767.0153807735291593
    Two-Electron Energy =                 659.4019025132929528
    Total Energy =                       -703.1941992826784826
  Basis Set: (AUG-CC-PVTZ AUX)
    Blend: AUG-CC-PVTZ-RI
    Molecular point group: c1

    Geometry (in Angstrom), charge = 0, multiplicity = 1:

       Center              X                  Y                   Z               Mass
    ------------   -----------------  -----------------  -----------------  -----------------
         S            0.062442762141     1.574403340698     0.000000221225    31.972071174400
         O            2.726982762141    -1.329790659302    -0.000006778775    15.994914619570
         C           -1.528408237859    -0.466343659302    -0.000005778775    12.000000000000
         C           -0.213465237859    -0.986329659302    -0.000000778775    12.000000000000
         C            0.762701762141    -0.004328659302     0.000007221225    12.000000000000
         C           -1.519877237859     0.918964340698    -0.000004778775    12.000000000000
         C           -2.775815237859    -1.302899659302     0.000005221225    12.000000000000
         C            2.211434762141    -0.213790659302     0.000005221225    12.000000000000
         H            0.055058562141    -2.090638959302    -0.000002878775     1.007825032230
         H           -2.377928237859     1.581518340698    -0.000013778775     1.007825032230
         H           -2.815275237859    -1.947257659302    -0.883386778775     1.007825032230
         H           -2.815285237859    -1.947215659302     0.883426221225     1.007825032230
         H           -3.669194237859    -0.673194659302    -0.000014778775     1.007825032230
         H            2.838234762141     0.700719340698     0.000017221225     1.007825032230

  Basis Set: AUG-CC-PVTZ
    Blend: AUG-CC-PVTZ
  Basis Set: (AUG-CC-PVTZ AUX)
    Blend: AUG-CC-PVTZ-JKFIT
	 Reference Energy          =    -703.1941992826784826 [Eh]
	 Singles Energy            =      -0.0000000000000000 [Eh]
	 Same-Spin Energy          =      -0.3847766218288010 [Eh]
	 Opposite-Spin Energy      =      -1.1772804220594346 [Eh]
	 Correlation Energy        =      -1.5620570438882355 [Eh]
	 Total Energy              =    -704.7562563265666995 [Eh]

	 ================> DF-SCS-MP2 Energies <==================
	-----------------------------------------------------------
	 SCS Same-Spin Scale       =       0.3333333333333333 [-]
	 SCS Opposite-Spin Scale   =       1.2000000000000000 [-]
	 SCS Same-Spin Energy      =      -0.1282588739429337 [Eh]
	 SCS Opposite-Spin Energy  =      -1.4127365064713215 [Eh]
	 SCS Correlation Energy    =      -1.5409953804142551 [Eh]
	 SCS Total Energy          =    -704.7351946630927841 [Eh]
	-----------------------------------------------------------

  Dipole Moment: [D]
     X:    -3.1299      Y:     1.5280      Z:     0.0000     Total:     3.4830

*** Psi4 exiting successfully. Buy a developer a beer!
