                               Psi4 1.4a3.dev225

  ==> Input File <==

--------------------------------------------------------------------------
#psi4
#
memory 32 gb

molecule  {
0 1
  S        0.1285310     1.6062780     0.0000000
  O        2.7930710    -1.2979160    -0.0000070
  C       -1.4623200    -0.4344690    -0.0000060
  C       -0.1473770    -0.9544550    -0.0000010
  C        0.8287900     0.0275460     0.0000070
  C       -1.4537890     0.9508390    -0.0000050
  C       -2.7097270    -1.2710250     0.0000050
  C        2.2775230    -0.1819160     0.0000050
  H        0.1093330    -2.0101800    -0.0000030
  H       -2.3118400     1.6133930    -0.0000140
  H       -2.7491870    -1.9153830    -0.8833870
  H       -2.7499185    -1.9271186     0.8995743
  H       -3.6031060    -0.6413200    -0.0000150
  H        2.9043230     0.7325940     0.0000170
units angstrom
no_reorient  #important for SAPT in psi4, default
symmetry c1  #important for SAPT in psi4, default
}

set PROPERTIES_ORIGIN ["COM"]
properties('MP2/aug-cc-pvtz', properties = ['dipole'])
--------------------------------------------------------------------------

    Molecular point group: c1
  Charge       = 0
  Multiplicity = 1
  Basis Set: AUG-CC-PVTZ
    Blend: AUG-CC-PVTZ
  Basis Set: (AUG-CC-PVTZ AUX)
    Blend: AUG-CC-PVTZ-JKFIT

    Orbital Energies [Eh]
    ---------------------

    Doubly Occupied:

       1A    -92.004230     2A    -20.554990     3A    -11.344677
       4A    -11.283192     5A    -11.276267     6A    -11.263266
       7A    -11.261184     8A    -11.244353     9A     -9.004288
      10A     -6.685257    11A     -6.684793    12A     -6.684065
      13A     -1.379997    14A     -1.193848    15A     -1.054750
      16A     -1.009915    17A     -0.945447    18A     -0.866158
      19A     -0.772964    20A     -0.739748    21A     -0.679102
      22A     -0.647914    23A     -0.604390    24A     -0.594390
      25A     -0.589809    26A     -0.553310    27A     -0.538628
      28A     -0.533381    29A     -0.502714    30A     -0.490073
      31A     -0.434476    32A     -0.356378    33A     -0.336628

  @DF-RHF Final Energy:  -703.19624150913751

   => Energetics <=

    Nuclear Repulsion Energy =            404.5857677990548495
    One-Electron Energy =               -1767.3348484399866720
    Two-Electron Energy =                 659.5528391317943715
    Total Energy =                       -703.1962415091375078
  Basis Set: (AUG-CC-PVTZ AUX)
    Blend: AUG-CC-PVTZ-RI
    Molecular point group: c1

    Geometry (in Angstrom), charge = 0, multiplicity = 1:

       Center              X                  Y                   Z               Mass
    ------------   -----------------  -----------------  -----------------  -----------------
         S            0.062543016045     1.574108970767    -0.000128929267    31.972071174400
         O            2.727083016045    -1.330085029233    -0.000135929267    15.994914619570
         C           -1.528307983955    -0.466638029233    -0.000134929267    12.000000000000
         C           -0.213364983955    -0.986624029233    -0.000129929267    12.000000000000
         C            0.762802016045    -0.004623029233    -0.000121929267    12.000000000000
         C           -1.519776983955     0.918669970767    -0.000133929267    12.000000000000
         C           -2.775714983955    -1.303194029233    -0.000123929267    12.000000000000
         C            2.211535016045    -0.214085029233    -0.000123929267    12.000000000000
         H            0.043345016045    -2.042349029233    -0.000131929267     1.007825032230
         H           -2.377827983955     1.581223970767    -0.000142929267     1.007825032230
         H           -2.815174983955    -1.947552029233    -0.883515929267     1.007825032230
         H           -2.815906483955    -1.959287629233     0.899445370733     1.007825032230
         H           -3.669093983955    -0.673489029233    -0.000143929267     1.007825032230
         H            2.838335016045     0.700424970767    -0.000111929267     1.007825032230

  Basis Set: AUG-CC-PVTZ
    Blend: AUG-CC-PVTZ
  Basis Set: (AUG-CC-PVTZ AUX)
    Blend: AUG-CC-PVTZ-JKFIT
	 Reference Energy          =    -703.1962415091375078 [Eh]
	 Singles Energy            =      -0.0000000000000000 [Eh]
	 Same-Spin Energy          =      -0.3846147292037517 [Eh]
	 Opposite-Spin Energy      =      -1.1769920772437357 [Eh]
	 Correlation Energy        =      -1.5616068064474873 [Eh]
	 Total Energy              =    -704.7578483155849653 [Eh]

	 ================> DF-SCS-MP2 Energies <==================
	-----------------------------------------------------------
	 SCS Same-Spin Scale       =       0.3333333333333333 [-]
	 SCS Opposite-Spin Scale   =       1.2000000000000000 [-]
	 SCS Same-Spin Energy      =      -0.1282049097345839 [Eh]
	 SCS Opposite-Spin Energy  =      -1.4123904926924828 [Eh]
	 SCS Correlation Energy    =      -1.5405954024270667 [Eh]
	 SCS Total Energy          =    -704.7368369115645237 [Eh]
	-----------------------------------------------------------

  Dipole Moment: [D]
     X:    -3.1272      Y:     1.5360      Z:    -0.0050     Total:     3.4841

*** Psi4 exiting successfully. Buy a developer a beer!
