                               Psi4 1.4a3.dev225

  ==> Input File <==

--------------------------------------------------------------------------
#psi4
#
memory 32 gb

molecule  {
0 1
  S        0.1285310     1.6062780     0.0000000
  O        2.7930710    -1.2979160    -0.0000070
  C       -1.4623200    -0.4344690    -0.0000060
  C       -0.1473770    -0.9544550    -0.0000010
  C        0.8287900     0.0275460     0.0000070
  C       -1.4544048     0.8508409    -0.0000051
  C       -2.7097270    -1.2710250     0.0000050
  C        2.2775230    -0.1819160     0.0000050
  H        0.1093330    -2.0101800    -0.0000030
  H       -2.3118400     1.6133930    -0.0000140
  H       -2.7491870    -1.9153830    -0.8833870
  H       -2.7491970    -1.9153410     0.8834260
  H       -3.6031060    -0.6413200    -0.0000150
  H        2.9043230     0.7325940     0.0000170
units angstrom
no_reorient  #important for SAPT in psi4, default
symmetry c1  #important for SAPT in psi4, default
}

set PROPERTIES_ORIGIN ["COM"]
properties('MP2/aug-cc-pvtz', properties = ['dipole'])
--------------------------------------------------------------------------

    Molecular point group: c1
  Charge       = 0
  Multiplicity = 1
  Basis Set: AUG-CC-PVTZ
    Blend: AUG-CC-PVTZ
  Basis Set: (AUG-CC-PVTZ AUX)
    Blend: AUG-CC-PVTZ-JKFIT

    Orbital Energies [Eh]
    ---------------------

    Doubly Occupied:

       1A    -91.997789     2A    -20.556327     3A    -11.344815
       4A    -11.277485     5A    -11.276634     6A    -11.262609
       7A    -11.250455     8A    -11.242586     9A     -8.997836
      10A     -6.678834    11A     -6.678200    12A     -6.677467
      13A     -1.380888    14A     -1.202866    15A     -1.063136
      16A     -1.001153    17A     -0.950499    18A     -0.874902
      19A     -0.766653    20A     -0.738665    21A     -0.680819
      22A     -0.646157    23A     -0.607845    24A     -0.600568
      25A     -0.585751    26A     -0.553738    27A     -0.542557
      28A     -0.520642    29A     -0.504937    30A     -0.487568
      31A     -0.435000    32A     -0.362157    33A     -0.342843

  @DF-RHF Final Energy:  -703.18672048392784

   => Energetics <=

    Nuclear Repulsion Energy =            405.7484175390148380
    One-Electron Energy =               -1769.6895143489555267
    Two-Electron Energy =                 660.7543763260129026
    Total Energy =                       -703.1867204839278429
  Basis Set: (AUG-CC-PVTZ AUX)
    Blend: AUG-CC-PVTZ-RI
    Molecular point group: c1

    Geometry (in Angstrom), charge = 0, multiplicity = 1:

       Center              X                  Y                   Z               Mass
    ------------   -----------------  -----------------  -----------------  -----------------
         S            0.062595886819     1.583537352085     0.000000229948    31.972071174400
         O            2.727135886819    -1.320656647915    -0.000006770052    15.994914619570
         C           -1.528255113181    -0.457209647915    -0.000005770052    12.000000000000
         C           -0.213312113181    -0.977195647915    -0.000000770052    12.000000000000
         C            0.762854886819     0.004805352085     0.000007229948    12.000000000000
         C           -1.520339913181     0.828100252085    -0.000004870052    12.000000000000
         C           -2.775662113181    -1.293765647915     0.000005229948    12.000000000000
         C            2.211587886819    -0.204656647915     0.000005229948    12.000000000000
         H            0.043397886819    -2.032920647915    -0.000002770052     1.007825032230
         H           -2.377775113181     1.590652352085    -0.000013770052     1.007825032230
         H           -2.815122113181    -1.938123647915    -0.883386770052     1.007825032230
         H           -2.815132113181    -1.938081647915     0.883426229948     1.007825032230
         H           -3.669041113181    -0.664060647915    -0.000014770052     1.007825032230
         H            2.838387886819     0.709853352085     0.000017229948     1.007825032230

  Basis Set: AUG-CC-PVTZ
    Blend: AUG-CC-PVTZ
  Basis Set: (AUG-CC-PVTZ AUX)
    Blend: AUG-CC-PVTZ-JKFIT
	 Reference Energy          =    -703.1867204839278429 [Eh]
	 Singles Energy            =      -0.0000000000000000 [Eh]
	 Same-Spin Energy          =      -0.3829850828292315 [Eh]
	 Opposite-Spin Energy      =      -1.1755352823860716 [Eh]
	 Correlation Energy        =      -1.5585203652153032 [Eh]
	 Total Energy              =    -704.7452408491431015 [Eh]

	 ================> DF-SCS-MP2 Energies <==================
	-----------------------------------------------------------
	 SCS Same-Spin Scale       =       0.3333333333333333 [-]
	 SCS Opposite-Spin Scale   =       1.2000000000000000 [-]
	 SCS Same-Spin Energy      =      -0.1276616942764105 [Eh]
	 SCS Opposite-Spin Energy  =      -1.4106423388632858 [Eh]
	 SCS Correlation Energy    =      -1.5383040331396964 [Eh]
	 SCS Total Energy          =    -704.7250245170675953 [Eh]
	-----------------------------------------------------------

  Dipole Moment: [D]
     X:    -3.0998      Y:     1.4388      Z:     0.0000     Total:     3.4175

*** Psi4 exiting successfully. Buy a developer a beer!
