                               Psi4 1.4a3.dev225

  ==> Input File <==

--------------------------------------------------------------------------
#psi4
#
memory 32 gb

molecule  {
0 1
  S        0.1285310     1.6062780     0.0000000
  O        2.7930710    -1.2979160    -0.0000070
  C       -1.4623200    -0.4344690    -0.0000060
  C       -0.1473770    -0.9544550    -0.0000010
  C        0.8287900     0.0275460     0.0000070
  C       -1.4537890     0.9508390    -0.0000050
  C       -2.7097270    -1.2710250     0.0000050
  C        2.2775230    -0.1819160     0.0000050
  H        0.1093330    -2.0101800    -0.0000030
  H       -2.3514151     1.6439514    -0.0000144
  H       -2.7491870    -1.9153830    -0.8833870
  H       -2.7491970    -1.9153410     0.8834260
  H       -3.6031060    -0.6413200    -0.0000150
  H        2.9043230     0.7325940     0.0000170
units angstrom
no_reorient  #important for SAPT in psi4, default
symmetry c1  #important for SAPT in psi4, default
}

set PROPERTIES_ORIGIN ["COM"]
properties('MP2/aug-cc-pvtz', properties = ['dipole'])
--------------------------------------------------------------------------

    Molecular point group: c1
  Charge       = 0
  Multiplicity = 1
  Basis Set: AUG-CC-PVTZ
    Blend: AUG-CC-PVTZ
  Basis Set: (AUG-CC-PVTZ AUX)
    Blend: AUG-CC-PVTZ-JKFIT

    Orbital Energies [Eh]
    ---------------------

    Doubly Occupied:

       1A    -92.004495     2A    -20.554991     3A    -11.344716
       4A    -11.288321     5A    -11.276274     6A    -11.263365
       7A    -11.261384     8A    -11.241900     9A     -9.004524
      10A     -6.685487    11A     -6.685026    12A     -6.684293
      13A     -1.380008    14A     -1.193715    15A     -1.055146
      16A     -1.008408    17A     -0.946592    18A     -0.864706
      19A     -0.768649    20A     -0.737849    21A     -0.679273
      22A     -0.646564    23A     -0.604797    24A     -0.596610
      25A     -0.584571    26A     -0.553898    27A     -0.538420
      28A     -0.532433    29A     -0.503027    30A     -0.490351
      31A     -0.434431    32A     -0.356565    33A     -0.336665

  @DF-RHF Final Energy:  -703.19419682354749

   => Energetics <=

    Nuclear Repulsion Energy =            404.4060177615853604
    One-Electron Energy =               -1766.9855214559925116
    Two-Electron Energy =                 659.3853068708596084
    Total Energy =                       -703.1941968235474860
  Basis Set: (AUG-CC-PVTZ AUX)
    Blend: AUG-CC-PVTZ-RI
    Molecular point group: c1

    Geometry (in Angstrom), charge = 0, multiplicity = 1:

       Center              X                  Y                   Z               Mass
    ------------   -----------------  -----------------  -----------------  -----------------
         S            0.062853756523     1.573770379005     0.000000223624    31.972071174400
         O            2.727393756523    -1.330423620995    -0.000006776376    15.994914619570
         C           -1.527997243477    -0.466976620995    -0.000005776376    12.000000000000
         C           -0.213054243477    -0.986962620995    -0.000000776376    12.000000000000
         C            0.763112756523    -0.004961620995     0.000007223624    12.000000000000
         C           -1.519466243477     0.918331379005    -0.000004776376    12.000000000000
         C           -2.775404243477    -1.303532620995     0.000005223624    12.000000000000
         C            2.211845756523    -0.214423620995     0.000005223624    12.000000000000
         H            0.043655756523    -2.042687620995    -0.000002776376     1.007825032230
         H           -2.417092343477     1.611443779005    -0.000014176376     1.007825032230
         H           -2.814864243477    -1.947890620995    -0.883386776376     1.007825032230
         H           -2.814874243477    -1.947848620995     0.883426223624     1.007825032230
         H           -3.668783243477    -0.673827620995    -0.000014776376     1.007825032230
         H            2.838645756523     0.700086379005     0.000017223624     1.007825032230

  Basis Set: AUG-CC-PVTZ
    Blend: AUG-CC-PVTZ
  Basis Set: (AUG-CC-PVTZ AUX)
    Blend: AUG-CC-PVTZ-JKFIT
	 Reference Energy          =    -703.1941968235474860 [Eh]
	 Singles Energy            =      -0.0000000000000000 [Eh]
	 Same-Spin Energy          =      -0.3847630716110095 [Eh]
	 Opposite-Spin Energy      =      -1.1772787495700927 [Eh]
	 Correlation Energy        =      -1.5620418211811022 [Eh]
	 Total Energy              =    -704.7562386447285689 [Eh]

	 ================> DF-SCS-MP2 Energies <==================
	-----------------------------------------------------------
	 SCS Same-Spin Scale       =       0.3333333333333333 [-]
	 SCS Opposite-Spin Scale   =       1.2000000000000000 [-]
	 SCS Same-Spin Energy      =      -0.1282543572036698 [Eh]
	 SCS Opposite-Spin Energy  =      -1.4127344994841111 [Eh]
	 SCS Correlation Energy    =      -1.5409888566877810 [Eh]
	 SCS Total Energy          =    -704.7351856802353041 [Eh]
	-----------------------------------------------------------

  Dipole Moment: [D]
     X:    -3.1339      Y:     1.5341      Z:     0.0000     Total:     3.4892

*** Psi4 exiting successfully. Buy a developer a beer!
