                               Psi4 1.4a3.dev225

  ==> Input File <==

--------------------------------------------------------------------------
#psi4
#
memory 32 gb

molecule  {
0 1
  S        0.1285310     1.6062780     0.0000000
  O        2.7930710    -1.2979160    -0.0000070
  C       -1.4623200    -0.4344690    -0.0000060
  C       -0.1473770    -0.9544550    -0.0000010
  C        0.8287900     0.0275460     0.0000070
  C       -1.4537890     0.9508390    -0.0000050
  C       -2.7097270    -1.2710250     0.0000050
  C        2.2775230    -0.1819160     0.0000050
  H        0.1140585    -2.0296137    -0.0000030
  H       -2.3118400     1.6133930    -0.0000140
  H       -2.7491870    -1.9153830    -0.8833870
  H       -2.7491970    -1.9153410     0.8834260
  H       -3.6031060    -0.6413200    -0.0000150
  H        2.9043230     0.7325940     0.0000170
units angstrom
no_reorient  #important for SAPT in psi4, default
symmetry c1  #important for SAPT in psi4, default
}

set PROPERTIES_ORIGIN ["COM"]
properties('MP2/aug-cc-pvtz', properties = ['dipole'])
--------------------------------------------------------------------------

    Molecular point group: c1
  Charge       = 0
  Multiplicity = 1
  Basis Set: AUG-CC-PVTZ
    Blend: AUG-CC-PVTZ
  Basis Set: (AUG-CC-PVTZ AUX)
    Blend: AUG-CC-PVTZ-JKFIT

    Orbital Energies [Eh]
    ---------------------

    Doubly Occupied:

       1A    -92.004230     2A    -20.554906     3A    -11.344616
       4A    -11.283160     5A    -11.276281     6A    -11.263791
       7A    -11.262662     8A    -11.241955     9A     -9.004284
      10A     -6.685253    11A     -6.684790    12A     -6.684060
      13A     -1.379913    14A     -1.193758    15A     -1.055214
      16A     -1.009223    17A     -0.946291    18A     -0.866248
      19A     -0.772883    20A     -0.737012    21A     -0.678902
      22A     -0.647699    23A     -0.604161    24A     -0.596599
      25A     -0.588764    26A     -0.553814    27A     -0.538402
      28A     -0.532878    29A     -0.502933    30A     -0.489946
      31A     -0.434415    32A     -0.356430    33A     -0.336649

  @DF-RHF Final Energy:  -703.19607297793732

   => Energetics <=

    Nuclear Repulsion Energy =            404.5684859781038085
    One-Electron Energy =               -1767.3048723410015555
    Two-Electron Energy =                 659.5403133849604274
    Total Energy =                       -703.1960729779373196
  Basis Set: (AUG-CC-PVTZ AUX)
    Blend: AUG-CC-PVTZ-RI
    Molecular point group: c1

    Geometry (in Angstrom), charge = 0, multiplicity = 1:

       Center              X                  Y                   Z               Mass
    ------------   -----------------  -----------------  -----------------  -----------------
         S            0.062499452428     1.574170202163     0.000000220425    31.972071174400
         O            2.727039452428    -1.330023797837    -0.000006779575    15.994914619570
         C           -1.528351547572    -0.466576797837    -0.000005779575    12.000000000000
         C           -0.213408547572    -0.986562797837    -0.000000779575    12.000000000000
         C            0.762758452428    -0.004561797837     0.000007220425    12.000000000000
         C           -1.519820547572     0.918731202163    -0.000004779575    12.000000000000
         C           -2.775758547572    -1.303132797837     0.000005220425    12.000000000000
         C            2.211491452428    -0.214023797837     0.000005220425    12.000000000000
         H            0.048026952428    -2.061721497837    -0.000002779575     1.007825032230
         H           -2.377871547572     1.581285202163    -0.000013779575     1.007825032230
         H           -2.815218547572    -1.947490797837    -0.883386779575     1.007825032230
         H           -2.815228547572    -1.947448797837     0.883426220425     1.007825032230
         H           -3.669137547572    -0.673427797837    -0.000014779575     1.007825032230
         H            2.838291452428     0.700486202163     0.000017220425     1.007825032230

  Basis Set: AUG-CC-PVTZ
    Blend: AUG-CC-PVTZ
  Basis Set: (AUG-CC-PVTZ AUX)
    Blend: AUG-CC-PVTZ-JKFIT
	 Reference Energy          =    -703.1960729779373196 [Eh]
	 Singles Energy            =      -0.0000000000000000 [Eh]
	 Same-Spin Energy          =      -0.3846818469062726 [Eh]
	 Opposite-Spin Energy      =      -1.1770271365427185 [Eh]
	 Correlation Energy        =      -1.5617089834489910 [Eh]
	 Total Energy              =    -704.7577819613862857 [Eh]

	 ================> DF-SCS-MP2 Energies <==================
	-----------------------------------------------------------
	 SCS Same-Spin Scale       =       0.3333333333333333 [-]
	 SCS Opposite-Spin Scale   =       1.2000000000000000 [-]
	 SCS Same-Spin Energy      =      -0.1282272823020909 [Eh]
	 SCS Opposite-Spin Energy  =      -1.4124325638512623 [Eh]
	 SCS Correlation Energy    =      -1.5406598461533532 [Eh]
	 SCS Total Energy          =    -704.7367328240907227 [Eh]
	-----------------------------------------------------------

  Dipole Moment: [D]
     X:    -3.1319      Y:     1.5286      Z:     0.0000     Total:     3.4850

*** Psi4 exiting successfully. Buy a developer a beer!
