                               Psi4 1.3.2 release

  ==> Input File <==

--------------------------------------------------------------------------
#psi4
#
memory 32 gb

molecule  {
0 1
  O       -3.2622350    -0.3059220     0.0067540
  C        1.5611120    -0.3149990    -0.0153800
  C        0.3099430    -0.9407630    -0.0100630
  C       -0.8692280    -0.1880260    -0.0014190
  C        1.5994260     1.0858870    -0.0069900
  C       -0.8168260     1.2117300     0.0064260
  C        0.4233030     1.8430470     0.0013400
  C        2.8326460    -1.1226230     0.0134670
  C       -2.1766910    -0.8792860    -0.0025100
  H        0.2498670    -2.0299540    -0.0200910
  H        2.5626387     1.5925970    -0.1650759
  H       -1.7471690     1.7737230     0.0102860
  H        2.6825510    -2.1081700    -0.4357140
  H        3.6321630    -0.6167660    -0.5349600
  H        3.1786260    -1.2736230     1.0416080
  H        0.4815460     2.9289630     0.0030700
  H       -2.1255320    -1.9885980    -0.0123860
units angstrom
no_reorient  #important for SAPT in psi4, default
symmetry c1  #important for SAPT in psi4, default
}

set PROPERTIES_ORIGIN ["COM"]
properties('MP2/aug-cc-pvtz', properties = ['dipole'])
--------------------------------------------------------------------------

    Molecular point group: c1
  Charge       = 0
  Multiplicity = 1
  Basis Set: AUG-CC-PVTZ
    Blend: AUG-CC-PVTZ
  Basis Set: (AUG-CC-PVTZ AUX)
    Blend: AUG-CC-PVTZ-JKFIT

    Orbital Energies [Eh]
    ---------------------

    Doubly Occupied:

       1A    -20.554291     2A    -11.336807     3A    -11.259462
       4A    -11.257011     5A    -11.254944     6A    -11.252945
       7A    -11.250635     8A    -11.249422     9A    -11.237914
      10A     -1.378937    11A     -1.173010    12A     -1.065805
      13A     -1.042941    14A     -0.948571    15A     -0.891473
      16A     -0.834684    17A     -0.772184    18A     -0.708509
      19A     -0.678598    20A     -0.649885    21A     -0.619286
      22A     -0.608700    23A     -0.590871    24A     -0.583299
      25A     -0.552537    26A     -0.544554    27A     -0.519814
      28A     -0.502885    29A     -0.488685    30A     -0.428577
      31A     -0.353504    32A     -0.339683

  @DF-RHF Final Energy:  -382.59617611203038

   => Energetics <=

    Nuclear Repulsion Energy =            396.1853254225965770
    One-Electron Energy =               -1303.7021564405795289
    Two-Electron Energy =                 524.9206549059525742
    Total Energy =                       -382.5961761120303208
  Basis Set: (AUG-CC-PVTZ AUX)
    Blend: AUG-CC-PVTZ-RI
    Molecular point group: c1

    Geometry (in Angstrom), charge = 0, multiplicity = 1:

       Center              X                  Y                   Z               Mass
    ------------   -----------------  -----------------  -----------------  -----------------
         O           -3.188682737479    -0.320174388715     0.008317146902    15.994914619570
         C            1.634664262521    -0.329251388715    -0.013816853098    12.000000000000
         C            0.383495262521    -0.955015388715    -0.008499853098    12.000000000000
         C           -0.795675737479    -0.202278388715     0.000144146902    12.000000000000
         C            1.672978262521     1.071634611285    -0.005426853098    12.000000000000
         C           -0.743273737479     1.197477611285     0.007989146902    12.000000000000
         C            0.496855262521     1.828794611285     0.002903146902    12.000000000000
         C            2.906198262521    -1.136875388715     0.015030146902    12.000000000000
         C           -2.103138737479    -0.893538388715    -0.000946853098    12.000000000000
         H            0.323419262521    -2.044206388715    -0.018527853098     1.007825032230
         H            2.636190962521     1.578344611285    -0.163512753098     1.007825032230
         H           -1.673616737479     1.759470611285     0.011849146902     1.007825032230
         H            2.756103262521    -2.122422388715    -0.434150853098     1.007825032230
         H            3.705715262521    -0.631018388715    -0.533396853098     1.007825032230
         H            3.252178262521    -1.287875388715     1.043171146902     1.007825032230
         H            0.555098262521     2.914710611285     0.004633146902     1.007825032230
         H           -2.051979737479    -2.002850388715    -0.010822853098     1.007825032230

  Basis Set: AUG-CC-PVTZ
    Blend: AUG-CC-PVTZ
  Basis Set: (AUG-CC-PVTZ AUX)
    Blend: AUG-CC-PVTZ-JKFIT
	 Reference Energy          =    -382.5961761120303777 [Eh]
	 Singles Energy            =      -0.0000000000000000 [Eh]
	 Same-Spin Energy          =      -0.4082241952784317 [Eh]
	 Opposite-Spin Energy      =      -1.2865953133053543 [Eh]
	 Correlation Energy        =      -1.6948195085837860 [Eh]
	 Total Energy              =    -384.2909956206141828 [Eh]

	 ================> DF-SCS-MP2 Energies <==================
	-----------------------------------------------------------
	 SCS Same-Spin Scale       =       0.3333333333333333 [-]
	 SCS Opposite-Spin Scale   =       1.2000000000000000 [-]
	 SCS Same-Spin Energy      =      -0.1360747317594772 [Eh]
	 SCS Opposite-Spin Energy  =      -1.5439143759664251 [Eh]
	 SCS Correlation Energy    =      -1.6799891077259024 [Eh]
	 SCS Total Energy          =    -384.2761652197563080 [Eh]
	-----------------------------------------------------------

  Dipole Moment: [D]
     X:     3.6628      Y:    -0.5024      Z:    -0.0650     Total:     3.6977

*** Psi4 exiting successfully. Buy a developer a beer!
