                               Psi4 1.3.2 release

  ==> Input File <==

--------------------------------------------------------------------------
#psi4
#
memory 32 gb

molecule  {
0 1
  O       -3.2622350    -0.3059220     0.0067540
  C        1.5611120    -0.3149990    -0.0153800
  C        0.3099430    -0.9407630    -0.0100630
  C       -0.8692280    -0.1880260    -0.0014190
  C        1.5994260     1.0858870    -0.0069900
  C       -0.8168260     1.2117300     0.0064260
  C        0.4233030     1.8430470     0.0013400
  C        2.8326460    -1.1226230     0.0134670
  C       -2.1766910    -0.8792860    -0.0025100
  H        0.2501363    -2.0302972     0.0299071
  H        2.5637200     1.5920050    -0.0150810
  H       -1.7471690     1.7737230     0.0102860
  H        2.6825510    -2.1081700    -0.4357140
  H        3.6321630    -0.6167660    -0.5349600
  H        3.1786260    -1.2736230     1.0416080
  H        0.4815460     2.9289630     0.0030700
  H       -2.1255320    -1.9885980    -0.0123860
units angstrom
no_reorient  #important for SAPT in psi4, default
symmetry c1  #important for SAPT in psi4, default
}

set PROPERTIES_ORIGIN ["COM"]
properties('MP2/aug-cc-pvtz', properties = ['dipole'])
--------------------------------------------------------------------------

    Molecular point group: c1
  Charge       = 0
  Multiplicity = 1
  Basis Set: AUG-CC-PVTZ
    Blend: AUG-CC-PVTZ
  Basis Set: (AUG-CC-PVTZ AUX)
    Blend: AUG-CC-PVTZ-JKFIT

    Orbital Energies [Eh]
    ---------------------

    Doubly Occupied:

       1A    -20.554127     2A    -11.336667     3A    -11.259242
       4A    -11.256973     5A    -11.253991     6A    -11.252739
       7A    -11.250499     8A    -11.249277     9A    -11.237836
      10A     -1.378790    11A     -1.172919    12A     -1.065796
      13A     -1.042945    14A     -0.948572    15A     -0.891831
      16A     -0.834564    17A     -0.772312    18A     -0.709036
      19A     -0.678987    20A     -0.650121    21A     -0.619180
      22A     -0.608911    23A     -0.590728    24A     -0.583597
      25A     -0.552956    26A     -0.544388    27A     -0.520080
      28A     -0.502737    29A     -0.489121    30A     -0.428425
      31A     -0.353554    32A     -0.339607

  @DF-RHF Final Energy:  -382.59754677548193

   => Energetics <=

    Nuclear Repulsion Energy =            396.2228040925110690
    One-Electron Energy =               -1303.7796916320530727
    Two-Electron Energy =                 524.9593407640600162
    Total Energy =                       -382.5975467754819874
  Basis Set: (AUG-CC-PVTZ AUX)
    Blend: AUG-CC-PVTZ-RI
    Molecular point group: c1

    Geometry (in Angstrom), charge = 0, multiplicity = 1:

       Center              X                  Y                   Z               Mass
    ------------   -----------------  -----------------  -----------------  -----------------
         O           -3.188694075115    -0.320166538161     0.006638301960    15.994914619570
         C            1.634652924885    -0.329243538161    -0.015495698040    12.000000000000
         C            0.383483924885    -0.955007538161    -0.010178698040    12.000000000000
         C           -0.795687075115    -0.202270538161    -0.001534698040    12.000000000000
         C            1.672966924885     1.071642461839    -0.007105698040    12.000000000000
         C           -0.743285075115     1.197485461839     0.006310301960    12.000000000000
         C            0.496843924885     1.828802461839     0.001224301960    12.000000000000
         C            2.906186924885    -1.136867538161     0.013351301960    12.000000000000
         C           -2.103150075115    -0.893530538161    -0.002625698040    12.000000000000
         H            0.323677224885    -2.044541738161     0.029791401960     1.007825032230
         H            2.637260924885     1.577760461839    -0.015196698040     1.007825032230
         H           -1.673628075115     1.759478461839     0.010170301960     1.007825032230
         H            2.756091924885    -2.122414538161    -0.435829698040     1.007825032230
         H            3.705703924885    -0.631010538161    -0.535075698040     1.007825032230
         H            3.252166924885    -1.287867538161     1.041492301960     1.007825032230
         H            0.555086924885     2.914718461839     0.002954301960     1.007825032230
         H           -2.051991075115    -2.002842538161    -0.012501698040     1.007825032230

  Basis Set: AUG-CC-PVTZ
    Blend: AUG-CC-PVTZ
  Basis Set: (AUG-CC-PVTZ AUX)
    Blend: AUG-CC-PVTZ-JKFIT
	 Reference Energy          =    -382.5975467754819306 [Eh]
	 Singles Energy            =      -0.0000000000000000 [Eh]
	 Same-Spin Energy          =      -0.4081347335976339 [Eh]
	 Opposite-Spin Energy      =      -1.2864126887705858 [Eh]
	 Correlation Energy        =      -1.6945474223682195 [Eh]
	 Total Energy              =    -384.2920941978501332 [Eh]

	 ================> DF-SCS-MP2 Energies <==================
	-----------------------------------------------------------
	 SCS Same-Spin Scale       =       0.3333333333333333 [-]
	 SCS Opposite-Spin Scale   =       1.2000000000000000 [-]
	 SCS Same-Spin Energy      =      -0.1360449111992113 [Eh]
	 SCS Opposite-Spin Energy  =      -1.5436952265247028 [Eh]
	 SCS Correlation Energy    =      -1.6797401377239141 [Eh]
	 SCS Total Energy          =    -384.2772869132058418 [Eh]
	-----------------------------------------------------------

  Dipole Moment: [D]
     X:     3.6849      Y:    -0.4926      Z:     0.0519     Total:     3.7180

*** Psi4 exiting successfully. Buy a developer a beer!
