                               Psi4 1.3.2 release

  ==> Input File <==

--------------------------------------------------------------------------
#psi4
#
memory 32 gb

molecule  {
0 1
  O       -3.2622350    -0.3059220     0.0067540
  C        1.5611120    -0.3149990    -0.0153800
  C        0.3099430    -0.9407630    -0.0100630
  C       -0.8692280    -0.1880260    -0.0014190
  C        1.5994260     1.0858870    -0.0069900
  C       -0.8168260     1.2117300     0.0064260
  C        0.4233030     1.8430470     0.0013400
  C        2.8326460    -1.1226230     0.0134670
  C       -2.1766910    -0.8792860    -0.0025100
  H        0.2498670    -2.0299540    -0.0200910
  H        2.5637200     1.5920050    -0.0150810
  H       -1.7471690     1.7737230     0.0102860
  H        2.6825510    -2.1081700    -0.4357140
  H        3.6321630    -0.6167660    -0.5349600
  H        3.1786260    -1.2736230     1.0416080
  H        0.4812740     2.9290709    -0.0469291
  H       -2.1255320    -1.9885980    -0.0123860
units angstrom
no_reorient  #important for SAPT in psi4, default
symmetry c1  #important for SAPT in psi4, default
}

set PROPERTIES_ORIGIN ["COM"]
properties('MP2/aug-cc-pvtz', properties = ['dipole'])
--------------------------------------------------------------------------

    Molecular point group: c1
  Charge       = 0
  Multiplicity = 1
  Basis Set: AUG-CC-PVTZ
    Blend: AUG-CC-PVTZ
  Basis Set: (AUG-CC-PVTZ AUX)
    Blend: AUG-CC-PVTZ-JKFIT

    Orbital Energies [Eh]
    ---------------------

    Doubly Occupied:

       1A    -20.554140     2A    -11.336688     3A    -11.259236
       4A    -11.256930     5A    -11.254003     6A    -11.252745
       7A    -11.250554     8A    -11.249342     9A    -11.237860
      10A     -1.378804    11A     -1.172934    12A     -1.065804
      13A     -1.042948    14A     -0.948588    15A     -0.891856
      16A     -0.834535    17A     -0.772323    18A     -0.709085
      19A     -0.679015    20A     -0.650108    21A     -0.619188
      22A     -0.608864    23A     -0.590759    24A     -0.583533
      25A     -0.552948    26A     -0.544441    27A     -0.520111
      28A     -0.502841    29A     -0.489000    30A     -0.428440
      31A     -0.353561    32A     -0.339632

  @DF-RHF Final Energy:  -382.59753020740044

   => Energetics <=

    Nuclear Repulsion Energy =            396.2226898436844067
    One-Electron Energy =               -1303.7788118387111354
    Two-Electron Energy =                 524.9585917876263466
    Total Energy =                       -382.5975302074003821
  Basis Set: (AUG-CC-PVTZ AUX)
    Blend: AUG-CC-PVTZ-RI
    Molecular point group: c1

    Geometry (in Angstrom), charge = 0, multiplicity = 1:

       Center              X                  Y                   Z               Mass
    ------------   -----------------  -----------------  -----------------  -----------------
         O           -3.188689531162    -0.320170324928     0.007477730307    15.994914619570
         C            1.634657468838    -0.329247324928    -0.014656269693    12.000000000000
         C            0.383488468838    -0.955011324928    -0.009339269693    12.000000000000
         C           -0.795682531162    -0.202274324928    -0.000695269693    12.000000000000
         C            1.672971468838     1.071638675072    -0.006266269693    12.000000000000
         C           -0.743280531162     1.197481675072     0.007149730307    12.000000000000
         C            0.496848468838     1.828798675072     0.002063730307    12.000000000000
         C            2.906191468838    -1.136871324928     0.014190730307    12.000000000000
         C           -2.103145531162    -0.893534324928    -0.001786269693    12.000000000000
         H            0.323412468838    -2.044202324928    -0.019367269693     1.007825032230
         H            2.637265468838     1.577756675072    -0.014357269693     1.007825032230
         H           -1.673623531162     1.759474675072     0.011009730307     1.007825032230
         H            2.756096468838    -2.122418324928    -0.434990269693     1.007825032230
         H            3.705708468838    -0.631014324928    -0.534236269693     1.007825032230
         H            3.252171468838    -1.287871324928     1.042331730307     1.007825032230
         H            0.554819468838     2.914822575072    -0.046205369693     1.007825032230
         H           -2.051986531162    -2.002846324928    -0.011662269693     1.007825032230

  Basis Set: AUG-CC-PVTZ
    Blend: AUG-CC-PVTZ
  Basis Set: (AUG-CC-PVTZ AUX)
    Blend: AUG-CC-PVTZ-JKFIT
	 Reference Energy          =    -382.5975302074004389 [Eh]
	 Singles Energy            =      -0.0000000000000000 [Eh]
	 Same-Spin Energy          =      -0.4081365876843214 [Eh]
	 Opposite-Spin Energy      =      -1.2864153633521116 [Eh]
	 Correlation Energy        =      -1.6945519510364329 [Eh]
	 Total Energy              =    -384.2920821584368696 [Eh]

	 ================> DF-SCS-MP2 Energies <==================
	-----------------------------------------------------------
	 SCS Same-Spin Scale       =       0.3333333333333333 [-]
	 SCS Opposite-Spin Scale   =       1.2000000000000000 [-]
	 SCS Same-Spin Energy      =      -0.1360455292281071 [Eh]
	 SCS Opposite-Spin Energy  =      -1.5436984360225339 [Eh]
	 SCS Correlation Energy    =      -1.6797439652506410 [Eh]
	 SCS Total Energy          =    -384.2772741726510617 [Eh]
	-----------------------------------------------------------

  Dipole Moment: [D]
     X:     3.6831      Y:    -0.4952      Z:    -0.0078     Total:     3.7162

*** Psi4 exiting successfully. Buy a developer a beer!
