                               Psi4 1.3.2 release

  ==> Input File <==

--------------------------------------------------------------------------
#psi4
#
memory 32 gb

molecule  {
0 1
  O       -3.2622350    -0.3059220     0.0067540
  C        1.5611120    -0.3149990    -0.0153800
  C        0.3099430    -0.9407630    -0.0100630
  C       -0.8692280    -0.1880260    -0.0014190
  C        1.5994260     1.0858870    -0.0069900
  C       -0.8168260     1.2117300     0.0064260
  C        0.4233030     1.8430470     0.0013400
  C        2.8326460    -1.1226230     0.0134670
  C       -2.1766910    -0.8792860    -0.0025100
  H        0.2498670    -2.0299540    -0.0200910
  H        2.5637200     1.5920050    -0.0150810
  H       -1.7465313     1.7731134     0.1602834
  H        2.6825510    -2.1081700    -0.4357140
  H        3.6321630    -0.6167660    -0.5349600
  H        3.1786260    -1.2736230     1.0416080
  H        0.4815460     2.9289630     0.0030700
  H       -2.1255320    -1.9885980    -0.0123860
units angstrom
no_reorient  #important for SAPT in psi4, default
symmetry c1  #important for SAPT in psi4, default
}

set PROPERTIES_ORIGIN ["COM"]
properties('MP2/aug-cc-pvtz', properties = ['dipole'])
--------------------------------------------------------------------------

    Molecular point group: c1
  Charge       = 0
  Multiplicity = 1
  Basis Set: AUG-CC-PVTZ
    Blend: AUG-CC-PVTZ
  Basis Set: (AUG-CC-PVTZ AUX)
    Blend: AUG-CC-PVTZ-JKFIT

    Orbital Energies [Eh]
    ---------------------

    Doubly Occupied:

       1A    -20.554098     2A    -11.336627     3A    -11.259374
       4A    -11.256947     5A    -11.254017     6A    -11.252885
       7A    -11.251067     8A    -11.249590     9A    -11.237925
      10A     -1.378734    11A     -1.172952    12A     -1.065711
      13A     -1.043000    14A     -0.948364    15A     -0.891792
      16A     -0.834513    17A     -0.772006    18A     -0.708289
      19A     -0.678658    20A     -0.650126    21A     -0.619155
      22A     -0.609035    23A     -0.591296    24A     -0.582058
      25A     -0.553007    26A     -0.544386    27A     -0.519983
      28A     -0.502820    29A     -0.488384    30A     -0.428389
      31A     -0.353610    32A     -0.339432

  @DF-RHF Final Energy:  -382.59619414350146

   => Energetics <=

    Nuclear Repulsion Energy =            396.1854130343312477
    One-Electron Energy =               -1303.7067522239242408
    Two-Electron Energy =                 524.9251450460914157
    Total Energy =                       -382.5961941435015206
  Basis Set: (AUG-CC-PVTZ AUX)
    Blend: AUG-CC-PVTZ-RI
    Molecular point group: c1

    Geometry (in Angstrom), charge = 0, multiplicity = 1:

       Center              X                  Y                   Z               Mass
    ------------   -----------------  -----------------  -----------------  -----------------
         O           -3.188697167656    -0.320164301861     0.005798855984    15.994914619570
         C            1.634649832344    -0.329241301861    -0.016335144016    12.000000000000
         C            0.383480832344    -0.955005301861    -0.011018144016    12.000000000000
         C           -0.795690167656    -0.202268301861    -0.002374144016    12.000000000000
         C            1.672963832344     1.071644698139    -0.007945144016    12.000000000000
         C           -0.743288167656     1.197487698139     0.005470855984    12.000000000000
         C            0.496840832344     1.828804698139     0.000384855984    12.000000000000
         C            2.906183832344    -1.136865301861     0.012511855984    12.000000000000
         C           -2.103153167656    -0.893528301861    -0.003465144016    12.000000000000
         H            0.323404832344    -2.044196301861    -0.021046144016     1.007825032230
         H            2.637257832344     1.577762698139    -0.016036144016     1.007825032230
         H           -1.672993467656     1.758871098139     0.159328255984     1.007825032230
         H            2.756088832344    -2.122412301861    -0.436669144016     1.007825032230
         H            3.705700832344    -0.631008301861    -0.535915144016     1.007825032230
         H            3.252163832344    -1.287865301861     1.040652855984     1.007825032230
         H            0.555083832344     2.914720698139     0.002114855984     1.007825032230
         H           -2.051994167656    -2.002840301861    -0.013341144016     1.007825032230

  Basis Set: AUG-CC-PVTZ
    Blend: AUG-CC-PVTZ
  Basis Set: (AUG-CC-PVTZ AUX)
    Blend: AUG-CC-PVTZ-JKFIT
	 Reference Energy          =    -382.5961941435014637 [Eh]
	 Singles Energy            =      -0.0000000000000000 [Eh]
	 Same-Spin Energy          =      -0.4082179073869244 [Eh]
	 Opposite-Spin Energy      =      -1.2865604257332022 [Eh]
	 Correlation Energy        =      -1.6947783331201265 [Eh]
	 Total Energy              =    -384.2909724766216186 [Eh]

	 ================> DF-SCS-MP2 Energies <==================
	-----------------------------------------------------------
	 SCS Same-Spin Scale       =       0.3333333333333333 [-]
	 SCS Opposite-Spin Scale   =       1.2000000000000000 [-]
	 SCS Same-Spin Energy      =      -0.1360726357956415 [Eh]
	 SCS Opposite-Spin Energy  =      -1.5438725108798426 [Eh]
	 SCS Correlation Energy    =      -1.6799451466754840 [Eh]
	 SCS Total Energy          =    -384.2761392901769568 [Eh]
	-----------------------------------------------------------

  Dipole Moment: [D]
     X:     3.6977      Y:    -0.5012      Z:     0.1139     Total:     3.7332

*** Psi4 exiting successfully. Buy a developer a beer!
