                               Psi4 1.3.2 release

  ==> Input File <==

--------------------------------------------------------------------------
#psi4
#
memory 32 gb

molecule  {
0 1
  O       -3.2622350    -0.3059220     0.0067540
  C        1.5611120    -0.3149990    -0.0153800
  C        0.3099430    -0.9407630    -0.0100630
  C       -0.8692280    -0.1880260    -0.0014190
  C        1.5994260     1.0858870    -0.0069900
  C       -0.8168260     1.2117300     0.0064260
  C        0.4233030     1.8430470     0.0013400
  C        2.8326460    -1.1226230     0.0134670
  C       -2.1766910    -0.8792860    -0.0025100
  H        0.2498670    -2.0299540    -0.0200910
  H        2.5633596     1.5922023    -0.0650793
  H       -1.7471690     1.7737230     0.0102860
  H        2.6825510    -2.1081700    -0.4357140
  H        3.6321630    -0.6167660    -0.5349600
  H        3.1786260    -1.2736230     1.0416080
  H        0.4815460     2.9289630     0.0030700
  H       -2.1255320    -1.9885980    -0.0123860
units angstrom
no_reorient  #important for SAPT in psi4, default
symmetry c1  #important for SAPT in psi4, default
}

set PROPERTIES_ORIGIN ["COM"]
properties('MP2/aug-cc-pvtz', properties = ['dipole'])
--------------------------------------------------------------------------

    Molecular point group: c1
  Charge       = 0
  Multiplicity = 1
  Basis Set: AUG-CC-PVTZ
    Blend: AUG-CC-PVTZ
  Basis Set: (AUG-CC-PVTZ AUX)
    Blend: AUG-CC-PVTZ-JKFIT

    Orbital Energies [Eh]
    ---------------------

    Doubly Occupied:

       1A    -20.554152     2A    -11.336695     3A    -11.259261
       4A    -11.256918     5A    -11.254109     6A    -11.252759
       7A    -11.250513     8A    -11.249291     9A    -11.237876
      10A     -1.378814    11A     -1.172938    12A     -1.065798
      13A     -1.042972    14A     -0.948581    15A     -0.891802
      16A     -0.834637    17A     -0.772301    18A     -0.709040
      19A     -0.678976    20A     -0.650148    21A     -0.619206
      22A     -0.608942    23A     -0.590789    24A     -0.583434
      25A     -0.552860    26A     -0.544454    27A     -0.520099
      28A     -0.502785    29A     -0.489138    30A     -0.428451
      31A     -0.353567    32A     -0.339633

  @DF-RHF Final Energy:  -382.59751470848863

   => Energetics <=

    Nuclear Repulsion Energy =            396.2220203617270613
    One-Electron Energy =               -1303.7771881378907892
    Two-Electron Energy =                 524.9576530676750963
    Total Energy =                       -382.5975147084885748
  Basis Set: (AUG-CC-PVTZ AUX)
    Blend: AUG-CC-PVTZ-RI
    Molecular point group: c1

    Geometry (in Angstrom), charge = 0, multiplicity = 1:

       Center              X                  Y                   Z               Mass
    ------------   -----------------  -----------------  -----------------  -----------------
         O           -3.188688789087    -0.320171075398     0.007477723592    15.994914619570
         C            1.634658210913    -0.329248075398    -0.014656276408    12.000000000000
         C            0.383489210913    -0.955012075398    -0.009339276408    12.000000000000
         C           -0.795681789087    -0.202275075398    -0.000695276408    12.000000000000
         C            1.672972210913     1.071637924602    -0.006266276408    12.000000000000
         C           -0.743279789087     1.197480924602     0.007149723592    12.000000000000
         C            0.496849210913     1.828797924602     0.002063723592    12.000000000000
         C            2.906192210913    -1.136872075398     0.014190723592    12.000000000000
         C           -2.103144789087    -0.893535075398    -0.001786276408    12.000000000000
         H            0.323413210913    -2.044203075398    -0.019367276408     1.007825032230
         H            2.636905810913     1.577953224602    -0.064355576408     1.007825032230
         H           -1.673622789087     1.759473924602     0.011009723592     1.007825032230
         H            2.756097210913    -2.122419075398    -0.434990276408     1.007825032230
         H            3.705709210913    -0.631015075398    -0.534236276408     1.007825032230
         H            3.252172210913    -1.287872075398     1.042331723592     1.007825032230
         H            0.555092210913     2.914713924602     0.003793723592     1.007825032230
         H           -2.051985789087    -2.002847075398    -0.011662276408     1.007825032230

  Basis Set: AUG-CC-PVTZ
    Blend: AUG-CC-PVTZ
  Basis Set: (AUG-CC-PVTZ AUX)
    Blend: AUG-CC-PVTZ-JKFIT
	 Reference Energy          =    -382.5975147084886316 [Eh]
	 Singles Energy            =      -0.0000000000000000 [Eh]
	 Same-Spin Energy          =      -0.4081400888374385 [Eh]
	 Opposite-Spin Energy      =      -1.2864196619428871 [Eh]
	 Correlation Energy        =      -1.6945597507803256 [Eh]
	 Total Energy              =    -384.2920744592689744 [Eh]

	 ================> DF-SCS-MP2 Energies <==================
	-----------------------------------------------------------
	 SCS Same-Spin Scale       =       0.3333333333333333 [-]
	 SCS Opposite-Spin Scale   =       1.2000000000000000 [-]
	 SCS Same-Spin Energy      =      -0.1360466962791461 [Eh]
	 SCS Opposite-Spin Energy  =      -1.5437035943314645 [Eh]
	 SCS Correlation Energy    =      -1.6797502906106108 [Eh]
	 SCS Total Energy          =    -384.2772649990992591 [Eh]
	-----------------------------------------------------------

  Dipole Moment: [D]
     X:     3.6807      Y:    -0.4943      Z:    -0.0071     Total:     3.7138

*** Psi4 exiting successfully. Buy a developer a beer!
