                               Psi4 1.3.2 release

  ==> Input File <==

--------------------------------------------------------------------------
#psi4
#
memory 32 gb

molecule  {
0 1
  O       -3.2622350    -0.3059220     0.0067540
  C        1.5611120    -0.3149990    -0.0153800
  C        0.3099430    -0.9407630    -0.0100630
  C       -0.8692280    -0.1880260    -0.0014190
  C        1.5994260     1.0858870    -0.0069900
  C       -0.8168260     1.2117300     0.0064260
  C        0.4233030     1.8430470     0.0013400
  C        2.8335482    -1.1230454    -0.0865280
  C       -2.1766910    -0.8792860    -0.0025100
  H        0.2498670    -2.0299540    -0.0200910
  H        2.5637200     1.5920050    -0.0150810
  H       -1.7471690     1.7737230     0.0102860
  H        2.6825510    -2.1081700    -0.4357140
  H        3.6321630    -0.6167660    -0.5349600
  H        3.1786260    -1.2736230     1.0416080
  H        0.4815460     2.9289630     0.0030700
  H       -2.1255320    -1.9885980    -0.0123860
units angstrom
no_reorient  #important for SAPT in psi4, default
symmetry c1  #important for SAPT in psi4, default
}

set PROPERTIES_ORIGIN ["COM"]
properties('MP2/aug-cc-pvtz', properties = ['dipole'])
--------------------------------------------------------------------------

    Molecular point group: c1
  Charge       = 0
  Multiplicity = 1
  Basis Set: AUG-CC-PVTZ
    Blend: AUG-CC-PVTZ
  Basis Set: (AUG-CC-PVTZ AUX)
    Blend: AUG-CC-PVTZ-JKFIT

    Orbital Energies [Eh]
    ---------------------

    Doubly Occupied:

       1A    -20.554204     2A    -11.336717     3A    -11.260652
       4A    -11.256856     5A    -11.253828     6A    -11.252883
       7A    -11.250321     8A    -11.249015     9A    -11.240047
      10A     -1.378832    11A     -1.172976    12A     -1.066053
      13A     -1.042983    14A     -0.949784    15A     -0.892058
      16A     -0.834990    17A     -0.772947    18A     -0.709277
      19A     -0.680383    20A     -0.651882    21A     -0.622661
      22A     -0.609391    23A     -0.586933    24A     -0.574005
      25A     -0.568282    26A     -0.540203    27A     -0.522063
      28A     -0.503865    29A     -0.483921    30A     -0.428545
      31A     -0.353683    32A     -0.336886

  @DF-RHF Final Energy:  -382.58870185377106

   => Energetics <=

    Nuclear Repulsion Energy =            396.1884261199296020
    One-Electron Energy =               -1303.6800039227566685
    Two-Electron Energy =                 524.9028759490561242
    Total Energy =                       -382.5887018537709992
  Basis Set: (AUG-CC-PVTZ AUX)
    Blend: AUG-CC-PVTZ-RI
    Molecular point group: c1

    Geometry (in Angstrom), charge = 0, multiplicity = 1:

       Center              X                  Y                   Z               Mass
    ------------   -----------------  -----------------  -----------------  -----------------
         O           -3.188781991251    -0.320127199395     0.017052721566    15.994914619570
         C            1.634565008749    -0.329204199395    -0.005081278434    12.000000000000
         C            0.383396008749    -0.954968199395     0.000235721566    12.000000000000
         C           -0.795774991251    -0.202231199395     0.008879721566    12.000000000000
         C            1.672879008749     1.071681800605     0.003308721566    12.000000000000
         C           -0.743372991251     1.197524800605     0.016724721566    12.000000000000
         C            0.496756008749     1.828841800605     0.011638721566    12.000000000000
         C            2.907001208749    -1.137250599395    -0.076229278434    12.000000000000
         C           -2.103237991251    -0.893491199395     0.007788721566    12.000000000000
         H            0.323320008749    -2.044159199395    -0.009792278434     1.007825032230
         H            2.637173008749     1.577799800605    -0.004782278434     1.007825032230
         H           -1.673715991251     1.759517800605     0.020584721566     1.007825032230
         H            2.756004008749    -2.122375199395    -0.425415278434     1.007825032230
         H            3.705616008749    -0.630971199395    -0.524661278434     1.007825032230
         H            3.252079008749    -1.287828199395     1.051906721566     1.007825032230
         H            0.554999008749     2.914757800605     0.013368721566     1.007825032230
         H           -2.052078991251    -2.002803199395    -0.002087278434     1.007825032230

  Basis Set: AUG-CC-PVTZ
    Blend: AUG-CC-PVTZ
  Basis Set: (AUG-CC-PVTZ AUX)
    Blend: AUG-CC-PVTZ-JKFIT
	 Reference Energy          =    -382.5887018537710560 [Eh]
	 Singles Energy            =      -0.0000000000000000 [Eh]
	 Same-Spin Energy          =      -0.4082534377846960 [Eh]
	 Opposite-Spin Energy      =      -1.2867629580063678 [Eh]
	 Correlation Energy        =      -1.6950163957910638 [Eh]
	 Total Energy              =    -384.2837182495621278 [Eh]

	 ================> DF-SCS-MP2 Energies <==================
	-----------------------------------------------------------
	 SCS Same-Spin Scale       =       0.3333333333333333 [-]
	 SCS Opposite-Spin Scale   =       1.2000000000000000 [-]
	 SCS Same-Spin Energy      =      -0.1360844792615653 [Eh]
	 SCS Opposite-Spin Energy  =      -1.5441155496076413 [Eh]
	 SCS Correlation Energy    =      -1.6802000288692067 [Eh]
	 SCS Total Energy          =    -384.2689018826402503 [Eh]
	-----------------------------------------------------------

  Dipole Moment: [D]
     X:     3.7162      Y:    -0.5133      Z:    -0.0290     Total:     3.7516

*** Psi4 exiting successfully. Buy a developer a beer!
