                               Psi4 1.3.2 release

  ==> Input File <==

--------------------------------------------------------------------------
#psi4
#
memory 32 gb

molecule  {
0 1
  O       -3.2622350    -0.3059220     0.0067540
  C        1.5611120    -0.3149990    -0.0153800
  C        0.3099430    -0.9407630    -0.0100630
  C       -0.8692280    -0.1880260    -0.0014190
  C        1.5994260     1.0858870    -0.0069900
  C       -0.8168260     1.2117300     0.0064260
  C        0.4233030     1.8430470     0.0013400
  C        2.8326460    -1.1226230     0.0134670
  C       -2.1758254    -0.8811310     0.2974831
  H        0.2498670    -2.0299540    -0.0200910
  H        2.5637200     1.5920050    -0.0150810
  H       -1.7471690     1.7737230     0.0102860
  H        2.6825510    -2.1081700    -0.4357140
  H        3.6321630    -0.6167660    -0.5349600
  H        3.1786260    -1.2736230     1.0416080
  H        0.4815460     2.9289630     0.0030700
  H       -2.1255320    -1.9885980    -0.0123860
units angstrom
no_reorient  #important for SAPT in psi4, default
symmetry c1  #important for SAPT in psi4, default
}

set PROPERTIES_ORIGIN ["COM"]
properties('MP2/aug-cc-pvtz', properties = ['dipole'])
--------------------------------------------------------------------------

    Molecular point group: c1
  Charge       = 0
  Multiplicity = 1
  Basis Set: AUG-CC-PVTZ
    Blend: AUG-CC-PVTZ
  Basis Set: (AUG-CC-PVTZ AUX)
    Blend: AUG-CC-PVTZ-JKFIT

    Orbital Energies [Eh]
    ---------------------

    Doubly Occupied:

       1A    -20.564553     2A    -11.348442     3A    -11.258803
       4A    -11.257149     5A    -11.255326     6A    -11.252814
       7A    -11.249728     8A    -11.248397     9A    -11.237436
      10A     -1.363642    11A     -1.171622    12A     -1.063815
      13A     -1.040533    14A     -0.947879    15A     -0.886347
      16A     -0.832633    17A     -0.770149    18A     -0.704819
      19A     -0.672636    20A     -0.646157    21A     -0.611182
      22A     -0.606042    23A     -0.589976    24A     -0.582771
      25A     -0.552371    26A     -0.537460    27A     -0.518548
      28A     -0.502201    29A     -0.484314    30A     -0.426233
      31A     -0.350949    32A     -0.337913

  @DF-RHF Final Energy:  -382.55671699069671

   => Energetics <=

    Nuclear Repulsion Energy =            395.1098366724368702
    One-Electron Energy =               -1301.5874275542212217
    Two-Electron Energy =                 523.9208738910876946
    Total Energy =                       -382.5567169906967138
  Basis Set: (AUG-CC-PVTZ AUX)
    Blend: AUG-CC-PVTZ-RI
    Molecular point group: c1

    Geometry (in Angstrom), charge = 0, multiplicity = 1:

       Center              X                  Y                   Z               Mass
    ------------   -----------------  -----------------  -----------------  -----------------
         O           -3.188778333004    -0.319985007547    -0.022926926563    15.994914619570
         C            1.634568666996    -0.329062007547    -0.045060926563    12.000000000000
         C            0.383399666996    -0.954826007547    -0.039743926563    12.000000000000
         C           -0.795771333004    -0.202089007547    -0.031099926563    12.000000000000
         C            1.672882666996     1.071823992453    -0.036670926563    12.000000000000
         C           -0.743369333004     1.197666992453    -0.023254926563    12.000000000000
         C            0.496759666996     1.828983992453    -0.028340926563    12.000000000000
         C            2.906102666996    -1.136686007547    -0.016213926563    12.000000000000
         C           -2.102368733004    -0.895194007547     0.267802173437    12.000000000000
         H            0.323323666996    -2.044017007547    -0.049771926563     1.007825032230
         H            2.637176666996     1.577941992453    -0.044761926563     1.007825032230
         H           -1.673712333004     1.759659992453    -0.019394926563     1.007825032230
         H            2.756007666996    -2.122233007547    -0.465394926563     1.007825032230
         H            3.705619666996    -0.630829007547    -0.564640926563     1.007825032230
         H            3.252082666996    -1.287686007547     1.011927073437     1.007825032230
         H            0.555002666996     2.914899992453    -0.026610926563     1.007825032230
         H           -2.052075333004    -2.002661007547    -0.042066926563     1.007825032230

  Basis Set: AUG-CC-PVTZ
    Blend: AUG-CC-PVTZ
  Basis Set: (AUG-CC-PVTZ AUX)
    Blend: AUG-CC-PVTZ-JKFIT
	 Reference Energy          =    -382.5567169906967138 [Eh]
	 Singles Energy            =      -0.0000000000000000 [Eh]
	 Same-Spin Energy          =      -0.4105976378591294 [Eh]
	 Opposite-Spin Energy      =      -1.2930302698656422 [Eh]
	 Correlation Energy        =      -1.7036279077247716 [Eh]
	 Total Energy              =    -384.2603448984214651 [Eh]

	 ================> DF-SCS-MP2 Energies <==================
	-----------------------------------------------------------
	 SCS Same-Spin Scale       =       0.3333333333333333 [-]
	 SCS Opposite-Spin Scale   =       1.2000000000000000 [-]
	 SCS Same-Spin Energy      =      -0.1368658792863764 [Eh]
	 SCS Opposite-Spin Energy  =      -1.5516363238387705 [Eh]
	 SCS Correlation Energy    =      -1.6885022031251469 [Eh]
	 SCS Total Energy          =    -384.2452191938218675 [Eh]
	-----------------------------------------------------------

  Dipole Moment: [D]
     X:     3.5426      Y:    -0.4553      Z:     0.2035     Total:     3.5775

*** Psi4 exiting successfully. Buy a developer a beer!
