                               Psi4 1.3.2 release

  ==> Input File <==

--------------------------------------------------------------------------
#psi4
#
memory 32 gb

molecule  {
0 1
  O       -3.2622350    -0.3059220     0.0067540
  C        1.5611120    -0.3149990    -0.0153800
  C        0.3099430    -0.9407630    -0.0100630
  C       -0.8692280    -0.1880260    -0.0014190
  C        1.5994260     1.0858870    -0.0069900
  C       -0.8168260     1.2117300     0.0064260
  C        0.4233030     1.8430470     0.0013400
  C        2.8326460    -1.1226230     0.0134670
  C       -2.1766910    -0.8792860    -0.0025100
  H        0.2512134    -2.0316702     0.2298995
  H        2.5637200     1.5920050    -0.0150810
  H       -1.7471690     1.7737230     0.0102860
  H        2.6825510    -2.1081700    -0.4357140
  H        3.6321630    -0.6167660    -0.5349600
  H        3.1786260    -1.2736230     1.0416080
  H        0.4815460     2.9289630     0.0030700
  H       -2.1255320    -1.9885980    -0.0123860
units angstrom
no_reorient  #important for SAPT in psi4, default
symmetry c1  #important for SAPT in psi4, default
}

set PROPERTIES_ORIGIN ["COM"]
properties('MP2/aug-cc-pvtz', properties = ['dipole'])
--------------------------------------------------------------------------

    Molecular point group: c1
  Charge       = 0
  Multiplicity = 1
  Basis Set: AUG-CC-PVTZ
    Blend: AUG-CC-PVTZ
  Basis Set: (AUG-CC-PVTZ AUX)
    Blend: AUG-CC-PVTZ-JKFIT

    Orbital Energies [Eh]
    ---------------------

    Doubly Occupied:

       1A    -20.554198     2A    -11.336564     3A    -11.260059
       4A    -11.258852     5A    -11.254156     6A    -11.253158
       7A    -11.250852     8A    -11.249645     9A    -11.237760
      10A     -1.378827    11A     -1.172990    12A     -1.065975
      13A     -1.042478    14A     -0.948459    15A     -0.891651
      16A     -0.833194    17A     -0.772430    18A     -0.707335
      19A     -0.678398    20A     -0.649308    21A     -0.619223
      22A     -0.607520    23A     -0.590757    24A     -0.582988
      25A     -0.552861    26A     -0.544014    27A     -0.519729
      28A     -0.502685    29A     -0.487819    30A     -0.428472
      31A     -0.353286    32A     -0.339688

  @DF-RHF Final Energy:  -382.59355295852407

   => Energetics <=

    Nuclear Repulsion Energy =            396.1140081323422351
    One-Electron Energy =               -1303.5644599921779445
    Two-Electron Energy =                 524.8568989013117516
    Total Energy =                       -382.5935529585240147
  Basis Set: (AUG-CC-PVTZ AUX)
    Blend: AUG-CC-PVTZ-RI
    Molecular point group: c1

    Geometry (in Angstrom), charge = 0, multiplicity = 1:

       Center              X                  Y                   Z               Mass
    ------------   -----------------  -----------------  -----------------  -----------------
         O           -3.188703116851    -0.320155012487     0.004959462054    15.994914619570
         C            1.634643883149    -0.329232012487    -0.017174537946    12.000000000000
         C            0.383474883149    -0.954996012487    -0.011857537946    12.000000000000
         C           -0.795696116851    -0.202259012487    -0.003213537946    12.000000000000
         C            1.672957883149     1.071653987513    -0.008784537946    12.000000000000
         C           -0.743294116851     1.197496987513     0.004631462054    12.000000000000
         C            0.496834883149     1.828813987513    -0.000454537946    12.000000000000
         C            2.906177883149    -1.136856012487     0.011672462054    12.000000000000
         C           -2.103159116851    -0.893519012487    -0.004304537946    12.000000000000
         H            0.324745283149    -2.045903212487     0.228104962054     1.007825032230
         H            2.637251883149     1.577771987513    -0.016875537946     1.007825032230
         H           -1.673637116851     1.759489987513     0.008491462054     1.007825032230
         H            2.756082883149    -2.122403012487    -0.437508537946     1.007825032230
         H            3.705694883149    -0.630999012487    -0.536754537946     1.007825032230
         H            3.252157883149    -1.287856012487     1.039813462054     1.007825032230
         H            0.555077883149     2.914729987513     0.001275462054     1.007825032230
         H           -2.052000116851    -2.002831012487    -0.014180537946     1.007825032230

  Basis Set: AUG-CC-PVTZ
    Blend: AUG-CC-PVTZ
  Basis Set: (AUG-CC-PVTZ AUX)
    Blend: AUG-CC-PVTZ-JKFIT
	 Reference Energy          =    -382.5935529585240715 [Eh]
	 Singles Energy            =      -0.0000000000000000 [Eh]
	 Same-Spin Energy          =      -0.4083657555361018 [Eh]
	 Opposite-Spin Energy      =      -1.2868903946008361 [Eh]
	 Correlation Energy        =      -1.6952561501369379 [Eh]
	 Total Energy              =    -384.2888091086609847 [Eh]

	 ================> DF-SCS-MP2 Energies <==================
	-----------------------------------------------------------
	 SCS Same-Spin Scale       =       0.3333333333333333 [-]
	 SCS Opposite-Spin Scale   =       1.2000000000000000 [-]
	 SCS Same-Spin Energy      =      -0.1361219185120339 [Eh]
	 SCS Opposite-Spin Energy  =      -1.5442684735210033 [Eh]
	 SCS Correlation Energy    =      -1.6803903920330372 [Eh]
	 SCS Total Energy          =    -384.2739433505570901 [Eh]
	-----------------------------------------------------------

  Dipole Moment: [D]
     X:     3.6907      Y:    -0.4516      Z:     0.1688     Total:     3.7220

*** Psi4 exiting successfully. Buy a developer a beer!
