                               Psi4 1.3.2 release

  ==> Input File <==

--------------------------------------------------------------------------
#psi4
#
memory 32 gb

molecule  {
0 1
  O       -3.2622350    -0.3059220     0.0067540
  C        1.5611120    -0.3149990    -0.0153800
  C        0.3099430    -0.9407630    -0.0100630
  C       -0.8692280    -0.1880260    -0.0014190
  C        1.5994260     1.0858870    -0.0069900
  C       -0.8168260     1.2117300     0.0064260
  C        0.4233030     1.8430470     0.0013400
  C        2.8326460    -1.1226230     0.0134670
  C       -2.1766910    -0.8792860    -0.0025100
  H        0.2498670    -2.0299540    -0.0200910
  H        2.5629991     1.5923997    -0.1150776
  H       -1.7471690     1.7737230     0.0102860
  H        2.6825510    -2.1081700    -0.4357140
  H        3.6321630    -0.6167660    -0.5349600
  H        3.1786260    -1.2736230     1.0416080
  H        0.4815460     2.9289630     0.0030700
  H       -2.1255320    -1.9885980    -0.0123860
units angstrom
no_reorient  #important for SAPT in psi4, default
symmetry c1  #important for SAPT in psi4, default
}

set PROPERTIES_ORIGIN ["COM"]
properties('MP2/aug-cc-pvtz', properties = ['dipole'])
--------------------------------------------------------------------------

    Molecular point group: c1
  Charge       = 0
  Multiplicity = 1
  Basis Set: AUG-CC-PVTZ
    Blend: AUG-CC-PVTZ
  Basis Set: (AUG-CC-PVTZ AUX)
    Blend: AUG-CC-PVTZ-JKFIT

    Orbital Energies [Eh]
    ---------------------

    Doubly Occupied:

       1A    -20.554206     2A    -11.336739     3A    -11.259340
       4A    -11.256955     5A    -11.254428     6A    -11.252831
       7A    -11.250560     8A    -11.249342     9A    -11.237896
      10A     -1.378862    11A     -1.172967    12A     -1.065801
      13A     -1.042961    14A     -0.948578    15A     -0.891677
      16A     -0.834656    17A     -0.772257    18A     -0.708834
      19A     -0.678837    20A     -0.650051    21A     -0.619241
      22A     -0.608847    23A     -0.590826    24A     -0.583368
      25A     -0.552726    26A     -0.544494    27A     -0.520001
      28A     -0.502824    29A     -0.488975    30A     -0.428500
      31A     -0.353544    32A     -0.339656

  @DF-RHF Final Energy:  -382.59701756020155

   => Energetics <=

    Nuclear Repulsion Energy =            396.2080447003819472
    One-Electron Energy =               -1303.7485663466688948
    Two-Electron Energy =                 524.9435040860853405
    Total Energy =                       -382.5970175602016070
  Basis Set: (AUG-CC-PVTZ AUX)
    Blend: AUG-CC-PVTZ-RI
    Molecular point group: c1

    Geometry (in Angstrom), charge = 0, multiplicity = 1:

       Center              X                  Y                   Z               Mass
    ------------   -----------------  -----------------  -----------------  -----------------
         O           -3.188685762863    -0.320172732476     0.007897435247    15.994914619570
         C            1.634661237137    -0.329249732476    -0.014236564753    12.000000000000
         C            0.383492237137    -0.955013732476    -0.008919564753    12.000000000000
         C           -0.795678762863    -0.202276732476    -0.000275564753    12.000000000000
         C            1.672975237137     1.071636267524    -0.005846564753    12.000000000000
         C           -0.743276762863     1.197479267524     0.007569435247    12.000000000000
         C            0.496852237137     1.828796267524     0.002483435247    12.000000000000
         C            2.906195237137    -1.136873732476     0.014610435247    12.000000000000
         C           -2.103141762863    -0.893536732476    -0.001366564753    12.000000000000
         H            0.323416237137    -2.044204732476    -0.018947564753     1.007825032230
         H            2.636548337137     1.578148967524    -0.113934164753     1.007825032230
         H           -1.673619762863     1.759472267524     0.011429435247     1.007825032230
         H            2.756100237137    -2.122420732476    -0.434570564753     1.007825032230
         H            3.705712237137    -0.631016732476    -0.533816564753     1.007825032230
         H            3.252175237137    -1.287873732476     1.042751435247     1.007825032230
         H            0.555095237137     2.914712267524     0.004213435247     1.007825032230
         H           -2.051982762863    -2.002848732476    -0.011242564753     1.007825032230

  Basis Set: AUG-CC-PVTZ
    Blend: AUG-CC-PVTZ
  Basis Set: (AUG-CC-PVTZ AUX)
    Blend: AUG-CC-PVTZ-JKFIT
	 Reference Energy          =    -382.5970175602015502 [Eh]
	 Singles Energy            =      -0.0000000000000000 [Eh]
	 Same-Spin Energy          =      -0.4081724291463853 [Eh]
	 Opposite-Spin Energy      =      -1.2864841620784264 [Eh]
	 Correlation Energy        =      -1.6946565912248117 [Eh]
	 Total Energy              =    -384.2916741514263776 [Eh]

	 ================> DF-SCS-MP2 Energies <==================
	-----------------------------------------------------------
	 SCS Same-Spin Scale       =       0.3333333333333333 [-]
	 SCS Opposite-Spin Scale   =       1.2000000000000000 [-]
	 SCS Same-Spin Energy      =      -0.1360574763821284 [Eh]
	 SCS Opposite-Spin Energy  =      -1.5437809944941117 [Eh]
	 SCS Correlation Energy    =      -1.6798384708762402 [Eh]
	 SCS Total Energy          =    -384.2768560310777843 [Eh]
	-----------------------------------------------------------

  Dipole Moment: [D]
     X:     3.6736      Y:    -0.4974      Z:    -0.0362     Total:     3.7073

*** Psi4 exiting successfully. Buy a developer a beer!
