                               Psi4 1.3.2 release

  ==> Input File <==

--------------------------------------------------------------------------
#psi4
#
memory 32 gb

molecule  {
0 1
  O       -3.2622350    -0.3059220     0.0067540
  C        1.5611120    -0.3149990    -0.0153800
  C        0.3099430    -0.9407630    -0.0100630
  C       -0.8692280    -0.1880260    -0.0014190
  C        1.5994260     1.0858870    -0.0069900
  C       -0.8168260     1.2117300     0.0064260
  C        0.4233030     1.8430470     0.0013400
  C        2.8326460    -1.1226230     0.0134670
  C       -2.1766910    -0.8792860    -0.0025100
  H        0.2504056    -2.0306405     0.0799052
  H        2.5637200     1.5920050    -0.0150810
  H       -1.7471690     1.7737230     0.0102860
  H        2.6825510    -2.1081700    -0.4357140
  H        3.6321630    -0.6167660    -0.5349600
  H        3.1786260    -1.2736230     1.0416080
  H        0.4815460     2.9289630     0.0030700
  H       -2.1255320    -1.9885980    -0.0123860
units angstrom
no_reorient  #important for SAPT in psi4, default
symmetry c1  #important for SAPT in psi4, default
}

set PROPERTIES_ORIGIN ["COM"]
properties('MP2/aug-cc-pvtz', properties = ['dipole'])
--------------------------------------------------------------------------

    Molecular point group: c1
  Charge       = 0
  Multiplicity = 1
  Basis Set: AUG-CC-PVTZ
    Blend: AUG-CC-PVTZ
  Basis Set: (AUG-CC-PVTZ AUX)
    Blend: AUG-CC-PVTZ-JKFIT

    Orbital Energies [Eh]
    ---------------------

    Doubly Occupied:

       1A    -20.554132     2A    -11.336650     3A    -11.259315
       4A    -11.257225     5A    -11.254008     6A    -11.252788
       7A    -11.250536     8A    -11.249321     9A    -11.237816
      10A     -1.378791    11A     -1.172922    12A     -1.065815
      13A     -1.042880    14A     -0.948554    15A     -0.891804
      16A     -0.834380    17A     -0.772323    18A     -0.708804
      19A     -0.678910    20A     -0.650003    21A     -0.619182
      22A     -0.608725    23A     -0.590711    24A     -0.583601
      25A     -0.552956    26A     -0.544322    27A     -0.520024
      28A     -0.502718    29A     -0.488958    30A     -0.428427
      31A     -0.353516    32A     -0.339610

  @DF-RHF Final Energy:  -382.59708617159663

   => Energetics <=

    Nuclear Repulsion Energy =            396.2091326966670408
    One-Electron Energy =               -1303.7529820075194493
    Two-Electron Energy =                 524.9467631392558360
    Total Energy =                       -382.5970861715966294
  Basis Set: (AUG-CC-PVTZ AUX)
    Blend: AUG-CC-PVTZ-RI
    Molecular point group: c1

    Geometry (in Angstrom), charge = 0, multiplicity = 1:

       Center              X                  Y                   Z               Mass
    ------------   -----------------  -----------------  -----------------  -----------------
         O           -3.188696335759    -0.320163656323     0.006218591983    15.994914619570
         C            1.634650664241    -0.329240656323    -0.015915408017    12.000000000000
         C            0.383481664241    -0.955004656323    -0.010598408017    12.000000000000
         C           -0.795689335759    -0.202267656323    -0.001954408017    12.000000000000
         C            1.672964664241     1.071645343677    -0.007525408017    12.000000000000
         C           -0.743287335759     1.197488343677     0.005890591983    12.000000000000
         C            0.496841664241     1.828805343677     0.000804591983    12.000000000000
         C            2.906184664241    -1.136864656323     0.012931591983    12.000000000000
         C           -2.103152335759    -0.893527656323    -0.003045408017    12.000000000000
         H            0.323944264241    -2.044882156323     0.079369791983     1.007825032230
         H            2.637258664241     1.577763343677    -0.015616408017     1.007825032230
         H           -1.673630335759     1.759481343677     0.009750591983     1.007825032230
         H            2.756089664241    -2.122411656323    -0.436249408017     1.007825032230
         H            3.705701664241    -0.631007656323    -0.535495408017     1.007825032230
         H            3.252164664241    -1.287864656323     1.041072591983     1.007825032230
         H            0.555084664241     2.914721343677     0.002534591983     1.007825032230
         H           -2.051993335759    -2.002839656323    -0.012921408017     1.007825032230

  Basis Set: AUG-CC-PVTZ
    Blend: AUG-CC-PVTZ
  Basis Set: (AUG-CC-PVTZ AUX)
    Blend: AUG-CC-PVTZ-JKFIT
	 Reference Energy          =    -382.5970861715966294 [Eh]
	 Singles Energy            =      -0.0000000000000000 [Eh]
	 Same-Spin Energy          =      -0.4081626820059341 [Eh]
	 Opposite-Spin Energy      =      -1.2864664557558103 [Eh]
	 Correlation Energy        =      -1.6946291377617444 [Eh]
	 Total Energy              =    -384.2917153093583806 [Eh]

	 ================> DF-SCS-MP2 Energies <==================
	-----------------------------------------------------------
	 SCS Same-Spin Scale       =       0.3333333333333333 [-]
	 SCS Opposite-Spin Scale   =       1.2000000000000000 [-]
	 SCS Same-Spin Energy      =      -0.1360542273353114 [Eh]
	 SCS Opposite-Spin Energy  =      -1.5437597469069724 [Eh]
	 SCS Correlation Energy    =      -1.6798139742422837 [Eh]
	 SCS Total Energy          =    -384.2769001458389084 [Eh]
	-----------------------------------------------------------

  Dipole Moment: [D]
     X:     3.6859      Y:    -0.4881      Z:     0.0816     Total:     3.7190

*** Psi4 exiting successfully. Buy a developer a beer!
