                               Psi4 1.3.2 release

  ==> Input File <==

--------------------------------------------------------------------------
#psi4
#
memory 32 gb

molecule  {
0 1
  O       -3.2622350    -0.3059220     0.0067540
  C        1.5611120    -0.3149990    -0.0153800
  C        0.3099430    -0.9407630    -0.0100630
  C       -0.8692280    -0.1880260    -0.0014190
  C        1.5994260     1.0858870    -0.0069900
  C       -0.8168260     1.2117300     0.0064260
  C        0.4233030     1.8430470     0.0013400
  C        2.8339993    -1.1232567    -0.1365256
  C       -2.1766910    -0.8792860    -0.0025100
  H        0.2498670    -2.0299540    -0.0200910
  H        2.5637200     1.5920050    -0.0150810
  H       -1.7471690     1.7737230     0.0102860
  H        2.6825510    -2.1081700    -0.4357140
  H        3.6321630    -0.6167660    -0.5349600
  H        3.1786260    -1.2736230     1.0416080
  H        0.4815460     2.9289630     0.0030700
  H       -2.1255320    -1.9885980    -0.0123860
units angstrom
no_reorient  #important for SAPT in psi4, default
symmetry c1  #important for SAPT in psi4, default
}

set PROPERTIES_ORIGIN ["COM"]
properties('MP2/aug-cc-pvtz', properties = ['dipole'])
--------------------------------------------------------------------------

    Molecular point group: c1
  Charge       = 0
  Multiplicity = 1
  Basis Set: AUG-CC-PVTZ
    Blend: AUG-CC-PVTZ
  Basis Set: (AUG-CC-PVTZ AUX)
    Blend: AUG-CC-PVTZ-JKFIT

    Orbital Energies [Eh]
    ---------------------

    Doubly Occupied:

       1A    -20.554310     2A    -11.336805     3A    -11.261939
       4A    -11.256940     5A    -11.253844     6A    -11.253065
       7A    -11.250390     8A    -11.248899     9A    -11.242282
      10A     -1.378916    11A     -1.173085    12A     -1.066202
      13A     -1.043077    14A     -0.950962    15A     -0.892278
      16A     -0.835345    17A     -0.773573    18A     -0.709575
      19A     -0.681461    20A     -0.653099    21A     -0.625399
      22A     -0.609680    23A     -0.588297    24A     -0.581669
      25A     -0.562289    26A     -0.536214    27A     -0.522515
      28A     -0.504811    29A     -0.479467    30A     -0.428663
      31A     -0.353835    32A     -0.335125

  @DF-RHF Final Energy:  -382.57838696367634

   => Energetics <=

    Nuclear Repulsion Energy =            396.1357044937876140
    One-Electron Energy =               -1303.5401611497516114
    Two-Electron Energy =                 524.8260696922875468
    Total Energy =                       -382.5783869636763939
  Basis Set: (AUG-CC-PVTZ AUX)
    Blend: AUG-CC-PVTZ-RI
    Molecular point group: c1

    Geometry (in Angstrom), charge = 0, multiplicity = 1:

       Center              X                  Y                   Z               Mass
    ------------   -----------------  -----------------  -----------------  -----------------
         O           -3.188827079640    -0.320106079518     0.022050086375    15.994914619570
         C            1.634519920360    -0.329183079518    -0.000083913625    12.000000000000
         C            0.383350920360    -0.954947079518     0.005233086375    12.000000000000
         C           -0.795820079640    -0.202210079518     0.013877086375    12.000000000000
         C            1.672833920360     1.071702920482     0.008306086375    12.000000000000
         C           -0.743418079640     1.197545920482     0.021722086375    12.000000000000
         C            0.496710920360     1.828862920482     0.016636086375    12.000000000000
         C            2.907407220360    -1.137440779518    -0.121229513625    12.000000000000
         C           -2.103283079640    -0.893470079518     0.012786086375    12.000000000000
         H            0.323274920360    -2.044138079518    -0.004794913625     1.007825032230
         H            2.637127920360     1.577820920482     0.000215086375     1.007825032230
         H           -1.673761079640     1.759538920482     0.025582086375     1.007825032230
         H            2.755958920360    -2.122354079518    -0.420417913625     1.007825032230
         H            3.705570920360    -0.630950079518    -0.519663913625     1.007825032230
         H            3.252033920360    -1.287807079518     1.056904086375     1.007825032230
         H            0.554953920360     2.914778920482     0.018366086375     1.007825032230
         H           -2.052124079640    -2.002782079518     0.002910086375     1.007825032230

  Basis Set: AUG-CC-PVTZ
    Blend: AUG-CC-PVTZ
  Basis Set: (AUG-CC-PVTZ AUX)
    Blend: AUG-CC-PVTZ-JKFIT
	 Reference Energy          =    -382.5783869636763370 [Eh]
	 Singles Energy            =      -0.0000000000000000 [Eh]
	 Same-Spin Energy          =      -0.4083995370432565 [Eh]
	 Opposite-Spin Energy      =      -1.2872371627847048 [Eh]
	 Correlation Energy        =      -1.6956366998279613 [Eh]
	 Total Energy              =    -384.2740236635042947 [Eh]

	 ================> DF-SCS-MP2 Energies <==================
	-----------------------------------------------------------
	 SCS Same-Spin Scale       =       0.3333333333333333 [-]
	 SCS Opposite-Spin Scale   =       1.2000000000000000 [-]
	 SCS Same-Spin Energy      =      -0.1361331790144188 [Eh]
	 SCS Opposite-Spin Energy  =      -1.5446845953416457 [Eh]
	 SCS Correlation Energy    =      -1.6808177743560646 [Eh]
	 SCS Total Energy          =    -384.2592047380323947 [Eh]
	-----------------------------------------------------------

  Dipole Moment: [D]
     X:     3.7237      Y:    -0.5197      Z:    -0.0572     Total:     3.7602

*** Psi4 exiting successfully. Buy a developer a beer!
