                               Psi4 1.3.2 release

  ==> Input File <==

--------------------------------------------------------------------------
#psi4
#
memory 32 gb

molecule  {
0 1
  O       -3.2622350    -0.3059220     0.0067540
  C        1.5611120    -0.3149990    -0.0153800
  C        0.3099430    -0.9407630    -0.0100630
  C       -0.8692280    -0.1880260    -0.0014190
  C        1.5994260     1.0858870    -0.0069900
  C       -0.8168260     1.2117300     0.0064260
  C        0.4233030     1.8430470     0.0013400
  C        2.8353527    -1.1238903    -0.2865181
  C       -2.1766910    -0.8792860    -0.0025100
  H        0.2498670    -2.0299540    -0.0200910
  H        2.5637200     1.5920050    -0.0150810
  H       -1.7471690     1.7737230     0.0102860
  H        2.6825510    -2.1081700    -0.4357140
  H        3.6321630    -0.6167660    -0.5349600
  H        3.1786260    -1.2736230     1.0416080
  H        0.4815460     2.9289630     0.0030700
  H       -2.1255320    -1.9885980    -0.0123860
units angstrom
no_reorient  #important for SAPT in psi4, default
symmetry c1  #important for SAPT in psi4, default
}

set PROPERTIES_ORIGIN ["COM"]
properties('MP2/aug-cc-pvtz', properties = ['dipole'])
--------------------------------------------------------------------------

    Molecular point group: c1
  Charge       = 0
  Multiplicity = 1
  Basis Set: AUG-CC-PVTZ
    Blend: AUG-CC-PVTZ
  Basis Set: (AUG-CC-PVTZ AUX)
    Blend: AUG-CC-PVTZ-JKFIT

    Orbital Energies [Eh]
    ---------------------

    Doubly Occupied:

       1A    -20.554815     2A    -11.337254     3A    -11.267547
       4A    -11.257494     5A    -11.254155     6A    -11.253896
       7A    -11.253212     8A    -11.250975     9A    -11.248663
      10A     -1.379347    11A     -1.173603    12A     -1.066542
      13A     -1.043590    14A     -0.955722    15A     -0.893196
      16A     -0.836681    17A     -0.775733    18A     -0.710862
      19A     -0.686990    20A     -0.658619    21A     -0.635858
      22A     -0.610455    23A     -0.599167    24A     -0.587688
      25A     -0.555228    26A     -0.525888    27A     -0.519244
      28A     -0.507360    29A     -0.461088    30A     -0.429182
      31A     -0.354565    32A     -0.328258

  @DF-RHF Final Energy:  -382.53224678109427

   => Energetics <=

    Nuclear Repulsion Energy =            395.8196042727274744
    One-Electron Energy =               -1302.7579416873006721
    Two-Electron Energy =                 524.4060906334789252
    Total Energy =                       -382.5322467810942726
  Basis Set: (AUG-CC-PVTZ AUX)
    Blend: AUG-CC-PVTZ-RI
    Molecular point group: c1

    Geometry (in Angstrom), charge = 0, multiplicity = 1:

       Center              X                  Y                   Z               Mass
    ------------   -----------------  -----------------  -----------------  -----------------
         O           -3.188962354804    -0.320042749871     0.037042150819    15.994914619570
         C            1.634384645196    -0.329119749871     0.014908150819    12.000000000000
         C            0.383215645196    -0.954883749871     0.020225150819    12.000000000000
         C           -0.795955354804    -0.202146749871     0.028869150819    12.000000000000
         C            1.672698645196     1.071766250129     0.023298150819    12.000000000000
         C           -0.743553354804     1.197609250129     0.036714150819    12.000000000000
         C            0.496575645196     1.828926250129     0.031628150819    12.000000000000
         C            2.908625345196    -1.138011049871    -0.256229949181    12.000000000000
         C           -2.103418354804    -0.893406749871     0.027778150819    12.000000000000
         H            0.323139645196    -2.044074749871     0.010197150819     1.007825032230
         H            2.636992645196     1.577884250129     0.015207150819     1.007825032230
         H           -1.673896354804     1.759602250129     0.040574150819     1.007825032230
         H            2.755823645196    -2.122290749871    -0.405425849181     1.007825032230
         H            3.705435645196    -0.630886749871    -0.504671849181     1.007825032230
         H            3.251898645196    -1.287743749871     1.071896150819     1.007825032230
         H            0.554818645196     2.914842250129     0.033358150819     1.007825032230
         H           -2.052259354804    -2.002718749871     0.017902150819     1.007825032230

  Basis Set: AUG-CC-PVTZ
    Blend: AUG-CC-PVTZ
  Basis Set: (AUG-CC-PVTZ AUX)
    Blend: AUG-CC-PVTZ-JKFIT
	 Reference Energy          =    -382.5322467810942726 [Eh]
	 Singles Energy            =      -0.0000000000000000 [Eh]
	 Same-Spin Energy          =      -0.4091696896551054 [Eh]
	 Opposite-Spin Energy      =      -1.2898901032156522 [Eh]
	 Correlation Energy        =      -1.6990597928707576 [Eh]
	 Total Energy              =    -384.2313065739650142 [Eh]

	 ================> DF-SCS-MP2 Energies <==================
	-----------------------------------------------------------
	 SCS Same-Spin Scale       =       0.3333333333333333 [-]
	 SCS Opposite-Spin Scale   =       1.2000000000000000 [-]
	 SCS Same-Spin Energy      =      -0.1363898965517018 [Eh]
	 SCS Opposite-Spin Energy  =      -1.5478681238587826 [Eh]
	 SCS Correlation Energy    =      -1.6842580204104844 [Eh]
	 SCS Total Energy          =    -384.2165048015047546 [Eh]
	-----------------------------------------------------------

  Dipole Moment: [D]
     X:     3.7276      Y:    -0.5311      Z:    -0.1302     Total:     3.7675

*** Psi4 exiting successfully. Buy a developer a beer!
