                               Psi4 1.3.2 release

  ==> Input File <==

--------------------------------------------------------------------------
#psi4
#
memory 32 gb

molecule  {
0 1
  O       -3.2622350    -0.3059220     0.0067540
  C        1.5611120    -0.3149990    -0.0153800
  C        0.3099430    -0.9407630    -0.0100630
  C       -0.8692280    -0.1880260    -0.0014190
  C        1.5994260     1.0858870    -0.0069900
  C       -0.8168260     1.2117300     0.0064260
  C        0.4233030     1.8430470     0.0013400
  C        2.8326460    -1.1226230     0.0134670
  C       -2.1766910    -0.8792860    -0.0025100
  H        0.2498670    -2.0299540    -0.0200910
  H        2.5637200     1.5920050    -0.0150810
  H       -1.7471690     1.7737230     0.0102860
  H        2.6825510    -2.1081700    -0.4357140
  H        3.6321630    -0.6167660    -0.5349600
  H        3.1786260    -1.2736230     1.0416080
  H        0.4804580     2.9293947    -0.1969266
  H       -2.1255320    -1.9885980    -0.0123860
units angstrom
no_reorient  #important for SAPT in psi4, default
symmetry c1  #important for SAPT in psi4, default
}

set PROPERTIES_ORIGIN ["COM"]
properties('MP2/aug-cc-pvtz', properties = ['dipole'])
--------------------------------------------------------------------------

    Molecular point group: c1
  Charge       = 0
  Multiplicity = 1
  Basis Set: AUG-CC-PVTZ
    Blend: AUG-CC-PVTZ
  Basis Set: (AUG-CC-PVTZ AUX)
    Blend: AUG-CC-PVTZ-JKFIT

    Orbital Energies [Eh]
    ---------------------

    Doubly Occupied:

       1A    -20.554252     2A    -11.336816     3A    -11.259372
       4A    -11.257270     5A    -11.254291     6A    -11.252927
       7A    -11.251607     8A    -11.250111     9A    -11.237949
      10A     -1.378917    11A     -1.173080    12A     -1.065952
      13A     -1.042617    14A     -0.948719    15A     -0.892016
      16A     -0.833244    17A     -0.772452    18A     -0.708647
      19A     -0.679045    20A     -0.649200    21A     -0.619214
      22A     -0.607146    23A     -0.590772    24A     -0.583694
      25A     -0.553051    26A     -0.544575    27A     -0.520124
      28A     -0.503501    29A     -0.487175    30A     -0.428525
      31A     -0.353356    32A     -0.339763

  @DF-RHF Final Energy:  -382.59502045137913

   => Energetics <=

    Nuclear Repulsion Energy =            396.1583269189853809
    One-Electron Energy =               -1303.6479348253153603
    Two-Electron Energy =                 524.8945874549508517
    Total Energy =                       -382.5950204513791277
  Basis Set: (AUG-CC-PVTZ AUX)
    Blend: AUG-CC-PVTZ-RI
    Molecular point group: c1

    Geometry (in Angstrom), charge = 0, multiplicity = 1:

       Center              X                  Y                   Z               Mass
    ------------   -----------------  -----------------  -----------------  -----------------
         O           -3.188682681235    -0.320173043073     0.008736887099    15.994914619570
         C            1.634664318765    -0.329250043073    -0.013397112901    12.000000000000
         C            0.383495318765    -0.955014043073    -0.008080112901    12.000000000000
         C           -0.795675681235    -0.202277043073     0.000563887099    12.000000000000
         C            1.672978318765     1.071635956927    -0.005007112901    12.000000000000
         C           -0.743273681235     1.197478956927     0.008408887099    12.000000000000
         C            0.496855318765     1.828795956927     0.003322887099    12.000000000000
         C            2.906198318765    -1.136874043073     0.015449887099    12.000000000000
         C           -2.103138681235    -0.893537043073    -0.000527112901    12.000000000000
         H            0.323419318765    -2.044205043073    -0.018108112901     1.007825032230
         H            2.637272318765     1.577753956927    -0.013098112901     1.007825032230
         H           -1.673616681235     1.759471956927     0.012268887099     1.007825032230
         H            2.756103318765    -2.122421043073    -0.433731112901     1.007825032230
         H            3.705715318765    -0.631017043073    -0.532977112901     1.007825032230
         H            3.252178318765    -1.287874043073     1.043590887099     1.007825032230
         H            0.554010318765     2.915143656927    -0.194943712901     1.007825032230
         H           -2.051979681235    -2.002849043073    -0.010403112901     1.007825032230

  Basis Set: AUG-CC-PVTZ
    Blend: AUG-CC-PVTZ
  Basis Set: (AUG-CC-PVTZ AUX)
    Blend: AUG-CC-PVTZ-JKFIT
	 Reference Energy          =    -382.5950204513791277 [Eh]
	 Singles Energy            =      -0.0000000000000000 [Eh]
	 Same-Spin Energy          =      -0.4082630935107879 [Eh]
	 Opposite-Spin Energy      =      -1.2867291129780043 [Eh]
	 Correlation Energy        =      -1.6949922064887923 [Eh]
	 Total Energy              =    -384.2900126578679192 [Eh]

	 ================> DF-SCS-MP2 Energies <==================
	-----------------------------------------------------------
	 SCS Same-Spin Scale       =       0.3333333333333333 [-]
	 SCS Opposite-Spin Scale   =       1.2000000000000000 [-]
	 SCS Same-Spin Energy      =      -0.1360876978369293 [Eh]
	 SCS Opposite-Spin Energy  =      -1.5440749355736052 [Eh]
	 SCS Correlation Energy    =      -1.6801626334105344 [Eh]
	 SCS Total Energy          =    -384.2751830847896599 [Eh]
	-----------------------------------------------------------

  Dipole Moment: [D]
     X:     3.6766      Y:    -0.5262      Z:    -0.0964     Total:     3.7153

*** Psi4 exiting successfully. Buy a developer a beer!
