                               Psi4 1.3.2 release

  ==> Input File <==

--------------------------------------------------------------------------
#psi4
#
memory 32 gb

molecule  {
0 1
  O       -3.2622350    -0.3059220     0.0067540
  C        1.5611120    -0.3149990    -0.0153800
  C        0.3099430    -0.9407630    -0.0100630
  C       -0.8692280    -0.1880260    -0.0014190
  C        1.5994260     1.0858870    -0.0069900
  C       -0.8168260     1.2117300     0.0064260
  C        0.4233030     1.8430470     0.0013400
  C        2.8326460    -1.1226230     0.0134670
  C       -2.1766910    -0.8792860    -0.0025100
  H        0.2498670    -2.0299540    -0.0200910
  H        2.5637200     1.5920050    -0.0150810
  H       -1.7471690     1.7737230     0.0102860
  H        2.6825510    -2.1081700    -0.4357140
  H        3.6321630    -0.6167660    -0.5349600
  H        3.1786260    -1.2736230     1.0416080
  H        0.4815460     2.9289630     0.0030700
  H       -2.1264939    -1.9864042    -0.2623745
units angstrom
no_reorient  #important for SAPT in psi4, default
symmetry c1  #important for SAPT in psi4, default
}

set PROPERTIES_ORIGIN ["COM"]
properties('MP2/aug-cc-pvtz', properties = ['dipole'])
--------------------------------------------------------------------------

    Molecular point group: c1
  Charge       = 0
  Multiplicity = 1
  Basis Set: AUG-CC-PVTZ
    Blend: AUG-CC-PVTZ
  Basis Set: (AUG-CC-PVTZ AUX)
    Blend: AUG-CC-PVTZ-JKFIT

    Orbital Energies [Eh]
    ---------------------

    Doubly Occupied:

       1A    -20.555515     2A    -11.339674     3A    -11.259263
       4A    -11.256846     5A    -11.254001     6A    -11.253398
       7A    -11.250711     8A    -11.249446     9A    -11.237857
      10A     -1.379706    11A     -1.173030    12A     -1.065901
      13A     -1.042898    14A     -0.948642    15A     -0.890330
      16A     -0.833875    17A     -0.769873    18A     -0.708001
      19A     -0.677800    20A     -0.650289    21A     -0.618741
      22A     -0.608930    23A     -0.590703    24A     -0.583622
      25A     -0.553445    26A     -0.543742    27A     -0.520130
      28A     -0.502808    29A     -0.489579    30A     -0.427044
      31A     -0.353539    32A     -0.339784

  @DF-RHF Final Energy:  -382.59386023623239

   => Energetics <=

    Nuclear Repulsion Energy =            396.1184006951261836
    One-Electron Energy =               -1303.5662740923000911
    Two-Electron Energy =                 524.8540131609415766
    Total Energy =                       -382.5938602362323309
  Basis Set: (AUG-CC-PVTZ AUX)
    Blend: AUG-CC-PVTZ-RI
    Molecular point group: c1

    Geometry (in Angstrom), charge = 0, multiplicity = 1:

       Center              X                  Y                   Z               Mass
    ------------   -----------------  -----------------  -----------------  -----------------
         O           -3.188683739784    -0.320187835054     0.009156545030    15.994914619570
         C            1.634663260216    -0.329264835054    -0.012977454970    12.000000000000
         C            0.383494260216    -0.955028835054    -0.007660454970    12.000000000000
         C           -0.795676739784    -0.202291835054     0.000983545030    12.000000000000
         C            1.672977260216     1.071621164946    -0.004587454970    12.000000000000
         C           -0.743274739784     1.197464164946     0.008828545030    12.000000000000
         C            0.496854260216     1.828781164946     0.003742545030    12.000000000000
         C            2.906197260216    -1.136888835054     0.015869545030    12.000000000000
         C           -2.103139739784    -0.893551835054    -0.000107454970    12.000000000000
         H            0.323418260216    -2.044219835054    -0.017688454970     1.007825032230
         H            2.637271260216     1.577739164946    -0.012678454970     1.007825032230
         H           -1.673617739784     1.759457164946     0.012688545030     1.007825032230
         H            2.756102260216    -2.122435835054    -0.433311454970     1.007825032230
         H            3.705714260216    -0.631031835054    -0.532557454970     1.007825032230
         H            3.252177260216    -1.287888835054     1.044010545030     1.007825032230
         H            0.555097260216     2.914697164946     0.005472545030     1.007825032230
         H           -2.052942639784    -2.000670035054    -0.259971954970     1.007825032230

  Basis Set: AUG-CC-PVTZ
    Blend: AUG-CC-PVTZ
  Basis Set: (AUG-CC-PVTZ AUX)
    Blend: AUG-CC-PVTZ-JKFIT
	 Reference Energy          =    -382.5938602362323877 [Eh]
	 Singles Energy            =      -0.0000000000000000 [Eh]
	 Same-Spin Energy          =      -0.4083669778671309 [Eh]
	 Opposite-Spin Energy      =      -1.2868693780577758 [Eh]
	 Correlation Energy        =      -1.6952363559249066 [Eh]
	 Total Energy              =    -384.2890965921573070 [Eh]

	 ================> DF-SCS-MP2 Energies <==================
	-----------------------------------------------------------
	 SCS Same-Spin Scale       =       0.3333333333333333 [-]
	 SCS Opposite-Spin Scale   =       1.2000000000000000 [-]
	 SCS Same-Spin Energy      =      -0.1361223259557103 [Eh]
	 SCS Opposite-Spin Energy  =      -1.5442432536693309 [Eh]
	 SCS Correlation Energy    =      -1.6803655796250412 [Eh]
	 SCS Total Energy          =    -384.2742258158574487 [Eh]
	-----------------------------------------------------------

  Dipole Moment: [D]
     X:     3.6754      Y:    -0.4456      Z:    -0.0599     Total:     3.7028

*** Psi4 exiting successfully. Buy a developer a beer!
