                               Psi4 1.3.2 release

  ==> Input File <==

--------------------------------------------------------------------------
#psi4
#
memory 32 gb

molecule  {
0 1
  O       -3.2622350    -0.3059220     0.0067540
  C        1.5611120    -0.3149990    -0.0153800
  C        0.3099430    -0.9407630    -0.0100630
  C       -0.8692280    -0.1880260    -0.0014190
  C        1.5994260     1.0858870    -0.0069900
  C       -0.8168260     1.2117300     0.0064260
  C        0.4233030     1.8430470     0.0013400
  C        2.8326460    -1.1226230     0.0134670
  C       -2.1765467    -0.8795935     0.0474888
  H        0.2498670    -2.0299540    -0.0200910
  H        2.5637200     1.5920050    -0.0150810
  H       -1.7471690     1.7737230     0.0102860
  H        2.6825510    -2.1081700    -0.4357140
  H        3.6321630    -0.6167660    -0.5349600
  H        3.1786260    -1.2736230     1.0416080
  H        0.4815460     2.9289630     0.0030700
  H       -2.1255320    -1.9885980    -0.0123860
units angstrom
no_reorient  #important for SAPT in psi4, default
symmetry c1  #important for SAPT in psi4, default
}

set PROPERTIES_ORIGIN ["COM"]
properties('MP2/aug-cc-pvtz', properties = ['dipole'])
--------------------------------------------------------------------------

    Molecular point group: c1
  Charge       = 0
  Multiplicity = 1
  Basis Set: AUG-CC-PVTZ
    Blend: AUG-CC-PVTZ
  Basis Set: (AUG-CC-PVTZ AUX)
    Blend: AUG-CC-PVTZ-JKFIT

    Orbital Energies [Eh]
    ---------------------

    Doubly Occupied:

       1A    -20.554421     2A    -11.337029     3A    -11.259214
       4A    -11.256873     5A    -11.253947     6A    -11.252839
       7A    -11.250463     8A    -11.249240     9A    -11.237846
      10A     -1.378403    11A     -1.172883    12A     -1.065733
      13A     -1.042900    14A     -0.948561    15A     -0.891677
      16A     -0.834560    17A     -0.772222    18A     -0.708961
      19A     -0.678838    20A     -0.650076    21A     -0.618985
      22A     -0.608903    23A     -0.590731    24A     -0.583471
      25A     -0.552931    26A     -0.544228    27A     -0.520084
      28A     -0.502742    29A     -0.489060    30A     -0.428352
      31A     -0.353488    32A     -0.339560

  @DF-RHF Final Energy:  -382.59656930743495

   => Energetics <=

    Nuclear Repulsion Energy =            396.1962944832467315
    One-Electron Energy =               -1303.7272846976920846
    Two-Electron Energy =                 524.9344209070104625
    Total Energy =                       -382.5965693074349474
  Basis Set: (AUG-CC-PVTZ AUX)
    Blend: AUG-CC-PVTZ-RI
    Molecular point group: c1

    Geometry (in Angstrom), charge = 0, multiplicity = 1:

       Center              X                  Y                   Z               Mass
    ------------   -----------------  -----------------  -----------------  -----------------
         O           -3.188706237559    -0.320138683891     0.002060527184    15.994914619570
         C            1.634640762441    -0.329215683891    -0.020073472816    12.000000000000
         C            0.383471762441    -0.954979683891    -0.014756472816    12.000000000000
         C           -0.795699237559    -0.202242683891    -0.006112472816    12.000000000000
         C            1.672954762441     1.071670316109    -0.011683472816    12.000000000000
         C           -0.743297237559     1.197513316109     0.001732527184    12.000000000000
         C            0.496831762441     1.828830316109    -0.003353472816    12.000000000000
         C            2.906174762441    -1.136839683891     0.008773527184    12.000000000000
         C           -2.103017937559    -0.893810183891     0.042795327184    12.000000000000
         H            0.323395762441    -2.044170683891    -0.024784472816     1.007825032230
         H            2.637248762441     1.577788316109    -0.019774472816     1.007825032230
         H           -1.673640237559     1.759506316109     0.005592527184     1.007825032230
         H            2.756079762441    -2.122386683891    -0.440407472816     1.007825032230
         H            3.705691762441    -0.630982683891    -0.539653472816     1.007825032230
         H            3.252154762441    -1.287839683891     1.036914527184     1.007825032230
         H            0.555074762441     2.914746316109    -0.001623472816     1.007825032230
         H           -2.052003237559    -2.002814683891    -0.017079472816     1.007825032230

  Basis Set: AUG-CC-PVTZ
    Blend: AUG-CC-PVTZ
  Basis Set: (AUG-CC-PVTZ AUX)
    Blend: AUG-CC-PVTZ-JKFIT
	 Reference Energy          =    -382.5965693074349474 [Eh]
	 Singles Energy            =      -0.0000000000000000 [Eh]
	 Same-Spin Energy          =      -0.4081926740529871 [Eh]
	 Opposite-Spin Energy      =      -1.2865214967308691 [Eh]
	 Correlation Energy        =      -1.6947141707838562 [Eh]
	 Total Energy              =    -384.2912834782188156 [Eh]

	 ================> DF-SCS-MP2 Energies <==================
	-----------------------------------------------------------
	 SCS Same-Spin Scale       =       0.3333333333333333 [-]
	 SCS Opposite-Spin Scale   =       1.2000000000000000 [-]
	 SCS Same-Spin Energy      =      -0.1360642246843290 [Eh]
	 SCS Opposite-Spin Energy  =      -1.5438257960770430 [Eh]
	 SCS Correlation Energy    =      -1.6798900207613721 [Eh]
	 SCS Total Energy          =    -384.2764593281963243 [Eh]
	-----------------------------------------------------------

  Dipole Moment: [D]
     X:     3.6803      Y:    -0.4925      Z:     0.0574     Total:     3.7135

*** Psi4 exiting successfully. Buy a developer a beer!
