                               Psi4 1.3.2 release

  ==> Input File <==

--------------------------------------------------------------------------
#psi4
#
memory 32 gb

molecule  {
0 1
  O       -3.2622350    -0.3059220     0.0067540
  C        1.5611120    -0.3149990    -0.0153800
  C        0.3099430    -0.9407630    -0.0100630
  C       -0.8692280    -0.1880260    -0.0014190
  C        1.5994260     1.0858870    -0.0069900
  C       -0.8168260     1.2117300     0.0064260
  C        0.4233030     1.8430470     0.0013400
  C        2.8326460    -1.1226230     0.0134670
  C       -2.1766910    -0.8792860    -0.0025100
  H        0.2498670    -2.0299540    -0.0200910
  H        2.5637200     1.5920050    -0.0150810
  H       -1.7471690     1.7737230     0.0102860
  H        2.6825510    -2.1081700    -0.4357140
  H        3.6321630    -0.6167660    -0.5349600
  H        3.1786260    -1.2736230     1.0416080
  H        0.4815460     2.9289630     0.0030700
  H       -2.1259168    -1.9877205    -0.1123814
units angstrom
no_reorient  #important for SAPT in psi4, default
symmetry c1  #important for SAPT in psi4, default
}

set PROPERTIES_ORIGIN ["COM"]
properties('MP2/aug-cc-pvtz', properties = ['dipole'])
--------------------------------------------------------------------------

    Molecular point group: c1
  Charge       = 0
  Multiplicity = 1
  Basis Set: AUG-CC-PVTZ
    Blend: AUG-CC-PVTZ
  Basis Set: (AUG-CC-PVTZ AUX)
    Blend: AUG-CC-PVTZ-JKFIT

    Orbital Energies [Eh]
    ---------------------

    Doubly Occupied:

       1A    -20.554352     2A    -11.337164     3A    -11.259232
       4A    -11.256891     5A    -11.253989     6A    -11.252836
       7A    -11.250526     8A    -11.249296     9A    -11.237856
      10A     -1.378940    11A     -1.172939    12A     -1.065810
      13A     -1.042956    14A     -0.948589    15A     -0.891579
      16A     -0.834496    17A     -0.771902    18A     -0.708926
      19A     -0.678822    20A     -0.650197    21A     -0.619118
      22A     -0.608973    23A     -0.590747    24A     -0.583526
      25A     -0.553032    26A     -0.544296    27A     -0.520115
      28A     -0.502764    29A     -0.489250    30A     -0.428215
      31A     -0.353566    32A     -0.339640

  @DF-RHF Final Energy:  -382.59711424961358

   => Energetics <=

    Nuclear Repulsion Energy =            396.2092545415984546
    One-Electron Energy =               -1303.7516656847012655
    Two-Electron Energy =                 524.9452968934891715
    Total Energy =                       -382.5971142496135826
  Basis Set: (AUG-CC-PVTZ AUX)
    Blend: AUG-CC-PVTZ-RI
    Molecular point group: c1

    Geometry (in Angstrom), charge = 0, multiplicity = 1:

       Center              X                  Y                   Z               Mass
    ------------   -----------------  -----------------  -----------------  -----------------
         O           -3.188688584261    -0.320176785350     0.007897425174    15.994914619570
         C            1.634658415739    -0.329253785350    -0.014236574826    12.000000000000
         C            0.383489415739    -0.955017785350    -0.008919574826    12.000000000000
         C           -0.795681584261    -0.202280785350    -0.000275574826    12.000000000000
         C            1.672972415739     1.071632214650    -0.005846574826    12.000000000000
         C           -0.743279584261     1.197475214650     0.007569425174    12.000000000000
         C            0.496849415739     1.828792214650     0.002483425174    12.000000000000
         C            2.906192415739    -1.136877785350     0.014610425174    12.000000000000
         C           -2.103144584261    -0.893540785350    -0.001366574826    12.000000000000
         H            0.323413415739    -2.044208785350    -0.018947574826     1.007825032230
         H            2.637266415739     1.577750214650    -0.013937574826     1.007825032230
         H           -1.673622584261     1.759468214650     0.011429425174     1.007825032230
         H            2.756097415739    -2.122424785350    -0.434570574826     1.007825032230
         H            3.705709415739    -0.631020785350    -0.533816574826     1.007825032230
         H            3.252172415739    -1.287877785350     1.042751425174     1.007825032230
         H            0.555092415739     2.914708214650     0.004213425174     1.007825032230
         H           -2.052370384261    -2.001975285350    -0.111237974826     1.007825032230

  Basis Set: AUG-CC-PVTZ
    Blend: AUG-CC-PVTZ
  Basis Set: (AUG-CC-PVTZ AUX)
    Blend: AUG-CC-PVTZ-JKFIT
	 Reference Energy          =    -382.5971142496135826 [Eh]
	 Singles Energy            =      -0.0000000000000000 [Eh]
	 Same-Spin Energy          =      -0.4081655939101699 [Eh]
	 Opposite-Spin Energy      =      -1.2864623812519804 [Eh]
	 Correlation Energy        =      -1.6946279751621502 [Eh]
	 Total Energy              =    -384.2917422247757600 [Eh]

	 ================> DF-SCS-MP2 Energies <==================
	-----------------------------------------------------------
	 SCS Same-Spin Scale       =       0.3333333333333333 [-]
	 SCS Opposite-Spin Scale   =       1.2000000000000000 [-]
	 SCS Same-Spin Energy      =      -0.1360551979700566 [Eh]
	 SCS Opposite-Spin Energy  =      -1.5437548575023765 [Eh]
	 SCS Correlation Energy    =      -1.6798100554724331 [Eh]
	 SCS Total Energy          =    -384.2769243050860268 [Eh]
	-----------------------------------------------------------

  Dipole Moment: [D]
     X:     3.6826      Y:    -0.4855      Z:    -0.0125     Total:     3.7145

*** Psi4 exiting successfully. Buy a developer a beer!
