                               Psi4 1.3.2 release

  ==> Input File <==

--------------------------------------------------------------------------
#psi4
#
memory 32 gb

molecule  {
0 1
  O       -3.2622350    -0.3059220     0.0067540
  C        1.5611120    -0.3149990    -0.0153800
  C        0.3099430    -0.9407630    -0.0100630
  C       -0.8692280    -0.1880260    -0.0014190
  C        1.5994260     1.0858870    -0.0069900
  C       -0.8168260     1.2117300     0.0064260
  C        0.4233030     1.8430470     0.0013400
  C        2.8330971    -1.1228342    -0.0365305
  C       -2.1766910    -0.8792860    -0.0025100
  H        0.2498670    -2.0299540    -0.0200910
  H        2.5637200     1.5920050    -0.0150810
  H       -1.7471690     1.7737230     0.0102860
  H        2.6825510    -2.1081700    -0.4357140
  H        3.6321630    -0.6167660    -0.5349600
  H        3.1786260    -1.2736230     1.0416080
  H        0.4815460     2.9289630     0.0030700
  H       -2.1255320    -1.9885980    -0.0123860
units angstrom
no_reorient  #important for SAPT in psi4, default
symmetry c1  #important for SAPT in psi4, default
}

set PROPERTIES_ORIGIN ["COM"]
properties('MP2/aug-cc-pvtz', properties = ['dipole'])
--------------------------------------------------------------------------

    Molecular point group: c1
  Charge       = 0
  Multiplicity = 1
  Basis Set: AUG-CC-PVTZ
    Blend: AUG-CC-PVTZ
  Basis Set: (AUG-CC-PVTZ AUX)
    Blend: AUG-CC-PVTZ-JKFIT

    Orbital Energies [Eh]
    ---------------------

    Doubly Occupied:

       1A    -20.554142     2A    -11.336673     3A    -11.259739
       4A    -11.256839     5A    -11.253873     6A    -11.252768
       7A    -11.250351     8A    -11.249138     9A    -11.238572
      10A     -1.378790    11A     -1.172920    12A     -1.065913
      13A     -1.042945    14A     -0.948957    15A     -0.891909
      16A     -0.834738    17A     -0.772494    18A     -0.709104
      19A     -0.679586    20A     -0.650917    21A     -0.620626
      22A     -0.609135    23A     -0.585762    24A     -0.578706
      25A     -0.563093    26A     -0.542843    27A     -0.521327
      28A     -0.503123    29A     -0.487192    30A     -0.428466
      31A     -0.353593    32A     -0.338377

  @DF-RHF Final Energy:  -382.59537332398480

   => Energetics <=

    Nuclear Repulsion Energy =            396.2181118987256241
    One-Electron Energy =               -1303.7617481957306609
    Two-Electron Energy =                 524.9482629730202916
    Total Energy =                       -382.5953733239847452
  Basis Set: (AUG-CC-PVTZ AUX)
    Blend: AUG-CC-PVTZ-RI
    Molecular point group: c1

    Geometry (in Angstrom), charge = 0, multiplicity = 1:

       Center              X                  Y                   Z               Mass
    ------------   -----------------  -----------------  -----------------  -----------------
         O           -3.188736902861    -0.320148309278     0.012055366751    15.994914619570
         C            1.634610097139    -0.329225309278    -0.010078633249    12.000000000000
         C            0.383441097139    -0.954989309278    -0.004761633249    12.000000000000
         C           -0.795729902861    -0.202252309278     0.003882366751    12.000000000000
         C            1.672924097139     1.071660690722    -0.001688633249    12.000000000000
         C           -0.743327902861     1.197503690722     0.011727366751    12.000000000000
         C            0.496801097139     1.828820690722     0.006641366751    12.000000000000
         C            2.906595197139    -1.137060509278    -0.031229133249    12.000000000000
         C           -2.103192902861    -0.893512309278     0.002791366751    12.000000000000
         H            0.323365097139    -2.044180309278    -0.014789633249     1.007825032230
         H            2.637218097139     1.577778690722    -0.009779633249     1.007825032230
         H           -1.673670902861     1.759496690722     0.015587366751     1.007825032230
         H            2.756049097139    -2.122396309278    -0.430412633249     1.007825032230
         H            3.705661097139    -0.630992309278    -0.529658633249     1.007825032230
         H            3.252124097139    -1.287849309278     1.046909366751     1.007825032230
         H            0.555044097139     2.914736690722     0.008371366751     1.007825032230
         H           -2.052033902861    -2.002824309278    -0.007084633249     1.007825032230

  Basis Set: AUG-CC-PVTZ
    Blend: AUG-CC-PVTZ
  Basis Set: (AUG-CC-PVTZ AUX)
    Blend: AUG-CC-PVTZ-JKFIT
	 Reference Energy          =    -382.5953733239848020 [Eh]
	 Singles Energy            =      -0.0000000000000000 [Eh]
	 Same-Spin Energy          =      -0.4081619098958212 [Eh]
	 Opposite-Spin Energy      =      -1.2864817496243752 [Eh]
	 Correlation Energy        =      -1.6946436595201964 [Eh]
	 Total Energy              =    -384.2900169835049837 [Eh]

	 ================> DF-SCS-MP2 Energies <==================
	-----------------------------------------------------------
	 SCS Same-Spin Scale       =       0.3333333333333333 [-]
	 SCS Opposite-Spin Scale   =       1.2000000000000000 [-]
	 SCS Same-Spin Energy      =      -0.1360539699652737 [Eh]
	 SCS Opposite-Spin Energy  =      -1.5437780995492503 [Eh]
	 SCS Correlation Energy    =      -1.6798320695145241 [Eh]
	 SCS Total Energy          =    -384.2752053934993341 [Eh]
	-----------------------------------------------------------

  Dipole Moment: [D]
     X:     3.7034      Y:    -0.5046      Z:    -0.0022     Total:     3.7377

*** Psi4 exiting successfully. Buy a developer a beer!
