                               Psi4 1.3.2 release

  ==> Input File <==

--------------------------------------------------------------------------
#psi4
#
memory 32 gb

molecule  {
0 1
  O       -3.2622350    -0.3059220     0.0067540
  C        1.5611120    -0.3149990    -0.0153800
  C        0.3099430    -0.9407630    -0.0100630
  C       -0.8692280    -0.1880260    -0.0014190
  C        1.5994260     1.0858870    -0.0069900
  C       -0.8168260     1.2117300     0.0064260
  C        0.4233030     1.8430470     0.0013400
  C        2.8326460    -1.1226230     0.0134670
  C       -2.1764025    -0.8799010     0.0974877
  H        0.2498670    -2.0299540    -0.0200910
  H        2.5637200     1.5920050    -0.0150810
  H       -1.7471690     1.7737230     0.0102860
  H        2.6825510    -2.1081700    -0.4357140
  H        3.6321630    -0.6167660    -0.5349600
  H        3.1786260    -1.2736230     1.0416080
  H        0.4815460     2.9289630     0.0030700
  H       -2.1255320    -1.9885980    -0.0123860
units angstrom
no_reorient  #important for SAPT in psi4, default
symmetry c1  #important for SAPT in psi4, default
}

set PROPERTIES_ORIGIN ["COM"]
properties('MP2/aug-cc-pvtz', properties = ['dipole'])
--------------------------------------------------------------------------

    Molecular point group: c1
  Charge       = 0
  Multiplicity = 1
  Basis Set: AUG-CC-PVTZ
    Blend: AUG-CC-PVTZ
  Basis Set: (AUG-CC-PVTZ AUX)
    Blend: AUG-CC-PVTZ-JKFIT

    Orbital Energies [Eh]
    ---------------------

    Doubly Occupied:

       1A    -20.555286     2A    -11.338086     3A    -11.259176
       4A    -11.256778     5A    -11.253842     6A    -11.253181
       7A    -11.250393     8A    -11.249173     9A    -11.237812
      10A     -1.377102    11A     -1.172770    12A     -1.065553
      13A     -1.042693    14A     -0.948501    15A     -0.891196
      16A     -0.834375    17A     -0.771995    18A     -0.708525
      19A     -0.678301    20A     -0.649749    21A     -0.618342
      22A     -0.608674    23A     -0.590661    24A     -0.583409
      25A     -0.552897    26A     -0.543553    27A     -0.519988
      28A     -0.502691    29A     -0.488654    30A     -0.428137
      31A     -0.353244    32A     -0.339420

  @DF-RHF Final Energy:  -382.59318194233850

   => Energetics <=

    Nuclear Repulsion Energy =            396.1011093007401769
    One-Electron Energy =               -1303.5402697745082605
    Two-Electron Energy =                 524.8459785314296369
    Total Energy =                       -382.5931819423384468
  Basis Set: (AUG-CC-PVTZ AUX)
    Blend: AUG-CC-PVTZ-RI
    Molecular point group: c1

    Geometry (in Angstrom), charge = 0, multiplicity = 1:

       Center              X                  Y                   Z               Mass
    ------------   -----------------  -----------------  -----------------  -----------------
         O           -3.188720650651    -0.320107948622    -0.002936967563    15.994914619570
         C            1.634626349349    -0.329184948622    -0.025070967563    12.000000000000
         C            0.383457349349    -0.954948948622    -0.019753967563    12.000000000000
         C           -0.795713650651    -0.202211948622    -0.011109967563    12.000000000000
         C            1.672940349349     1.071701051378    -0.016680967563    12.000000000000
         C           -0.743311650651     1.197544051378    -0.003264967563    12.000000000000
         C            0.496817349349     1.828861051378    -0.008350967563    12.000000000000
         C            2.906160349349    -1.136808948622     0.003776032437    12.000000000000
         C           -2.102888150651    -0.894086948622     0.087796732437    12.000000000000
         H            0.323381349349    -2.044139948622    -0.029781967563     1.007825032230
         H            2.637234349349     1.577819051378    -0.024771967563     1.007825032230
         H           -1.673654650651     1.759537051378     0.000595032437     1.007825032230
         H            2.756065349349    -2.122355948622    -0.445404967563     1.007825032230
         H            3.705677349349    -0.630951948622    -0.544650967563     1.007825032230
         H            3.252140349349    -1.287808948622     1.031917032437     1.007825032230
         H            0.555060349349     2.914777051378    -0.006620967563     1.007825032230
         H           -2.052017650651    -2.002783948622    -0.022076967563     1.007825032230

  Basis Set: AUG-CC-PVTZ
    Blend: AUG-CC-PVTZ
  Basis Set: (AUG-CC-PVTZ AUX)
    Blend: AUG-CC-PVTZ-JKFIT
	 Reference Energy          =    -382.5931819423385036 [Eh]
	 Singles Energy            =      -0.0000000000000000 [Eh]
	 Same-Spin Energy          =      -0.4083972619422798 [Eh]
	 Opposite-Spin Energy      =      -1.2869693043469350 [Eh]
	 Correlation Energy        =      -1.6953665662892148 [Eh]
	 Total Energy              =    -384.2885485086277413 [Eh]

	 ================> DF-SCS-MP2 Energies <==================
	-----------------------------------------------------------
	 SCS Same-Spin Scale       =       0.3333333333333333 [-]
	 SCS Opposite-Spin Scale   =       1.2000000000000000 [-]
	 SCS Same-Spin Energy      =      -0.1361324206474266 [Eh]
	 SCS Opposite-Spin Energy  =      -1.5443631652163219 [Eh]
	 SCS Correlation Energy    =      -1.6804955858637485 [Eh]
	 SCS Total Energy          =    -384.2736775282022563 [Eh]
	-----------------------------------------------------------

  Dipole Moment: [D]
     X:     3.6683      Y:    -0.4895      Z:     0.0917     Total:     3.7020

*** Psi4 exiting successfully. Buy a developer a beer!
