                               Psi4 1.3.2 release

  ==> Input File <==

--------------------------------------------------------------------------
#psi4
#
memory 32 gb

molecule  {
0 1
  O       -3.2622350    -0.3059220     0.0067540
  C        1.5611120    -0.3149990    -0.0153800
  C        0.3099430    -0.9407630    -0.0100630
  C       -0.8692280    -0.1880260    -0.0014190
  C        1.5994260     1.0858870    -0.0069900
  C       -0.8168260     1.2117300     0.0064260
  C        0.4233030     1.8430470     0.0013400
  C        2.8326460    -1.1226230     0.0134670
  C       -2.1766910    -0.8792860    -0.0025100
  H        0.2498670    -2.0299540    -0.0200910
  H        2.5637200     1.5920050    -0.0150810
  H       -1.7461061     1.7727070     0.2602817
  H        2.6825510    -2.1081700    -0.4357140
  H        3.6321630    -0.6167660    -0.5349600
  H        3.1786260    -1.2736230     1.0416080
  H        0.4815460     2.9289630     0.0030700
  H       -2.1255320    -1.9885980    -0.0123860
units angstrom
no_reorient  #important for SAPT in psi4, default
symmetry c1  #important for SAPT in psi4, default
}

set PROPERTIES_ORIGIN ["COM"]
properties('MP2/aug-cc-pvtz', properties = ['dipole'])
--------------------------------------------------------------------------

    Molecular point group: c1
  Charge       = 0
  Multiplicity = 1
  Basis Set: AUG-CC-PVTZ
    Blend: AUG-CC-PVTZ
  Basis Set: (AUG-CC-PVTZ AUX)
    Blend: AUG-CC-PVTZ-JKFIT

    Orbital Energies [Eh]
    ---------------------

    Doubly Occupied:

       1A    -20.554053     2A    -11.336546     3A    -11.259660
       4A    -11.257046     5A    -11.254081     6A    -11.253337
       7A    -11.252153     8A    -11.249979     9A    -11.238074
      10A     -1.378639    11A     -1.173025    12A     -1.065589
      13A     -1.043067    14A     -0.948015    15A     -0.891718
      16A     -0.834340    17A     -0.771517    18A     -0.706938
      19A     -0.678016    20A     -0.650045    21A     -0.619116
      22A     -0.609140    23A     -0.591681    24A     -0.580114
      25A     -0.553133    26A     -0.544240    27A     -0.519754
      28A     -0.502777    29A     -0.487061    30A     -0.428328
      31A     -0.353691    32A     -0.339161

  @DF-RHF Final Energy:  -382.59330813444620

   => Energetics <=

    Nuclear Repulsion Energy =            396.1124749848188458
    One-Electron Energy =               -1303.5634941092607733
    Two-Electron Energy =                 524.8577109899956668
    Total Energy =                       -382.5933081344462607
  Basis Set: (AUG-CC-PVTZ AUX)
    Blend: AUG-CC-PVTZ-RI
    Molecular point group: c1

    Geometry (in Angstrom), charge = 0, multiplicity = 1:

       Center              X                  Y                   Z               Mass
    ------------   -----------------  -----------------  -----------------  -----------------
         O           -3.188700737005    -0.320160890329     0.004959418403    15.994914619570
         C            1.634646262995    -0.329237890329    -0.017174581597    12.000000000000
         C            0.383477262995    -0.955001890329    -0.011857581597    12.000000000000
         C           -0.795693737005    -0.202264890329    -0.003213581597    12.000000000000
         C            1.672960262995     1.071648109671    -0.008784581597    12.000000000000
         C           -0.743291737005     1.197491109671     0.004631418403    12.000000000000
         C            0.496837262995     1.828808109671    -0.000454581597    12.000000000000
         C            2.906180262995    -1.136861890329     0.011672418403    12.000000000000
         C           -2.103156737005    -0.893524890329    -0.004304581597    12.000000000000
         H            0.323401262995    -2.044192890329    -0.021885581597     1.007825032230
         H            2.637254262995     1.577766109671    -0.016875581597     1.007825032230
         H           -1.672571837005     1.758468109671     0.258487118403     1.007825032230
         H            2.756085262995    -2.122408890329    -0.437508581597     1.007825032230
         H            3.705697262995    -0.631004890329    -0.536754581597     1.007825032230
         H            3.252160262995    -1.287861890329     1.039813418403     1.007825032230
         H            0.555080262995     2.914724109671     0.001275418403     1.007825032230
         H           -2.051997737005    -2.002836890329    -0.014180581597     1.007825032230

  Basis Set: AUG-CC-PVTZ
    Blend: AUG-CC-PVTZ
  Basis Set: (AUG-CC-PVTZ AUX)
    Blend: AUG-CC-PVTZ-JKFIT
	 Reference Energy          =    -382.5933081344462039 [Eh]
	 Singles Energy            =      -0.0000000000000000 [Eh]
	 Same-Spin Energy          =      -0.4083834619153884 [Eh]
	 Opposite-Spin Energy      =      -1.2869139646367667 [Eh]
	 Correlation Energy        =      -1.6952974265521550 [Eh]
	 Total Energy              =    -384.2886055609983487 [Eh]

	 ================> DF-SCS-MP2 Energies <==================
	-----------------------------------------------------------
	 SCS Same-Spin Scale       =       0.3333333333333333 [-]
	 SCS Opposite-Spin Scale   =       1.2000000000000000 [-]
	 SCS Same-Spin Energy      =      -0.1361278206384628 [Eh]
	 SCS Opposite-Spin Energy  =      -1.5442967575641200 [Eh]
	 SCS Correlation Energy    =      -1.6804245782025828 [Eh]
	 SCS Total Energy          =    -384.2737327126487799 [Eh]
	-----------------------------------------------------------

  Dipole Moment: [D]
     X:     3.7207      Y:    -0.5149      Z:     0.1737     Total:     3.7602

*** Psi4 exiting successfully. Buy a developer a beer!
