                               Psi4 1.3.2 release

  ==> Input File <==

--------------------------------------------------------------------------
#psi4
#
memory 32 gb

molecule  {
0 1
  O       -3.2622350    -0.3059220     0.0067540
  C        1.5611120    -0.3149990    -0.0153800
  C        0.3099430    -0.9407630    -0.0100630
  C       -0.8692280    -0.1880260    -0.0014190
  C        1.5994260     1.0858870    -0.0069900
  C       -0.8168260     1.2117300     0.0064260
  C        0.4233030     1.8430470     0.0013400
  C        2.8326460    -1.1226230     0.0134670
  C       -2.1766910    -0.8792860    -0.0025100
  H        0.2498670    -2.0299540    -0.0200910
  H        2.5619178     1.5929917    -0.2650726
  H       -1.7471690     1.7737230     0.0102860
  H        2.6825510    -2.1081700    -0.4357140
  H        3.6321630    -0.6167660    -0.5349600
  H        3.1786260    -1.2736230     1.0416080
  H        0.4815460     2.9289630     0.0030700
  H       -2.1255320    -1.9885980    -0.0123860
units angstrom
no_reorient  #important for SAPT in psi4, default
symmetry c1  #important for SAPT in psi4, default
}

set PROPERTIES_ORIGIN ["COM"]
properties('MP2/aug-cc-pvtz', properties = ['dipole'])
--------------------------------------------------------------------------

    Molecular point group: c1
  Charge       = 0
  Multiplicity = 1
  Basis Set: AUG-CC-PVTZ
    Blend: AUG-CC-PVTZ
  Basis Set: (AUG-CC-PVTZ AUX)
    Blend: AUG-CC-PVTZ-JKFIT

    Orbital Energies [Eh]
    ---------------------

    Doubly Occupied:

       1A    -20.554549     2A    -11.337017     3A    -11.259851
       4A    -11.257199     5A    -11.256525     6A    -11.253295
       7A    -11.250872     8A    -11.249655     9A    -11.237946
      10A     -1.379167    11A     -1.173142    12A     -1.065820
      13A     -1.042881    14A     -0.948551    15A     -0.890867
      16A     -0.834774    17A     -0.771976    18A     -0.707591
      19A     -0.677846    20A     -0.649340    21A     -0.619415
      22A     -0.608246    23A     -0.590987    24A     -0.583156
      25A     -0.552003    26A     -0.544730    27A     -0.519150
      28A     -0.503073    29A     -0.487717    30A     -0.428812
      31A     -0.353383    32A     -0.339752

  @DF-RHF Final Energy:  -382.59332782238732

   => Energetics <=

    Nuclear Repulsion Energy =            396.1149791221321266
    One-Electron Energy =               -1303.5580356156408470
    Two-Electron Energy =                 524.8497286711213974
    Total Energy =                       -382.5933278223873231
  Basis Set: (AUG-CC-PVTZ AUX)
    Blend: AUG-CC-PVTZ-RI
    Molecular point group: c1

    Geometry (in Angstrom), charge = 0, multiplicity = 1:

       Center              X                  Y                   Z               Mass
    ------------   -----------------  -----------------  -----------------  -----------------
         O           -3.188676685870    -0.320177702031     0.009156571053    15.994914619570
         C            1.634670314130    -0.329254702031    -0.012977428947    12.000000000000
         C            0.383501314130    -0.955018702031    -0.007660428947    12.000000000000
         C           -0.795669685870    -0.202281702031     0.000983571053    12.000000000000
         C            1.672984314130     1.071631297969    -0.004587428947    12.000000000000
         C           -0.743267685870     1.197474297969     0.008828571053    12.000000000000
         C            0.496861314130     1.828791297969     0.003742571053    12.000000000000
         C            2.906204314130    -1.136878702031     0.015869571053    12.000000000000
         C           -2.103132685870    -0.893541702031    -0.000107428947    12.000000000000
         H            0.323425314130    -2.044209702031    -0.017688428947     1.007825032230
         H            2.635476114130     1.578735997969    -0.262670028947     1.007825032230
         H           -1.673610685870     1.759467297969     0.012688571053     1.007825032230
         H            2.756109314130    -2.122425702031    -0.433311428947     1.007825032230
         H            3.705721314130    -0.631021702031    -0.532557428947     1.007825032230
         H            3.252184314130    -1.287878702031     1.044010571053     1.007825032230
         H            0.555104314130     2.914707297969     0.005472571053     1.007825032230
         H           -2.051973685870    -2.002853702031    -0.009983428947     1.007825032230

  Basis Set: AUG-CC-PVTZ
    Blend: AUG-CC-PVTZ
  Basis Set: (AUG-CC-PVTZ AUX)
    Blend: AUG-CC-PVTZ-JKFIT
	 Reference Energy          =    -382.5933278223873231 [Eh]
	 Singles Energy            =      -0.0000000000000000 [Eh]
	 Same-Spin Energy          =      -0.4083839633169213 [Eh]
	 Opposite-Spin Energy      =      -1.2869655491009917 [Eh]
	 Correlation Energy        =      -1.6953495124179130 [Eh]
	 Total Energy              =    -384.2886773348052429 [Eh]

	 ================> DF-SCS-MP2 Energies <==================
	-----------------------------------------------------------
	 SCS Same-Spin Scale       =       0.3333333333333333 [-]
	 SCS Opposite-Spin Scale   =       1.2000000000000000 [-]
	 SCS Same-Spin Energy      =      -0.1361279877723071 [Eh]
	 SCS Opposite-Spin Energy  =      -1.5443586589211900 [Eh]
	 SCS Correlation Energy    =      -1.6804866466934971 [Eh]
	 SCS Total Energy          =    -384.2738144690808326 [Eh]
	-----------------------------------------------------------

  Dipole Moment: [D]
     X:     3.6308      Y:    -0.5177      Z:    -0.1210     Total:     3.6695

*** Psi4 exiting successfully. Buy a developer a beer!
