                               Psi4 1.3.2 release

  ==> Input File <==

--------------------------------------------------------------------------
#psi4
#
memory 32 gb

molecule  {
0 1
  O       -3.2622350    -0.3059220     0.0067540
  C        1.5611120    -0.3149990    -0.0153800
  C        0.3099430    -0.9407630    -0.0100630
  C       -0.8692280    -0.1880260    -0.0014190
  C        1.5994260     1.0858870    -0.0069900
  C       -0.8168260     1.2117300     0.0064260
  C        0.4233030     1.8430470     0.0013400
  C        2.8326460    -1.1226230     0.0134670
  C       -2.1766910    -0.8792860    -0.0025100
  H        0.2498670    -2.0299540    -0.0200910
  H        2.5615574     1.5931890    -0.3150709
  H       -1.7471690     1.7737230     0.0102860
  H        2.6825510    -2.1081700    -0.4357140
  H        3.6321630    -0.6167660    -0.5349600
  H        3.1786260    -1.2736230     1.0416080
  H        0.4815460     2.9289630     0.0030700
  H       -2.1255320    -1.9885980    -0.0123860
units angstrom
no_reorient  #important for SAPT in psi4, default
symmetry c1  #important for SAPT in psi4, default
}

set PROPERTIES_ORIGIN ["COM"]
properties('MP2/aug-cc-pvtz', properties = ['dipole'])
--------------------------------------------------------------------------

    Molecular point group: c1
  Charge       = 0
  Multiplicity = 1
  Basis Set: AUG-CC-PVTZ
    Blend: AUG-CC-PVTZ
  Basis Set: (AUG-CC-PVTZ AUX)
    Blend: AUG-CC-PVTZ-JKFIT

    Orbital Energies [Eh]
    ---------------------

    Doubly Occupied:

       1A    -20.554723     2A    -11.337158     3A    -11.260130
       4A    -11.257657     5A    -11.257234     6A    -11.253531
       7A    -11.251040     8A    -11.249804     9A    -11.237959
      10A     -1.379321    11A     -1.173233    12A     -1.065837
      13A     -1.042846    14A     -0.948542    15A     -0.890488
      16A     -0.834838    17A     -0.771854    18A     -0.707053
      19A     -0.677353    20A     -0.648959    21A     -0.619499
      22A     -0.607939    23A     -0.591057    24A     -0.583085
      25A     -0.551661    26A     -0.544844    27A     -0.518658
      28A     -0.503201    29A     -0.487030    30A     -0.428969
      31A     -0.353307    32A     -0.339795

  @DF-RHF Final Energy:  -382.59124155742614

   => Energetics <=

    Nuclear Repulsion Energy =            396.0682441059347525
    One-Electron Energy =               -1303.4617559389357666
    Two-Electron Energy =                 524.8022702755748696
    Total Energy =                       -382.5912415574260876
  Basis Set: (AUG-CC-PVTZ AUX)
    Blend: AUG-CC-PVTZ-RI
    Molecular point group: c1

    Geometry (in Angstrom), charge = 0, multiplicity = 1:

       Center              X                  Y                   Z               Mass
    ------------   -----------------  -----------------  -----------------  -----------------
         O           -3.188673660486    -0.320179358270     0.009576282708    15.994914619570
         C            1.634673339514    -0.329256358270    -0.012557717292    12.000000000000
         C            0.383504339514    -0.955020358270    -0.007240717292    12.000000000000
         C           -0.795666660486    -0.202283358270     0.001403282708    12.000000000000
         C            1.672987339514     1.071629641730    -0.004167717292    12.000000000000
         C           -0.743264660486     1.197472641730     0.009248282708    12.000000000000
         C            0.496864339514     1.828789641730     0.004162282708    12.000000000000
         C            2.906207339514    -1.136880358270     0.016289282708    12.000000000000
         C           -2.103129660486    -0.893543358270     0.000312282708    12.000000000000
         H            0.323428339514    -2.044211358270    -0.017268717292     1.007825032230
         H            2.635118739514     1.578931641730    -0.312248617292     1.007825032230
         H           -1.673607660486     1.759465641730     0.013108282708     1.007825032230
         H            2.756112339514    -2.122427358270    -0.432891717292     1.007825032230
         H            3.705724339514    -0.631023358270    -0.532137717292     1.007825032230
         H            3.252187339514    -1.287880358270     1.044430282708     1.007825032230
         H            0.555107339514     2.914705641730     0.005892282708     1.007825032230
         H           -2.051970660486    -2.002855358270    -0.009563717292     1.007825032230

  Basis Set: AUG-CC-PVTZ
    Blend: AUG-CC-PVTZ
  Basis Set: (AUG-CC-PVTZ AUX)
    Blend: AUG-CC-PVTZ-JKFIT
	 Reference Energy          =    -382.5912415574261445 [Eh]
	 Singles Energy            =      -0.0000000000000000 [Eh]
	 Same-Spin Energy          =      -0.4084902991593925 [Eh]
	 Opposite-Spin Energy      =      -1.2872267465625620 [Eh]
	 Correlation Energy        =      -1.6957170457219544 [Eh]
	 Total Energy              =    -384.2869586031480935 [Eh]

	 ================> DF-SCS-MP2 Energies <==================
	-----------------------------------------------------------
	 SCS Same-Spin Scale       =       0.3333333333333333 [-]
	 SCS Opposite-Spin Scale   =       1.2000000000000000 [-]
	 SCS Same-Spin Energy      =      -0.1361634330531308 [Eh]
	 SCS Opposite-Spin Energy  =      -1.5446720958750744 [Eh]
	 SCS Correlation Energy    =      -1.6808355289282053 [Eh]
	 SCS Total Energy          =    -384.2720770863543294 [Eh]
	-----------------------------------------------------------

  Dipole Moment: [D]
     X:     3.6098      Y:    -0.5279      Z:    -0.1480     Total:     3.6512

*** Psi4 exiting successfully. Buy a developer a beer!
