                               Psi4 1.3.2 release

  ==> Input File <==

--------------------------------------------------------------------------
#psi4
#
memory 32 gb

molecule  {
0 1
  O       -3.2622350    -0.3059220     0.0067540
  C        1.5611120    -0.3149990    -0.0153800
  C        0.3099430    -0.9407630    -0.0100630
  C       -0.8692280    -0.1880260    -0.0014190
  C        1.5994260     1.0858870    -0.0069900
  C       -0.8168260     1.2117300     0.0064260
  C        0.4233030     1.8430470     0.0013400
  C        2.8326460    -1.1226230     0.0134670
  C       -2.1766910    -0.8792860    -0.0025100
  H        0.2498670    -2.0299540    -0.0200910
  H        2.5637200     1.5920050    -0.0150810
  H       -1.7471690     1.7737230     0.0102860
  H        2.6825510    -2.1081700    -0.4357140
  H        3.6321630    -0.6167660    -0.5349600
  H        3.1786260    -1.2736230     1.0416080
  H        0.4807300     2.9292868    -0.1469274
  H       -2.1255320    -1.9885980    -0.0123860
units angstrom
no_reorient  #important for SAPT in psi4, default
symmetry c1  #important for SAPT in psi4, default
}

set PROPERTIES_ORIGIN ["COM"]
properties('MP2/aug-cc-pvtz', properties = ['dipole'])
--------------------------------------------------------------------------

    Molecular point group: c1
  Charge       = 0
  Multiplicity = 1
  Basis Set: AUG-CC-PVTZ
    Blend: AUG-CC-PVTZ
  Basis Set: (AUG-CC-PVTZ AUX)
    Blend: AUG-CC-PVTZ-JKFIT

    Orbital Energies [Eh]
    ---------------------

    Doubly Occupied:

       1A    -20.554201     2A    -11.336758     3A    -11.259307
       4A    -11.257115     5A    -11.254150     6A    -11.252842
       7A    -11.251070     8A    -11.249811     9A    -11.237906
      10A     -1.378866    11A     -1.173012    12A     -1.065883
      13A     -1.042768    14A     -0.948657    15A     -0.891942
      16A     -0.833831    17A     -0.772392    18A     -0.708843
      19A     -0.679029    20A     -0.649607    21A     -0.619199
      22A     -0.607949    23A     -0.590767    24A     -0.583633
      25A     -0.553004    26A     -0.544512    27A     -0.520117
      28A     -0.503227    29A     -0.487982    30A     -0.428488
      31A     -0.353451    32A     -0.339705

  @DF-RHF Final Energy:  -382.59622214250561

   => Energetics <=

    Nuclear Repulsion Energy =            396.1880795829832209
    One-Electron Energy =               -1303.7085533457102429
    Two-Electron Energy =                 524.9242516202214119
    Total Energy =                       -382.5962221425056669
  Basis Set: (AUG-CC-PVTZ AUX)
    Blend: AUG-CC-PVTZ-RI
    Molecular point group: c1

    Geometry (in Angstrom), charge = 0, multiplicity = 1:

       Center              X                  Y                   Z               Mass
    ------------   -----------------  -----------------  -----------------  -----------------
         O           -3.188684964544    -0.320172137305     0.008317167889    15.994914619570
         C            1.634662035456    -0.329249137305    -0.013816832111    12.000000000000
         C            0.383493035456    -0.955013137305    -0.008499832111    12.000000000000
         C           -0.795677964544    -0.202276137305     0.000144167889    12.000000000000
         C            1.672976035456     1.071636862695    -0.005426832111    12.000000000000
         C           -0.743275964544     1.197479862695     0.007989167889    12.000000000000
         C            0.496853035456     1.828796862695     0.002903167889    12.000000000000
         C            2.906196035456    -1.136873137305     0.015030167889    12.000000000000
         C           -2.103140964544    -0.893536137305    -0.000946832111    12.000000000000
         H            0.323417035456    -2.044204137305    -0.018527832111     1.007825032230
         H            2.637270035456     1.577754862695    -0.013517832111     1.007825032230
         H           -1.673618964544     1.759472862695     0.011849167889     1.007825032230
         H            2.756101035456    -2.122420137305    -0.434150832111     1.007825032230
         H            3.705713035456    -0.631016137305    -0.533396832111     1.007825032230
         H            3.252176035456    -1.287873137305     1.043171167889     1.007825032230
         H            0.554280035456     2.915036662695    -0.145364232111     1.007825032230
         H           -2.051981964544    -2.002848137305    -0.010822832111     1.007825032230

  Basis Set: AUG-CC-PVTZ
    Blend: AUG-CC-PVTZ
  Basis Set: (AUG-CC-PVTZ AUX)
    Blend: AUG-CC-PVTZ-JKFIT
	 Reference Energy          =    -382.5962221425056100 [Eh]
	 Singles Energy            =      -0.0000000000000000 [Eh]
	 Same-Spin Energy          =      -0.4082048027369236 [Eh]
	 Opposite-Spin Energy      =      -1.2865776016572710 [Eh]
	 Correlation Energy        =      -1.6947824043941946 [Eh]
	 Total Energy              =    -384.2910045468997851 [Eh]

	 ================> DF-SCS-MP2 Energies <==================
	-----------------------------------------------------------
	 SCS Same-Spin Scale       =       0.3333333333333333 [-]
	 SCS Opposite-Spin Scale   =       1.2000000000000000 [-]
	 SCS Same-Spin Energy      =      -0.1360682675789745 [Eh]
	 SCS Opposite-Spin Energy  =      -1.5438931219887251 [Eh]
	 SCS Correlation Energy    =      -1.6799613895676997 [Eh]
	 SCS Total Energy          =    -384.2761835320733326 [Eh]
	-----------------------------------------------------------

  Dipole Moment: [D]
     X:     3.6793      Y:    -0.5118      Z:    -0.0672     Total:     3.7153

*** Psi4 exiting successfully. Buy a developer a beer!
