                               Psi4 1.3.2 release

  ==> Input File <==

--------------------------------------------------------------------------
#psi4
#
memory 32 gb

molecule  {
0 1
  O       -3.2622350    -0.3059220     0.0067540
  C        1.5611120    -0.3149990    -0.0153800
  C        0.3099430    -0.9407630    -0.0100630
  C       -0.8692280    -0.1880260    -0.0014190
  C        1.5994260     1.0858870    -0.0069900
  C       -0.8168260     1.2117300     0.0064260
  C        0.4233030     1.8430470     0.0013400
  C        2.8326460    -1.1226230     0.0134670
  C       -2.1761139    -0.8805160     0.1974854
  H        0.2498670    -2.0299540    -0.0200910
  H        2.5637200     1.5920050    -0.0150810
  H       -1.7471690     1.7737230     0.0102860
  H        2.6825510    -2.1081700    -0.4357140
  H        3.6321630    -0.6167660    -0.5349600
  H        3.1786260    -1.2736230     1.0416080
  H        0.4815460     2.9289630     0.0030700
  H       -2.1255320    -1.9885980    -0.0123860
units angstrom
no_reorient  #important for SAPT in psi4, default
symmetry c1  #important for SAPT in psi4, default
}

set PROPERTIES_ORIGIN ["COM"]
properties('MP2/aug-cc-pvtz', properties = ['dipole'])
--------------------------------------------------------------------------

    Molecular point group: c1
  Charge       = 0
  Multiplicity = 1
  Basis Set: AUG-CC-PVTZ
    Blend: AUG-CC-PVTZ
  Basis Set: (AUG-CC-PVTZ AUX)
    Blend: AUG-CC-PVTZ-JKFIT

    Orbital Energies [Eh]
    ---------------------

    Doubly Occupied:

       1A    -20.558745     2A    -11.342166     3A    -11.259032
       4A    -11.256442     5A    -11.254497     6A    -11.253446
       7A    -11.250125     8A    -11.248900     9A    -11.237672
      10A     -1.371898    11A     -1.172328    12A     -1.064865
      13A     -1.041875    14A     -0.948265    15A     -0.889325
      16A     -0.833682    17A     -0.771202    18A     -0.706952
      19A     -0.676144    20A     -0.648413    21A     -0.615692
      22A     -0.607739    23A     -0.590398    24A     -0.583170
      25A     -0.552724    26A     -0.541010    27A     -0.519535
      28A     -0.502505    29A     -0.486999    30A     -0.427349
      31A     -0.352319    32A     -0.338872

  @DF-RHF Final Energy:  -382.57955715830769

   => Energetics <=

    Nuclear Repulsion Energy =            395.7228322623082022
    One-Electron Energy =               -1302.7962066416480411
    Two-Electron Energy =                 524.4938172210321454
    Total Energy =                       -382.5795571583076935
  Basis Set: (AUG-CC-PVTZ AUX)
    Blend: AUG-CC-PVTZ-RI
    Molecular point group: c1

    Geometry (in Angstrom), charge = 0, multiplicity = 1:

       Center              X                  Y                   Z               Mass
    ------------   -----------------  -----------------  -----------------  -----------------
         O           -3.188749496825    -0.320046478084    -0.012931947063    15.994914619570
         C            1.634597503175    -0.329123478084    -0.035065947063    12.000000000000
         C            0.383428503175    -0.954887478084    -0.029748947063    12.000000000000
         C           -0.795742496825    -0.202150478084    -0.021104947063    12.000000000000
         C            1.672911503175     1.071762521916    -0.026675947063    12.000000000000
         C           -0.743340496825     1.197605521916    -0.013259947063    12.000000000000
         C            0.496788503175     1.828922521916    -0.018345947063    12.000000000000
         C            2.906131503175    -1.136747478084    -0.006218947063    12.000000000000
         C           -2.102628396825    -0.894640478084     0.177799452937    12.000000000000
         H            0.323352503175    -2.044078478084    -0.039776947063     1.007825032230
         H            2.637205503175     1.577880521916    -0.034766947063     1.007825032230
         H           -1.673683496825     1.759598521916    -0.009399947063     1.007825032230
         H            2.756036503175    -2.122294478084    -0.455399947063     1.007825032230
         H            3.705648503175    -0.630890478084    -0.554645947063     1.007825032230
         H            3.252111503175    -1.287747478084     1.021922052937     1.007825032230
         H            0.555031503175     2.914838521916    -0.016615947063     1.007825032230
         H           -2.052046496825    -2.002722478084    -0.032071947063     1.007825032230

  Basis Set: AUG-CC-PVTZ
    Blend: AUG-CC-PVTZ
  Basis Set: (AUG-CC-PVTZ AUX)
    Blend: AUG-CC-PVTZ-JKFIT
	 Reference Energy          =    -382.5795571583076935 [Eh]
	 Singles Energy            =      -0.0000000000000000 [Eh]
	 Same-Spin Energy          =      -0.4092250786621452 [Eh]
	 Opposite-Spin Energy      =      -1.2891206526224583 [Eh]
	 Correlation Energy        =      -1.6983457312846035 [Eh]
	 Total Energy              =    -384.2779028895922693 [Eh]

	 ================> DF-SCS-MP2 Energies <==================
	-----------------------------------------------------------
	 SCS Same-Spin Scale       =       0.3333333333333333 [-]
	 SCS Opposite-Spin Scale   =       1.2000000000000000 [-]
	 SCS Same-Spin Energy      =      -0.1364083595540484 [Eh]
	 SCS Opposite-Spin Energy  =      -1.5469447831469501 [Eh]
	 SCS Correlation Energy    =      -1.6833531427009985 [Eh]
	 SCS Total Energy          =    -384.2629103010086737 [Eh]
	-----------------------------------------------------------

  Dipole Moment: [D]
     X:     3.6205      Y:    -0.4767      Z:     0.1541     Total:     3.6550

*** Psi4 exiting successfully. Buy a developer a beer!
