                               Psi4 1.3.2 release

  ==> Input File <==

--------------------------------------------------------------------------
#psi4
#
memory 32 gb

molecule  {
0 1
  O       -3.2622350    -0.3059220     0.0067540
  C        1.5611120    -0.3149990    -0.0153800
  C        0.3099430    -0.9407630    -0.0100630
  C       -0.8692280    -0.1880260    -0.0014190
  C        1.5994260     1.0858870    -0.0069900
  C       -0.8168260     1.2117300     0.0064260
  C        0.4233030     1.8430470     0.0013400
  C        2.8326460    -1.1226230     0.0134670
  C       -2.1766910    -0.8792860    -0.0025100
  H        0.2498670    -2.0299540    -0.0200910
  H        2.5637200     1.5920050    -0.0150810
  H       -1.7463187     1.7729102     0.2102825
  H        2.6825510    -2.1081700    -0.4357140
  H        3.6321630    -0.6167660    -0.5349600
  H        3.1786260    -1.2736230     1.0416080
  H        0.4815460     2.9289630     0.0030700
  H       -2.1255320    -1.9885980    -0.0123860
units angstrom
no_reorient  #important for SAPT in psi4, default
symmetry c1  #important for SAPT in psi4, default
}

set PROPERTIES_ORIGIN ["COM"]
properties('MP2/aug-cc-pvtz', properties = ['dipole'])
--------------------------------------------------------------------------

    Molecular point group: c1
  Charge       = 0
  Multiplicity = 1
  Basis Set: AUG-CC-PVTZ
    Blend: AUG-CC-PVTZ
  Basis Set: (AUG-CC-PVTZ AUX)
    Blend: AUG-CC-PVTZ-JKFIT

    Orbital Energies [Eh]
    ---------------------

    Doubly Occupied:

       1A    -20.554077     2A    -11.336591     3A    -11.259498
       4A    -11.256989     5A    -11.254044     6A    -11.253047
       7A    -11.251562     8A    -11.249779     9A    -11.237989
      10A     -1.378692    11A     -1.172983    12A     -1.065655
      13A     -1.043028    14A     -0.948206    15A     -0.891758
      16A     -0.834434    17A     -0.771783    18A     -0.707677
      19A     -0.678377    20A     -0.650090    21A     -0.619137
      22A     -0.609080    23A     -0.591492    24A     -0.581175
      25A     -0.553062    26A     -0.544323    27A     -0.519882
      28A     -0.502812    29A     -0.487803    30A     -0.428362
      31A     -0.353645    32A     -0.339310

  @DF-RHF Final Energy:  -382.59496300655405

   => Energetics <=

    Nuclear Repulsion Energy =            396.1532258607718404
    One-Electron Energy =               -1303.6436938369399741
    Two-Electron Energy =                 524.8955049696140804
    Total Energy =                       -382.5949630065540532
  Basis Set: (AUG-CC-PVTZ AUX)
    Blend: AUG-CC-PVTZ-RI
    Molecular point group: c1

    Geometry (in Angstrom), charge = 0, multiplicity = 1:

       Center              X                  Y                   Z               Mass
    ------------   -----------------  -----------------  -----------------  -----------------
         O           -3.188698952331    -0.320162596095     0.005379137613    15.994914619570
         C            1.634648047669    -0.329239596095    -0.016754862387    12.000000000000
         C            0.383479047669    -0.955003596095    -0.011437862387    12.000000000000
         C           -0.795691952331    -0.202266596095    -0.002793862387    12.000000000000
         C            1.672962047669     1.071646403905    -0.008364862387    12.000000000000
         C           -0.743289952331     1.197489403905     0.005051137613    12.000000000000
         C            0.496839047669     1.828806403905    -0.000034862387    12.000000000000
         C            2.906182047669    -1.136863596095     0.012092137613    12.000000000000
         C           -2.103154952331    -0.893526596095    -0.003884862387    12.000000000000
         H            0.323403047669    -2.044194596095    -0.021465862387     1.007825032230
         H            2.637256047669     1.577764403905    -0.016455862387     1.007825032230
         H           -1.672782652331     1.758669603905     0.208907637613     1.007825032230
         H            2.756087047669    -2.122410596095    -0.437088862387     1.007825032230
         H            3.705699047669    -0.631006596095    -0.536334862387     1.007825032230
         H            3.252162047669    -1.287863596095     1.040233137613     1.007825032230
         H            0.555082047669     2.914722403905     0.001695137613     1.007825032230
         H           -2.051995952331    -2.002838596095    -0.013760862387     1.007825032230

  Basis Set: AUG-CC-PVTZ
    Blend: AUG-CC-PVTZ
  Basis Set: (AUG-CC-PVTZ AUX)
    Blend: AUG-CC-PVTZ-JKFIT
	 Reference Energy          =    -382.5949630065540532 [Eh]
	 Singles Energy            =      -0.0000000000000000 [Eh]
	 Same-Spin Energy          =      -0.4082905714173983 [Eh]
	 Opposite-Spin Energy      =      -1.2867100023055937 [Eh]
	 Correlation Energy        =      -1.6950005737229921 [Eh]
	 Total Energy              =    -384.2899635802770604 [Eh]

	 ================> DF-SCS-MP2 Energies <==================
	-----------------------------------------------------------
	 SCS Same-Spin Scale       =       0.3333333333333333 [-]
	 SCS Opposite-Spin Scale   =       1.2000000000000000 [-]
	 SCS Same-Spin Energy      =      -0.1360968571391328 [Eh]
	 SCS Opposite-Spin Energy  =      -1.5440520027667124 [Eh]
	 SCS Correlation Energy    =      -1.6801488599058452 [Eh]
	 SCS Total Energy          =    -384.2751118664598948 [Eh]
	-----------------------------------------------------------

  Dipole Moment: [D]
     X:     3.7078      Y:    -0.5072      Z:     0.1440     Total:     3.7451

*** Psi4 exiting successfully. Buy a developer a beer!
