                               Psi4 1.3.2 release

  ==> Input File <==

--------------------------------------------------------------------------
#psi4
#
memory 32 gb

molecule  {
0 1
  O       -3.2622350    -0.3059220     0.0067540
  C        1.5611120    -0.3149990    -0.0153800
  C        0.3099430    -0.9407630    -0.0100630
  C       -0.8692280    -0.1880260    -0.0014190
  C        1.5994260     1.0858870    -0.0069900
  C       -0.8168260     1.2117300     0.0064260
  C        0.4233030     1.8430470     0.0013400
  C        2.8326460    -1.1226230     0.0134670
  C       -2.1766910    -0.8792860    -0.0025100
  H        0.2498670    -2.0299540    -0.0200910
  H        2.5637200     1.5920050    -0.0150810
  H       -1.7471690     1.7737230     0.0102860
  H        2.6825510    -2.1081700    -0.4357140
  H        3.6321630    -0.6167660    -0.5349600
  H        3.1786260    -1.2736230     1.0416080
  H        0.4815460     2.9289630     0.0030700
  H       -2.1257244    -1.9881592    -0.0623837
units angstrom
no_reorient  #important for SAPT in psi4, default
symmetry c1  #important for SAPT in psi4, default
}

set PROPERTIES_ORIGIN ["COM"]
properties('MP2/aug-cc-pvtz', properties = ['dipole'])
--------------------------------------------------------------------------

    Molecular point group: c1
  Charge       = 0
  Multiplicity = 1
  Basis Set: AUG-CC-PVTZ
    Blend: AUG-CC-PVTZ
  Basis Set: (AUG-CC-PVTZ AUX)
    Blend: AUG-CC-PVTZ-JKFIT

    Orbital Energies [Eh]
    ---------------------

    Doubly Occupied:

       1A    -20.554185     2A    -11.336799     3A    -11.259228
       4A    -11.256898     5A    -11.253989     6A    -11.252755
       7A    -11.250501     8A    -11.249275     9A    -11.237856
      10A     -1.378830    11A     -1.172927    12A     -1.065798
      13A     -1.042967    14A     -0.948582    15A     -0.891777
      16A     -0.834593    17A     -0.772209    18A     -0.709066
      19A     -0.678966    20A     -0.650183    21A     -0.619168
      22A     -0.608980    23A     -0.590755    24A     -0.583507
      25A     -0.552965    26A     -0.544392    27A     -0.520114
      28A     -0.502762    29A     -0.489198    30A     -0.428377
      31A     -0.353570    32A     -0.339621

  @DF-RHF Final Energy:  -382.59754676714414

   => Energetics <=

    Nuclear Repulsion Energy =            396.2225848971736468
    One-Electron Energy =               -1303.7786788322916891
    Two-Electron Energy =                 524.9585471679738475
    Total Energy =                       -382.5975467671441947
  Basis Set: (AUG-CC-PVTZ AUX)
    Blend: AUG-CC-PVTZ-RI
    Molecular point group: c1

    Geometry (in Angstrom), charge = 0, multiplicity = 1:

       Center              X                  Y                   Z               Mass
    ------------   -----------------  -----------------  -----------------  -----------------
         O           -3.188690199366    -0.320173102674     0.007477718555    15.994914619570
         C            1.634656800634    -0.329250102674    -0.014656281445    12.000000000000
         C            0.383487800634    -0.955014102674    -0.009339281445    12.000000000000
         C           -0.795683199366    -0.202277102674    -0.000695281445    12.000000000000
         C            1.672970800634     1.071635897326    -0.006266281445    12.000000000000
         C           -0.743281199366     1.197478897326     0.007149718555    12.000000000000
         C            0.496847800634     1.828795897326     0.002063718555    12.000000000000
         C            2.906190800634    -1.136874102674     0.014190718555    12.000000000000
         C           -2.103146199366    -0.893537102674    -0.001786281445    12.000000000000
         H            0.323411800634    -2.044205102674    -0.019367281445     1.007825032230
         H            2.637264800634     1.577753897326    -0.014357281445     1.007825032230
         H           -1.673624199366     1.759471897326     0.011009718555     1.007825032230
         H            2.756095800634    -2.122421102674    -0.434990281445     1.007825032230
         H            3.705707800634    -0.631017102674    -0.534236281445     1.007825032230
         H            3.252170800634    -1.287874102674     1.042331718555     1.007825032230
         H            0.555090800634     2.914711897326     0.003793718555     1.007825032230
         H           -2.052179599366    -2.002410302674    -0.061659981445     1.007825032230

  Basis Set: AUG-CC-PVTZ
    Blend: AUG-CC-PVTZ
  Basis Set: (AUG-CC-PVTZ AUX)
    Blend: AUG-CC-PVTZ-JKFIT
	 Reference Energy          =    -382.5975467671441379 [Eh]
	 Singles Energy            =      -0.0000000000000000 [Eh]
	 Same-Spin Energy          =      -0.4081368600726765 [Eh]
	 Opposite-Spin Energy      =      -1.2864138148628745 [Eh]
	 Correlation Energy        =      -1.6945506749355510 [Eh]
	 Total Energy              =    -384.2920974420796938 [Eh]

	 ================> DF-SCS-MP2 Energies <==================
	-----------------------------------------------------------
	 SCS Same-Spin Scale       =       0.3333333333333333 [-]
	 SCS Opposite-Spin Scale   =       1.2000000000000000 [-]
	 SCS Same-Spin Energy      =      -0.1360456200242255 [Eh]
	 SCS Opposite-Spin Energy  =      -1.5436965778354494 [Eh]
	 SCS Correlation Energy    =      -1.6797421978596749 [Eh]
	 SCS Total Energy          =    -384.2772889650038337 [Eh]
	-----------------------------------------------------------

  Dipole Moment: [D]
     X:     3.6837      Y:    -0.4912      Z:     0.0047     Total:     3.7164

*** Psi4 exiting successfully. Buy a developer a beer!
