                               Psi4 1.3.2 release

  ==> Input File <==

--------------------------------------------------------------------------
#psi4
#
memory 32 gb

molecule  {
0 1
  O       -3.2622350    -0.3059220     0.0067540
  C        1.5611120    -0.3149990    -0.0153800
  C        0.3099430    -0.9407630    -0.0100630
  C       -0.8692280    -0.1880260    -0.0014190
  C        1.5994260     1.0858870    -0.0069900
  C       -0.8168260     1.2117300     0.0064260
  C        0.4233030     1.8430470     0.0013400
  C        2.8326460    -1.1226230     0.0134670
  C       -2.1762582    -0.8802085     0.1474865
  H        0.2498670    -2.0299540    -0.0200910
  H        2.5637200     1.5920050    -0.0150810
  H       -1.7471690     1.7737230     0.0102860
  H        2.6825510    -2.1081700    -0.4357140
  H        3.6321630    -0.6167660    -0.5349600
  H        3.1786260    -1.2736230     1.0416080
  H        0.4815460     2.9289630     0.0030700
  H       -2.1255320    -1.9885980    -0.0123860
units angstrom
no_reorient  #important for SAPT in psi4, default
symmetry c1  #important for SAPT in psi4, default
}

set PROPERTIES_ORIGIN ["COM"]
properties('MP2/aug-cc-pvtz', properties = ['dipole'])
--------------------------------------------------------------------------

    Molecular point group: c1
  Charge       = 0
  Multiplicity = 1
  Basis Set: AUG-CC-PVTZ
    Blend: AUG-CC-PVTZ
  Basis Set: (AUG-CC-PVTZ AUX)
    Blend: AUG-CC-PVTZ-JKFIT

    Orbital Energies [Eh]
    ---------------------

    Doubly Occupied:

       1A    -20.556726     2A    -11.339815     3A    -11.259115
       4A    -11.256624     5A    -11.253751     6A    -11.253670
       7A    -11.250279     8A    -11.249061     9A    -11.237754
      10A     -1.374918    11A     -1.172584    12A     -1.065261
      13A     -1.042351    14A     -0.948403    15A     -0.890408
      16A     -0.834079    17A     -0.771646    18A     -0.707839
      19A     -0.677403    20A     -0.649195    21A     -0.617248
      22A     -0.608290    23A     -0.590549    24A     -0.583309
      25A     -0.552830    26A     -0.542456    27A     -0.519812
      28A     -0.502612    29A     -0.487964    30A     -0.427796
      31A     -0.352849    32A     -0.339193

  @DF-RHF Final Energy:  -382.58751654364494

   => Energetics <=

    Nuclear Repulsion Energy =            395.9426593198639921
    One-Electron Energy =               -1303.2287739617775060
    Two-Electron Energy =                 524.6985980982685760
    Total Energy =                       -382.5875165436449379
  Basis Set: (AUG-CC-PVTZ AUX)
    Blend: AUG-CC-PVTZ-RI
    Molecular point group: c1

    Geometry (in Angstrom), charge = 0, multiplicity = 1:

       Center              X                  Y                   Z               Mass
    ------------   -----------------  -----------------  -----------------  -----------------
         O           -3.188735073738    -0.320077213353    -0.007934452316    15.994914619570
         C            1.634611926262    -0.329154213353    -0.030068452316    12.000000000000
         C            0.383442926262    -0.954918213353    -0.024751452316    12.000000000000
         C           -0.795728073738    -0.202181213353    -0.016107452316    12.000000000000
         C            1.672925926262     1.071731786647    -0.021678452316    12.000000000000
         C           -0.743326073738     1.197574786647    -0.008262452316    12.000000000000
         C            0.496802926262     1.828891786647    -0.013348452316    12.000000000000
         C            2.906145926262    -1.136778213353    -0.001221452316    12.000000000000
         C           -2.102758273738    -0.894363713353     0.132798047684    12.000000000000
         H            0.323366926262    -2.044109213353    -0.034779452316     1.007825032230
         H            2.637219926262     1.577849786647    -0.029769452316     1.007825032230
         H           -1.673669073738     1.759567786647    -0.004402452316     1.007825032230
         H            2.756050926262    -2.122325213353    -0.450402452316     1.007825032230
         H            3.705662926262    -0.630921213353    -0.549648452316     1.007825032230
         H            3.252125926262    -1.287778213353     1.026919547684     1.007825032230
         H            0.555045926262     2.914807786647    -0.011618452316     1.007825032230
         H           -2.052032073738    -2.002753213353    -0.027074452316     1.007825032230

  Basis Set: AUG-CC-PVTZ
    Blend: AUG-CC-PVTZ
  Basis Set: (AUG-CC-PVTZ AUX)
    Blend: AUG-CC-PVTZ-JKFIT
	 Reference Energy          =    -382.5875165436449379 [Eh]
	 Singles Energy            =      -0.0000000000000000 [Eh]
	 Same-Spin Energy          =      -0.4087417091124843 [Eh]
	 Opposite-Spin Energy      =      -1.2878256734851503 [Eh]
	 Correlation Energy        =      -1.6965673825976346 [Eh]
	 Total Energy              =    -384.2840839262425447 [Eh]

	 ================> DF-SCS-MP2 Energies <==================
	-----------------------------------------------------------
	 SCS Same-Spin Scale       =       0.3333333333333333 [-]
	 SCS Opposite-Spin Scale   =       1.2000000000000000 [-]
	 SCS Same-Spin Energy      =      -0.1362472363708281 [Eh]
	 SCS Opposite-Spin Energy  =      -1.5453908081821803 [Eh]
	 SCS Correlation Energy    =      -1.6816380445530084 [Eh]
	 SCS Total Energy          =    -384.2691545881979209 [Eh]
	-----------------------------------------------------------

  Dipole Moment: [D]
     X:     3.6483      Y:    -0.4842      Z:     0.1242     Total:     3.6824

*** Psi4 exiting successfully. Buy a developer a beer!
