                               Psi4 1.3.2 release

  ==> Input File <==

--------------------------------------------------------------------------
#psi4
#
memory 32 gb

molecule  {
0 1
  O       -3.2622350    -0.3059220     0.0067540
  C        1.5611120    -0.3149990    -0.0153800
  C        0.3099430    -0.9407630    -0.0100630
  C       -0.8692280    -0.1880260    -0.0014190
  C        1.5994260     1.0858870    -0.0069900
  C       -0.8168260     1.2117300     0.0064260
  C        0.4233030     1.8430470     0.0013400
  C        2.8326460    -1.1226230     0.0134670
  C       -2.1759697    -0.8808235     0.2474842
  H        0.2498670    -2.0299540    -0.0200910
  H        2.5637200     1.5920050    -0.0150810
  H       -1.7471690     1.7737230     0.0102860
  H        2.6825510    -2.1081700    -0.4357140
  H        3.6321630    -0.6167660    -0.5349600
  H        3.1786260    -1.2736230     1.0416080
  H        0.4815460     2.9289630     0.0030700
  H       -2.1255320    -1.9885980    -0.0123860
units angstrom
no_reorient  #important for SAPT in psi4, default
symmetry c1  #important for SAPT in psi4, default
}

set PROPERTIES_ORIGIN ["COM"]
properties('MP2/aug-cc-pvtz', properties = ['dipole'])
--------------------------------------------------------------------------

    Molecular point group: c1
  Charge       = 0
  Multiplicity = 1
  Basis Set: AUG-CC-PVTZ
    Blend: AUG-CC-PVTZ
  Basis Set: (AUG-CC-PVTZ AUX)
    Blend: AUG-CC-PVTZ-JKFIT

    Orbital Energies [Eh]
    ---------------------

    Doubly Occupied:

       1A    -20.561350     2A    -11.345069     3A    -11.258928
       4A    -11.256418     5A    -11.255231     6A    -11.253159
       7A    -11.249938     8A    -11.248680     9A    -11.237566
      10A     -1.368111    11A     -1.172007    12A     -1.064378
      13A     -1.041267    14A     -0.948091    15A     -0.887964
      16A     -0.833196    17A     -0.770692    18A     -0.705924
      19A     -0.674542    20A     -0.647402    21A     -0.613667
      22A     -0.607002    23A     -0.590207    24A     -0.582991
      25A     -0.552572    26A     -0.539307    27A     -0.519127
      28A     -0.502369    29A     -0.485775    30A     -0.426819
      31A     -0.351677    32A     -0.338448

  @DF-RHF Final Energy:  -382.56929083847291

   => Energetics <=

    Nuclear Repulsion Energy =            395.4441822863915377
    One-Electron Energy =               -1302.2471956366559880
    Two-Electron Energy =                 524.2337225117914841
    Total Energy =                       -382.5692908384729662
  Basis Set: (AUG-CC-PVTZ AUX)
    Blend: AUG-CC-PVTZ-RI
    Molecular point group: c1

    Geometry (in Angstrom), charge = 0, multiplicity = 1:

       Center              X                  Y                   Z               Mass
    ------------   -----------------  -----------------  -----------------  -----------------
         O           -3.188763909917    -0.320015742815    -0.017929431816    15.994914619570
         C            1.634583090083    -0.329092742815    -0.040063431816    12.000000000000
         C            0.383414090083    -0.954856742815    -0.034746431816    12.000000000000
         C           -0.795756909917    -0.202119742815    -0.026102431816    12.000000000000
         C            1.672897090083     1.071793257185    -0.031673431816    12.000000000000
         C           -0.743354909917     1.197636257185    -0.018257431816    12.000000000000
         C            0.496774090083     1.828953257185    -0.023343431816    12.000000000000
         C            2.906117090083    -1.136716742815    -0.011216431816    12.000000000000
         C           -2.102498609917    -0.894917242815     0.222800768184    12.000000000000
         H            0.323338090083    -2.044047742815    -0.044774431816     1.007825032230
         H            2.637191090083     1.577911257185    -0.039764431816     1.007825032230
         H           -1.673697909917     1.759629257185    -0.014397431816     1.007825032230
         H            2.756022090083    -2.122263742815    -0.460397431816     1.007825032230
         H            3.705634090083    -0.630859742815    -0.559643431816     1.007825032230
         H            3.252097090083    -1.287716742815     1.016924568184     1.007825032230
         H            0.555017090083     2.914869257185    -0.021613431816     1.007825032230
         H           -2.052060909917    -2.002691742815    -0.037069431816     1.007825032230

  Basis Set: AUG-CC-PVTZ
    Blend: AUG-CC-PVTZ
  Basis Set: (AUG-CC-PVTZ AUX)
    Blend: AUG-CC-PVTZ-JKFIT
	 Reference Energy          =    -382.5692908384729094 [Eh]
	 Singles Energy            =      -0.0000000000000000 [Eh]
	 Same-Spin Energy          =      -0.4098450201347776 [Eh]
	 Opposite-Spin Energy      =      -1.2908573177736236 [Eh]
	 Correlation Energy        =      -1.7007023379084012 [Eh]
	 Total Energy              =    -384.2699931763813197 [Eh]

	 ================> DF-SCS-MP2 Energies <==================
	-----------------------------------------------------------
	 SCS Same-Spin Scale       =       0.3333333333333333 [-]
	 SCS Opposite-Spin Scale   =       1.2000000000000000 [-]
	 SCS Same-Spin Energy      =      -0.1366150067115925 [Eh]
	 SCS Opposite-Spin Energy  =      -1.5490287813283483 [Eh]
	 SCS Correlation Energy    =      -1.6856437880399409 [Eh]
	 SCS Total Energy          =    -384.2549346265128634 [Eh]
	-----------------------------------------------------------

  Dipole Moment: [D]
     X:     3.5851      Y:    -0.4670      Z:     0.1807     Total:     3.6199

*** Psi4 exiting successfully. Buy a developer a beer!
