                               Psi4 1.3.2 release

  ==> Input File <==

--------------------------------------------------------------------------
#psi4
#
memory 32 gb

molecule  {
0 1
  O       -3.2622350    -0.3059220     0.0067540
  C        1.5611120    -0.3149990    -0.0153800
  C        0.3099430    -0.9407630    -0.0100630
  C       -0.8692280    -0.1880260    -0.0014190
  C        1.5994260     1.0858870    -0.0069900
  C       -0.8168260     1.2117300     0.0064260
  C        0.4233030     1.8430470     0.0013400
  C        2.8326460    -1.1226230     0.0134670
  C       -2.1766910    -0.8792860    -0.0025100
  H        0.2498670    -2.0299540    -0.0200910
  H        2.5637200     1.5920050    -0.0150810
  H       -1.7471690     1.7737230     0.0102860
  H        2.6825510    -2.1081700    -0.4357140
  H        3.6321630    -0.6167660    -0.5349600
  H        3.1786260    -1.2736230     1.0416080
  H        0.4815460     2.9289630     0.0030700
  H       -2.1266863    -1.9859655    -0.3123722
units angstrom
no_reorient  #important for SAPT in psi4, default
symmetry c1  #important for SAPT in psi4, default
}

set PROPERTIES_ORIGIN ["COM"]
properties('MP2/aug-cc-pvtz', properties = ['dipole'])
--------------------------------------------------------------------------

    Molecular point group: c1
  Charge       = 0
  Multiplicity = 1
  Basis Set: AUG-CC-PVTZ
    Blend: AUG-CC-PVTZ
  Basis Set: (AUG-CC-PVTZ AUX)
    Blend: AUG-CC-PVTZ-JKFIT

    Orbital Energies [Eh]
    ---------------------

    Doubly Occupied:

       1A    -20.556122     2A    -11.340960     3A    -11.259283
       4A    -11.256830     5A    -11.254014     6A    -11.253691
       7A    -11.250812     8A    -11.249526     9A    -11.237860
      10A     -1.380108    11A     -1.173082    12A     -1.065953
      13A     -1.042878    14A     -0.948673    15A     -0.889762
      16A     -0.833588    17A     -0.768900    18A     -0.707554
      19A     -0.677256    20A     -0.650340    21A     -0.618530
      22A     -0.608903    23A     -0.590683    24A     -0.583669
      25A     -0.553639    26A     -0.543500    27A     -0.520140
      28A     -0.502839    29A     -0.489749    30A     -0.426411
      31A     -0.353527    32A     -0.339862

  @DF-RHF Final Energy:  -382.59201861837408

   => Energetics <=

    Nuclear Repulsion Energy =            396.0723992947501415
    One-Electron Energy =               -1303.4715496357566735
    Two-Electron Energy =                 524.8071317226324481
    Total Energy =                       -382.5920186183741407
  Basis Set: (AUG-CC-PVTZ AUX)
    Blend: AUG-CC-PVTZ-RI
    Molecular point group: c1

    Geometry (in Angstrom), charge = 0, multiplicity = 1:

       Center              X                  Y                   Z               Mass
    ------------   -----------------  -----------------  -----------------  -----------------
         O           -3.188682124679    -0.320191517730     0.009576251648    15.994914619570
         C            1.634664875321    -0.329268517730    -0.012557748352    12.000000000000
         C            0.383495875321    -0.955032517730    -0.007240748352    12.000000000000
         C           -0.795675124679    -0.202295517730     0.001403251648    12.000000000000
         C            1.672978875321     1.071617482270    -0.004167748352    12.000000000000
         C           -0.743273124679     1.197460482270     0.009248251648    12.000000000000
         C            0.496855875321     1.828777482270     0.004162251648    12.000000000000
         C            2.906198875321    -1.136892517730     0.016289251648    12.000000000000
         C           -2.103138124679    -0.893555517730     0.000312251648    12.000000000000
         H            0.323419875321    -2.044223517730    -0.017268748352     1.007825032230
         H            2.637272875321     1.577735482270    -0.012258748352     1.007825032230
         H           -1.673616124679     1.759453482270     0.013108251648     1.007825032230
         H            2.756103875321    -2.122439517730    -0.432891748352     1.007825032230
         H            3.705715875321    -0.631035517730    -0.532137748352     1.007825032230
         H            3.252178875321    -1.287892517730     1.044430251648     1.007825032230
         H            0.555098875321     2.914693482270     0.005892251648     1.007825032230
         H           -2.053133424679    -2.000235017730    -0.309549948352     1.007825032230

  Basis Set: AUG-CC-PVTZ
    Blend: AUG-CC-PVTZ
  Basis Set: (AUG-CC-PVTZ AUX)
    Blend: AUG-CC-PVTZ-JKFIT
	 Reference Energy          =    -382.5920186183740839 [Eh]
	 Singles Energy            =      -0.0000000000000000 [Eh]
	 Same-Spin Energy          =      -0.4084720649099031 [Eh]
	 Opposite-Spin Energy      =      -1.2871092785084521 [Eh]
	 Correlation Energy        =      -1.6955813434183553 [Eh]
	 Total Energy              =    -384.2875999617924663 [Eh]

	 ================> DF-SCS-MP2 Energies <==================
	-----------------------------------------------------------
	 SCS Same-Spin Scale       =       0.3333333333333333 [-]
	 SCS Opposite-Spin Scale   =       1.2000000000000000 [-]
	 SCS Same-Spin Energy      =      -0.1361573549699677 [Eh]
	 SCS Opposite-Spin Energy  =      -1.5445311342101424 [Eh]
	 SCS Correlation Energy    =      -1.6806884891801102 [Eh]
	 SCS Total Energy          =    -384.2727071075541971 [Eh]
	-----------------------------------------------------------

  Dipole Moment: [D]
     X:     3.6720      Y:    -0.4245      Z:    -0.0735     Total:     3.6972

*** Psi4 exiting successfully. Buy a developer a beer!
