                               Psi4 1.3.2 release

  ==> Input File <==

--------------------------------------------------------------------------
#psi4
#
memory 32 gb

molecule  {
0 1
  O       -3.2622350    -0.3059220     0.0067540
  C        1.5611120    -0.3149990    -0.0153800
  C        0.3099430    -0.9407630    -0.0100630
  C       -0.8692280    -0.1880260    -0.0014190
  C        1.5994260     1.0858870    -0.0069900
  C       -0.8168260     1.2117300     0.0064260
  C        0.4233030     1.8430470     0.0013400
  C        2.8344505    -1.1234679    -0.1865231
  C       -2.1766910    -0.8792860    -0.0025100
  H        0.2498670    -2.0299540    -0.0200910
  H        2.5637200     1.5920050    -0.0150810
  H       -1.7471690     1.7737230     0.0102860
  H        2.6825510    -2.1081700    -0.4357140
  H        3.6321630    -0.6167660    -0.5349600
  H        3.1786260    -1.2736230     1.0416080
  H        0.4815460     2.9289630     0.0030700
  H       -2.1255320    -1.9885980    -0.0123860
units angstrom
no_reorient  #important for SAPT in psi4, default
symmetry c1  #important for SAPT in psi4, default
}

set PROPERTIES_ORIGIN ["COM"]
properties('MP2/aug-cc-pvtz', properties = ['dipole'])
--------------------------------------------------------------------------

    Molecular point group: c1
  Charge       = 0
  Multiplicity = 1
  Basis Set: AUG-CC-PVTZ
    Blend: AUG-CC-PVTZ
  Basis Set: (AUG-CC-PVTZ AUX)
    Blend: AUG-CC-PVTZ-JKFIT

    Orbital Energies [Eh]
    ---------------------

    Doubly Occupied:

       1A    -20.554453     2A    -11.336929     3A    -11.263556
       4A    -11.257082     5A    -11.253911     6A    -11.253303
       7A    -11.250536     8A    -11.248800     9A    -11.245258
      10A     -1.379035    11A     -1.173235    12A     -1.066347
      13A     -1.043218    14A     -0.952402    15A     -0.892552
      16A     -0.835769    17A     -0.774290    18A     -0.709955
      19A     -0.682886    20A     -0.654621    21A     -0.628786
      22A     -0.609968    23A     -0.591214    24A     -0.586372
      25A     -0.558451    26A     -0.531429    27A     -0.522635
      28A     -0.505806    29A     -0.473987    30A     -0.428814
      31A     -0.354041    32A     -0.333091

  @DF-RHF Final Energy:  -382.56510760859862

   => Energetics <=

    Nuclear Repulsion Energy =            396.0578525754584689
    One-Electron Energy =               -1303.3404589645181204
    Two-Electron Energy =                 524.7174987804610282
    Total Energy =                       -382.5651076085986233
  Basis Set: (AUG-CC-PVTZ AUX)
    Blend: AUG-CC-PVTZ-RI
    Molecular point group: c1

    Geometry (in Angstrom), charge = 0, multiplicity = 1:

       Center              X                  Y                   Z               Mass
    ------------   -----------------  -----------------  -----------------  -----------------
         O           -3.188872178025    -0.320084969636     0.027047441190    15.994914619570
         C            1.634474821975    -0.329161969636     0.004913441190    12.000000000000
         C            0.383305821975    -0.954925969636     0.010230441190    12.000000000000
         C           -0.795865178025    -0.202188969636     0.018874441190    12.000000000000
         C            1.672788821975     1.071724030364     0.013303441190    12.000000000000
         C           -0.743463178025     1.197567030364     0.026719441190    12.000000000000
         C            0.496665821975     1.828884030364     0.021633441190    12.000000000000
         C            2.907813321975    -1.137630869636    -0.166229658810    12.000000000000
         C           -2.103328178025    -0.893448969636     0.017783441190    12.000000000000
         H            0.323229821975    -2.044116969636     0.000202441190     1.007825032230
         H            2.637082821975     1.577842030364     0.005212441190     1.007825032230
         H           -1.673806178025     1.759560030364     0.030579441190     1.007825032230
         H            2.755913821975    -2.122332969636    -0.415420558810     1.007825032230
         H            3.705525821975    -0.630928969636    -0.514666558810     1.007825032230
         H            3.251988821975    -1.287785969636     1.061901441190     1.007825032230
         H            0.554908821975     2.914800030364     0.023363441190     1.007825032230
         H           -2.052169178025    -2.002760969636     0.007907441190     1.007825032230

  Basis Set: AUG-CC-PVTZ
    Blend: AUG-CC-PVTZ
  Basis Set: (AUG-CC-PVTZ AUX)
    Blend: AUG-CC-PVTZ-JKFIT
	 Reference Energy          =    -382.5651076085986233 [Eh]
	 Singles Energy            =      -0.0000000000000000 [Eh]
	 Same-Spin Energy          =      -0.4085997312721251 [Eh]
	 Opposite-Spin Energy      =      -1.2879076355262864 [Eh]
	 Correlation Energy        =      -1.6965073667984116 [Eh]
	 Total Energy              =    -384.2616149753970376 [Eh]

	 ================> DF-SCS-MP2 Energies <==================
	-----------------------------------------------------------
	 SCS Same-Spin Scale       =       0.3333333333333333 [-]
	 SCS Opposite-Spin Scale   =       1.2000000000000000 [-]
	 SCS Same-Spin Energy      =      -0.1361999104240417 [Eh]
	 SCS Opposite-Spin Energy  =      -1.5454891626315437 [Eh]
	 SCS Correlation Energy    =      -1.6816890730555853 [Eh]
	 SCS Total Energy          =    -384.2467966816541889 [Eh]
	-----------------------------------------------------------

  Dipole Moment: [D]
     X:     3.7270      Y:    -0.5244      Z:    -0.0849     Total:     3.7647

*** Psi4 exiting successfully. Buy a developer a beer!
