                               Psi4 1.3.2 release

  ==> Input File <==

--------------------------------------------------------------------------
#psi4
#
memory 32 gb

molecule  {
0 1
  O       -3.2622350    -0.3059220     0.0067540
  C        1.5611120    -0.3149990    -0.0153800
  C        0.3099430    -0.9407630    -0.0100630
  C       -0.8692280    -0.1880260    -0.0014190
  C        1.5994260     1.0858870    -0.0069900
  C       -0.8168260     1.2117300     0.0064260
  C        0.4233030     1.8430470     0.0013400
  C        2.8326460    -1.1226230     0.0134670
  C       -2.1766910    -0.8792860    -0.0025100
  H        0.2498670    -2.0299540    -0.0200910
  H        2.5637200     1.5920050    -0.0150810
  H       -1.7458936     1.7725038     0.3102808
  H        2.6825510    -2.1081700    -0.4357140
  H        3.6321630    -0.6167660    -0.5349600
  H        3.1786260    -1.2736230     1.0416080
  H        0.4815460     2.9289630     0.0030700
  H       -2.1255320    -1.9885980    -0.0123860
units angstrom
no_reorient  #important for SAPT in psi4, default
symmetry c1  #important for SAPT in psi4, default
}

set PROPERTIES_ORIGIN ["COM"]
properties('MP2/aug-cc-pvtz', properties = ['dipole'])
--------------------------------------------------------------------------

    Molecular point group: c1
  Charge       = 0
  Multiplicity = 1
  Basis Set: AUG-CC-PVTZ
    Blend: AUG-CC-PVTZ
  Basis Set: (AUG-CC-PVTZ AUX)
    Blend: AUG-CC-PVTZ-JKFIT

    Orbital Energies [Eh]
    ---------------------

    Doubly Occupied:

       1A    -20.554025     2A    -11.336493     3A    -11.259858
       4A    -11.257117     5A    -11.254148     6A    -11.253891
       7A    -11.252676     8A    -11.250196     9A    -11.238179
      10A     -1.378577    11A     -1.173079    12A     -1.065517
      13A     -1.043118    14A     -0.947798    15A     -0.891675
      16A     -0.834237    17A     -0.771217    18A     -0.706102
      19A     -0.677574    20A     -0.649990    21A     -0.619092
      22A     -0.609216    23A     -0.591860    24A     -0.578886
      25A     -0.553220    26A     -0.544143    27A     -0.519603
      28A     -0.502705    29A     -0.486156    30A     -0.428290
      31A     -0.353750    32A     -0.338989

  @DF-RHF Final Energy:  -382.59118779442520

   => Energetics <=

    Nuclear Repulsion Energy =            396.0636527260302273
    One-Electron Energy =               -1303.4669252875619350
    Two-Electron Energy =                 524.8120847671065121
    Total Energy =                       -382.5911877944251955
  Basis Set: (AUG-CC-PVTZ AUX)
    Blend: AUG-CC-PVTZ-RI
    Molecular point group: c1

    Geometry (in Angstrom), charge = 0, multiplicity = 1:

       Center              X                  Y                   Z               Mass
    ------------   -----------------  -----------------  -----------------  -----------------
         O           -3.188702520840    -0.320159184563     0.004539700032    15.994914619570
         C            1.634644479160    -0.329236184563    -0.017594299968    12.000000000000
         C            0.383475479160    -0.955000184563    -0.012277299968    12.000000000000
         C           -0.795695520840    -0.202263184563    -0.003633299968    12.000000000000
         C            1.672958479160     1.071649815437    -0.009204299968    12.000000000000
         C           -0.743293520840     1.197492815437     0.004211700032    12.000000000000
         C            0.496835479160     1.828809815437    -0.000874299968    12.000000000000
         C            2.906178479160    -1.136860184563     0.011252700032    12.000000000000
         C           -2.103158520840    -0.893523184563    -0.004724299968    12.000000000000
         H            0.323399479160    -2.044191184563    -0.022305299968     1.007825032230
         H            2.637252479160     1.577767815437    -0.017295299968     1.007825032230
         H           -1.672361120840     1.758266615437     0.308066500032     1.007825032230
         H            2.756083479160    -2.122407184563    -0.437928299968     1.007825032230
         H            3.705695479160    -0.631003184563    -0.537174299968     1.007825032230
         H            3.252158479160    -1.287860184563     1.039393700032     1.007825032230
         H            0.555078479160     2.914725815437     0.000855700032     1.007825032230
         H           -2.051999520840    -2.002835184563    -0.014600299968     1.007825032230

  Basis Set: AUG-CC-PVTZ
    Blend: AUG-CC-PVTZ
  Basis Set: (AUG-CC-PVTZ AUX)
    Blend: AUG-CC-PVTZ-JKFIT
	 Reference Energy          =    -382.5911877944251955 [Eh]
	 Singles Energy            =      -0.0000000000000000 [Eh]
	 Same-Spin Energy          =      -0.4084955297414053 [Eh]
	 Opposite-Spin Energy      =      -1.2871739296631450 [Eh]
	 Correlation Energy        =      -1.6956694594045505 [Eh]
	 Total Energy              =    -384.2868572538297371 [Eh]

	 ================> DF-SCS-MP2 Energies <==================
	-----------------------------------------------------------
	 SCS Same-Spin Scale       =       0.3333333333333333 [-]
	 SCS Opposite-Spin Scale   =       1.2000000000000000 [-]
	 SCS Same-Spin Energy      =      -0.1361651765804684 [Eh]
	 SCS Opposite-Spin Energy  =      -1.5446087155957740 [Eh]
	 SCS Correlation Energy    =      -1.6807738921762425 [Eh]
	 SCS Total Energy          =    -384.2719616866014576 [Eh]
	-----------------------------------------------------------

  Dipole Moment: [D]
     X:     3.7362      Y:    -0.5241      Z:     0.2030     Total:     3.7783

*** Psi4 exiting successfully. Buy a developer a beer!
