                               Psi4 1.3.2 release

  ==> Input File <==

--------------------------------------------------------------------------
#psi4
#
memory 32 gb

molecule  {
0 1
  O       -3.2622350    -0.3059220     0.0067540
  C        1.5611120    -0.3149990    -0.0153800
  C        0.3099430    -0.9407630    -0.0100630
  C       -0.8692280    -0.1880260    -0.0014190
  C        1.5994260     1.0858870    -0.0069900
  C       -0.8168260     1.2117300     0.0064260
  C        0.4233030     1.8430470     0.0013400
  C        2.8326460    -1.1226230     0.0134670
  C       -2.1766910    -0.8792860    -0.0025100
  H        0.2498670    -2.0299540    -0.0200910
  H        2.5637200     1.5920050    -0.0150810
  H       -1.7471690     1.7737230     0.0102860
  H        2.6825510    -2.1081700    -0.4357140
  H        3.6321630    -0.6167660    -0.5349600
  H        3.1786260    -1.2736230     1.0416080
  H        0.4815460     2.9289630     0.0030700
  H       -2.1261091    -1.9872817    -0.1623791
units angstrom
no_reorient  #important for SAPT in psi4, default
symmetry c1  #important for SAPT in psi4, default
}

set PROPERTIES_ORIGIN ["COM"]
properties('MP2/aug-cc-pvtz', properties = ['dipole'])
--------------------------------------------------------------------------

    Molecular point group: c1
  Charge       = 0
  Multiplicity = 1
  Basis Set: AUG-CC-PVTZ
    Blend: AUG-CC-PVTZ
  Basis Set: (AUG-CC-PVTZ AUX)
    Blend: AUG-CC-PVTZ-JKFIT

    Orbital Energies [Eh]
    ---------------------

    Doubly Occupied:

       1A    -20.554629     2A    -11.337768     3A    -11.259239
       4A    -11.256878     5A    -11.253990     6A    -11.252970
       7A    -11.250569     8A    -11.249331     9A    -11.237856
      10A     -1.379122    11A     -1.172959    12A     -1.065830
      13A     -1.042940    14A     -0.948601    15A     -0.891260
      16A     -0.834339    17A     -0.771398    18A     -0.708697
      19A     -0.678582    20A     -0.650219    21A     -0.619032
      22A     -0.608964    23A     -0.590735    24A     -0.583551
      25A     -0.553137    26A     -0.544150    27A     -0.520118
      28A     -0.502771    29A     -0.489330    30A     -0.427941
      31A     -0.353559    32A     -0.339674

  @DF-RHF Final Energy:  -382.59637416355491

   => Energetics <=

    Nuclear Repulsion Energy =            396.1872441898344732
    One-Electron Energy =               -1303.7069590122086993
    Two-Electron Energy =                 524.9233406588192565
    Total Energy =                       -382.5963741635549695
  Basis Set: (AUG-CC-PVTZ AUX)
    Blend: AUG-CC-PVTZ-RI
    Molecular point group: c1

    Geometry (in Angstrom), charge = 0, multiplicity = 1:

       Center              X                  Y                   Z               Mass
    ------------   -----------------  -----------------  -----------------  -----------------
         O           -3.188686969995    -0.320180468864     0.008317131792    15.994914619570
         C            1.634660030005    -0.329257468864    -0.013816868208    12.000000000000
         C            0.383491030005    -0.955021468864    -0.008499868208    12.000000000000
         C           -0.795679969995    -0.202284468864     0.000144131792    12.000000000000
         C            1.672974030005     1.071628531136    -0.005426868208    12.000000000000
         C           -0.743277969995     1.197471531136     0.007989131792    12.000000000000
         C            0.496851030005     1.828788531136     0.002903131792    12.000000000000
         C            2.906194030005    -1.136881468864     0.015030131792    12.000000000000
         C           -2.103142969995    -0.893544468864    -0.000946868208    12.000000000000
         H            0.323415030005    -2.044212468864    -0.018527868208     1.007825032230
         H            2.637268030005     1.577746531136    -0.013517868208     1.007825032230
         H           -1.673620969995     1.759464531136     0.011849131792     1.007825032230
         H            2.756099030005    -2.122428468864    -0.434150868208     1.007825032230
         H            3.705711030005    -0.631024468864    -0.533396868208     1.007825032230
         H            3.252174030005    -1.287881468864     1.043171131792     1.007825032230
         H            0.555094030005     2.914704531136     0.004633131792     1.007825032230
         H           -2.052561069995    -2.001540168864    -0.160815968208     1.007825032230

  Basis Set: AUG-CC-PVTZ
    Blend: AUG-CC-PVTZ
  Basis Set: (AUG-CC-PVTZ AUX)
    Blend: AUG-CC-PVTZ-JKFIT
	 Reference Energy          =    -382.5963741635549127 [Eh]
	 Singles Energy            =      -0.0000000000000000 [Eh]
	 Same-Spin Energy          =      -0.4082135624515133 [Eh]
	 Opposite-Spin Energy      =      -1.2865502622277791 [Eh]
	 Correlation Energy        =      -1.6947638246792924 [Eh]
	 Total Energy              =    -384.2911379882341976 [Eh]

	 ================> DF-SCS-MP2 Energies <==================
	-----------------------------------------------------------
	 SCS Same-Spin Scale       =       0.3333333333333333 [-]
	 SCS Opposite-Spin Scale   =       1.2000000000000000 [-]
	 SCS Same-Spin Energy      =      -0.1360711874838378 [Eh]
	 SCS Opposite-Spin Energy  =      -1.5438603146733350 [Eh]
	 SCS Correlation Energy    =      -1.6799315021571728 [Eh]
	 SCS Total Energy          =    -384.2763056657120728 [Eh]
	-----------------------------------------------------------

  Dipole Moment: [D]
     X:     3.6808      Y:    -0.4760      Z:    -0.0292     Total:     3.7116

*** Psi4 exiting successfully. Buy a developer a beer!
