                               Psi4 1.3.2 release

  ==> Input File <==

--------------------------------------------------------------------------
#psi4
#
memory 32 gb

molecule  {
0 1
  O       -3.2622350    -0.3059220     0.0067540
  C        1.5611120    -0.3149990    -0.0153800
  C        0.3099430    -0.9407630    -0.0100630
  C       -0.8692280    -0.1880260    -0.0014190
  C        1.5994260     1.0858870    -0.0069900
  C       -0.8168260     1.2117300     0.0064260
  C        0.4233030     1.8430470     0.0013400
  C        2.8326460    -1.1226230     0.0134670
  C       -2.1766910    -0.8792860    -0.0025100
  H        0.2498670    -2.0299540    -0.0200910
  H        2.5637200     1.5920050    -0.0150810
  H       -1.7471690     1.7737230     0.0102860
  H        2.6825510    -2.1081700    -0.4357140
  H        3.6321630    -0.6167660    -0.5349600
  H        3.1786260    -1.2736230     1.0416080
  H        0.4799140     2.9296106    -0.2969249
  H       -2.1255320    -1.9885980    -0.0123860
units angstrom
no_reorient  #important for SAPT in psi4, default
symmetry c1  #important for SAPT in psi4, default
}

set PROPERTIES_ORIGIN ["COM"]
properties('MP2/aug-cc-pvtz', properties = ['dipole'])
--------------------------------------------------------------------------

    Molecular point group: c1
  Charge       = 0
  Multiplicity = 1
  Basis Set: AUG-CC-PVTZ
    Blend: AUG-CC-PVTZ
  Basis Set: (AUG-CC-PVTZ AUX)
    Blend: AUG-CC-PVTZ-JKFIT

    Orbital Energies [Eh]
    ---------------------

    Doubly Occupied:

       1A    -20.554397     2A    -11.336981     3A    -11.259565
       4A    -11.257697     5A    -11.254788     6A    -11.253369
       7A    -11.253048     8A    -11.250717     9A    -11.238076
      10A     -1.379063    11A     -1.173276    12A     -1.066154
      13A     -1.042224    14A     -0.948900    15A     -0.892228
      16A     -0.831706    17A     -0.772624    18A     -0.708170
      19A     -0.679104    20A     -0.648164    21A     -0.619283
      22A     -0.604845    23A     -0.590771    24A     -0.583823
      25A     -0.553181    26A     -0.544757    27A     -0.520136
      28A     -0.504106    29A     -0.485052    30A     -0.428626
      31A     -0.353097    32A     -0.339918

  @DF-RHF Final Energy:  -382.59133329478755

   => Energetics <=

    Nuclear Repulsion Energy =            396.0759088718401131
    One-Electron Energy =               -1303.4787931324065084
    Two-Electron Energy =                 524.8115509657789062
    Total Energy =                       -382.5913332947875460
  Basis Set: (AUG-CC-PVTZ AUX)
    Blend: AUG-CC-PVTZ-RI
    Molecular point group: c1

    Geometry (in Angstrom), charge = 0, multiplicity = 1:

       Center              X                  Y                   Z               Mass
    ------------   -----------------  -----------------  -----------------  -----------------
         O           -3.188678114617    -0.320174855450     0.009576324681    15.994914619570
         C            1.634668885383    -0.329251855450    -0.012557675319    12.000000000000
         C            0.383499885383    -0.955015855450    -0.007240675319    12.000000000000
         C           -0.795671114617    -0.202278855450     0.001403324681    12.000000000000
         C            1.672982885383     1.071634144550    -0.004167675319    12.000000000000
         C           -0.743269114617     1.197477144550     0.009248324681    12.000000000000
         C            0.496859885383     1.828794144550     0.004162324681    12.000000000000
         C            2.906202885383    -1.136875855450     0.016289324681    12.000000000000
         C           -2.103134114617    -0.893538855450     0.000312324681    12.000000000000
         H            0.323423885383    -2.044206855450    -0.017268675319     1.007825032230
         H            2.637276885383     1.577752144550    -0.012258675319     1.007825032230
         H           -1.673612114617     1.759470144550     0.013108324681     1.007825032230
         H            2.756107885383    -2.122422855450    -0.432891675319     1.007825032230
         H            3.705719885383    -0.631018855450    -0.532137675319     1.007825032230
         H            3.252182885383    -1.287875855450     1.044430324681     1.007825032230
         H            0.553470885383     2.915357744550    -0.294102575319     1.007825032230
         H           -2.051975114617    -2.002850855450    -0.009563675319     1.007825032230

  Basis Set: AUG-CC-PVTZ
    Blend: AUG-CC-PVTZ
  Basis Set: (AUG-CC-PVTZ AUX)
    Blend: AUG-CC-PVTZ-JKFIT
	 Reference Energy          =    -382.5913332947875460 [Eh]
	 Singles Energy            =      -0.0000000000000000 [Eh]
	 Same-Spin Energy          =      -0.4084247171550370 [Eh]
	 Opposite-Spin Energy      =      -1.2871783710488467 [Eh]
	 Correlation Energy        =      -1.6956030882038837 [Eh]
	 Total Energy              =    -384.2869363829914278 [Eh]

	 ================> DF-SCS-MP2 Energies <==================
	-----------------------------------------------------------
	 SCS Same-Spin Scale       =       0.3333333333333333 [-]
	 SCS Opposite-Spin Scale   =       1.2000000000000000 [-]
	 SCS Same-Spin Energy      =      -0.1361415723850123 [Eh]
	 SCS Opposite-Spin Energy  =      -1.5446140452586159 [Eh]
	 SCS Correlation Energy    =      -1.6807556176436282 [Eh]
	 SCS Total Energy          =    -384.2720889124311725 [Eh]
	-----------------------------------------------------------

  Dipole Moment: [D]
     X:     3.6698      Y:    -0.5667      Z:    -0.1534     Total:     3.7164

*** Psi4 exiting successfully. Buy a developer a beer!
