                               Psi4 1.3.2 release

  ==> Input File <==

--------------------------------------------------------------------------
#psi4
#
memory 32 gb

molecule  {
0 1
  O       -3.2622350    -0.3059220     0.0067540
  C        1.5611120    -0.3149990    -0.0153800
  C        0.3099430    -0.9407630    -0.0100630
  C       -0.8692280    -0.1880260    -0.0014190
  C        1.5994260     1.0858870    -0.0069900
  C       -0.8168260     1.2117300     0.0064260
  C        0.4233030     1.8430470     0.0013400
  C        2.8326460    -1.1226230     0.0134670
  C       -2.1766910    -0.8792860    -0.0025100
  H        0.2498670    -2.0299540    -0.0200910
  H        2.5622783     1.5927944    -0.2150742
  H       -1.7471690     1.7737230     0.0102860
  H        2.6825510    -2.1081700    -0.4357140
  H        3.6321630    -0.6167660    -0.5349600
  H        3.1786260    -1.2736230     1.0416080
  H        0.4815460     2.9289630     0.0030700
  H       -2.1255320    -1.9885980    -0.0123860
units angstrom
no_reorient  #important for SAPT in psi4, default
symmetry c1  #important for SAPT in psi4, default
}

set PROPERTIES_ORIGIN ["COM"]
properties('MP2/aug-cc-pvtz', properties = ['dipole'])
--------------------------------------------------------------------------

    Molecular point group: c1
  Charge       = 0
  Multiplicity = 1
  Basis Set: AUG-CC-PVTZ
    Blend: AUG-CC-PVTZ
  Basis Set: (AUG-CC-PVTZ AUX)
    Blend: AUG-CC-PVTZ-JKFIT

    Orbital Energies [Eh]
    ---------------------

    Doubly Occupied:

       1A    -20.554405     2A    -11.336900     3A    -11.259632
       4A    -11.257090     5A    -11.255649     6A    -11.253100
       7A    -11.250738     8A    -11.249527     9A    -11.237931
      10A     -1.379039    11A     -1.173068    12A     -1.065810
      13A     -1.042913    14A     -0.948561    15A     -0.891200
      16A     -0.834724    17A     -0.772088    18A     -0.708086
      19A     -0.678265    20A     -0.649648    21A     -0.619345
      22A     -0.608499    23A     -0.590925    24A     -0.583228
      25A     -0.552296    26A     -0.544633    27A     -0.519533
      28A     -0.502968    29A     -0.488267    30A     -0.428681
      31A     -0.353449    32A     -0.339715

  @DF-RHF Final Energy:  -382.59495897369948

   => Energetics <=

    Nuclear Repulsion Energy =            396.1541682166438250
    One-Electron Energy =               -1303.6384309257161931
    Two-Electron Energy =                 524.8893037353728914
    Total Energy =                       -382.5949589736994767
  Basis Set: (AUG-CC-PVTZ AUX)
    Blend: AUG-CC-PVTZ-RI
    Molecular point group: c1

    Geometry (in Angstrom), charge = 0, multiplicity = 1:

       Center              X                  Y                   Z               Mass
    ------------   -----------------  -----------------  -----------------  -----------------
         O           -3.188679712094    -0.320176045793     0.008736858558    15.994914619570
         C            1.634667287906    -0.329253045793    -0.013397141442    12.000000000000
         C            0.383498287906    -0.955017045793    -0.008080141442    12.000000000000
         C           -0.795672712094    -0.202280045793     0.000563858558    12.000000000000
         C            1.672981287906     1.071632954207    -0.005007141442    12.000000000000
         C           -0.743270712094     1.197475954207     0.008408858558    12.000000000000
         C            0.496858287906     1.828792954207     0.003322858558    12.000000000000
         C            2.906201287906    -1.136877045793     0.015449858558    12.000000000000
         C           -2.103135712094    -0.893540045793    -0.000527141442    12.000000000000
         H            0.323422287906    -2.044208045793    -0.018108141442     1.007825032230
         H            2.635833587906     1.578540354207    -0.213091341442     1.007825032230
         H           -1.673613712094     1.759468954207     0.012268858558     1.007825032230
         H            2.756106287906    -2.122424045793    -0.433731141442     1.007825032230
         H            3.705718287906    -0.631020045793    -0.532977141442     1.007825032230
         H            3.252181287906    -1.287877045793     1.043590858558     1.007825032230
         H            0.555101287906     2.914708954207     0.005052858558     1.007825032230
         H           -2.051976712094    -2.002852045793    -0.010403141442     1.007825032230

  Basis Set: AUG-CC-PVTZ
    Blend: AUG-CC-PVTZ
  Basis Set: (AUG-CC-PVTZ AUX)
    Blend: AUG-CC-PVTZ-JKFIT
	 Reference Energy          =    -382.5949589736994767 [Eh]
	 Singles Energy            =      -0.0000000000000000 [Eh]
	 Same-Spin Energy          =      -0.4082949480033398 [Eh]
	 Opposite-Spin Energy      =      -1.2867553428106304 [Eh]
	 Correlation Energy        =      -1.6950502908139702 [Eh]
	 Total Energy              =    -384.2900092645134578 [Eh]

	 ================> DF-SCS-MP2 Energies <==================
	-----------------------------------------------------------
	 SCS Same-Spin Scale       =       0.3333333333333333 [-]
	 SCS Opposite-Spin Scale   =       1.2000000000000000 [-]
	 SCS Same-Spin Energy      =      -0.1360983160011132 [Eh]
	 SCS Opposite-Spin Energy  =      -1.5441064113727565 [Eh]
	 SCS Correlation Energy    =      -1.6802047273738698 [Eh]
	 SCS Total Energy          =    -384.2751637010733248 [Eh]
	-----------------------------------------------------------

  Dipole Moment: [D]
     X:     3.6486      Y:    -0.5091      Z:    -0.0933     Total:     3.6851

*** Psi4 exiting successfully. Buy a developer a beer!
