                               Psi4 1.3.2 release

  ==> Input File <==

--------------------------------------------------------------------------
#psi4
#
memory 32 gb

molecule  {
0 1
  O       -3.2622350    -0.3059220     0.0067540
  C        1.5611120    -0.3149990    -0.0153800
  C        0.3099430    -0.9407630    -0.0100630
  C       -0.8692280    -0.1880260    -0.0014190
  C        1.5994260     1.0858870    -0.0069900
  C       -0.8168260     1.2117300     0.0064260
  C        0.4233030     1.8430470     0.0013400
  C        2.8326460    -1.1226230     0.0134670
  C       -2.1766910    -0.8792860    -0.0025100
  H        0.2514827    -2.0320134     0.2798976
  H        2.5637200     1.5920050    -0.0150810
  H       -1.7471690     1.7737230     0.0102860
  H        2.6825510    -2.1081700    -0.4357140
  H        3.6321630    -0.6167660    -0.5349600
  H        3.1786260    -1.2736230     1.0416080
  H        0.4815460     2.9289630     0.0030700
  H       -2.1255320    -1.9885980    -0.0123860
units angstrom
no_reorient  #important for SAPT in psi4, default
symmetry c1  #important for SAPT in psi4, default
}

set PROPERTIES_ORIGIN ["COM"]
properties('MP2/aug-cc-pvtz', properties = ['dipole'])
--------------------------------------------------------------------------

    Molecular point group: c1
  Charge       = 0
  Multiplicity = 1
  Basis Set: AUG-CC-PVTZ
    Blend: AUG-CC-PVTZ
  Basis Set: (AUG-CC-PVTZ AUX)
    Blend: AUG-CC-PVTZ-JKFIT

    Orbital Energies [Eh]
    ---------------------

    Doubly Occupied:

       1A    -20.554238     2A    -11.336526     3A    -11.260720
       4A    -11.259425     5A    -11.254240     6A    -11.253355
       7A    -11.251036     8A    -11.249805     9A    -11.237743
      10A     -1.378851    11A     -1.173035    12A     -1.066064
      13A     -1.042293    14A     -0.948420    15A     -0.891587
      16A     -0.832633    17A     -0.772492    18A     -0.706666
      19A     -0.678147    20A     -0.648974    21A     -0.619251
      22A     -0.606919    23A     -0.590807    24A     -0.582563
      25A     -0.552792    26A     -0.543878    27A     -0.519591
      28A     -0.502660    29A     -0.487218    30A     -0.428501
      31A     -0.353182    32A     -0.339737

  @DF-RHF Final Energy:  -382.59153914379294

   => Energetics <=

    Nuclear Repulsion Energy =            396.0655747062285741
    One-Electron Energy =               -1303.4675290712582409
    Two-Electron Energy =                 524.8104152212367808
    Total Energy =                       -382.5915391437929429
  Basis Set: (AUG-CC-PVTZ AUX)
    Blend: AUG-CC-PVTZ-RI
    Molecular point group: c1

    Geometry (in Angstrom), charge = 0, multiplicity = 1:

       Center              X                  Y                   Z               Mass
    ------------   -----------------  -----------------  -----------------  -----------------
         O           -3.188705377495    -0.320152131488     0.004539752078    15.994914619570
         C            1.634641622505    -0.329229131488    -0.017594247922    12.000000000000
         C            0.383472622505    -0.954993131488    -0.012277247922    12.000000000000
         C           -0.795698377495    -0.202256131488    -0.003633247922    12.000000000000
         C            1.672955622505     1.071656868512    -0.009204247922    12.000000000000
         C           -0.743296377495     1.197499868512     0.004211752078    12.000000000000
         C            0.496832622505     1.828816868512    -0.000874247922    12.000000000000
         C            2.906175622505    -1.136853131488     0.011252752078    12.000000000000
         C           -2.103161377495    -0.893516131488    -0.004724247922    12.000000000000
         H            0.325012322505    -2.046243531488     0.277683352078     1.007825032230
         H            2.637249622505     1.577774868512    -0.017295247922     1.007825032230
         H           -1.673639377495     1.759492868512     0.008071752078     1.007825032230
         H            2.756080622505    -2.122400131488    -0.437928247922     1.007825032230
         H            3.705692622505    -0.630996131488    -0.537174247922     1.007825032230
         H            3.252155622505    -1.287853131488     1.039393752078     1.007825032230
         H            0.555075622505     2.914732868512     0.000855752078     1.007825032230
         H           -2.052002377495    -2.002828131488    -0.014600247922     1.007825032230

  Basis Set: AUG-CC-PVTZ
    Blend: AUG-CC-PVTZ
  Basis Set: (AUG-CC-PVTZ AUX)
    Blend: AUG-CC-PVTZ-JKFIT
	 Reference Energy          =    -382.5915391437929429 [Eh]
	 Singles Energy            =      -0.0000000000000000 [Eh]
	 Same-Spin Energy          =      -0.4084703855527976 [Eh]
	 Opposite-Spin Energy      =      -1.2871245218804725 [Eh]
	 Correlation Energy        =      -1.6955949074332701 [Eh]
	 Total Energy              =    -384.2871340512261895 [Eh]

	 ================> DF-SCS-MP2 Energies <==================
	-----------------------------------------------------------
	 SCS Same-Spin Scale       =       0.3333333333333333 [-]
	 SCS Opposite-Spin Scale   =       1.2000000000000000 [-]
	 SCS Same-Spin Energy      =      -0.1361567951842659 [Eh]
	 SCS Opposite-Spin Energy  =      -1.5445494262565671 [Eh]
	 SCS Correlation Energy    =      -1.6807062214408330 [Eh]
	 SCS Total Energy          =    -384.2722453652338004 [Eh]
	-----------------------------------------------------------

  Dipole Moment: [D]
     X:     3.6927      Y:    -0.4322      Z:     0.1968     Total:     3.7231

*** Psi4 exiting successfully. Buy a developer a beer!
