                               Psi4 1.3.2 release

  ==> Input File <==

--------------------------------------------------------------------------
#psi4
#
memory 32 gb

molecule  {
0 1
  O       -3.2622350    -0.3059220     0.0067540
  C        1.5611120    -0.3149990    -0.0153800
  C        0.3099430    -0.9407630    -0.0100630
  C       -0.8692280    -0.1880260    -0.0014190
  C        1.5994260     1.0858870    -0.0069900
  C       -0.8168260     1.2117300     0.0064260
  C        0.4233030     1.8430470     0.0013400
  C        2.8326460    -1.1226230     0.0134670
  C       -2.1766910    -0.8792860    -0.0025100
  H        0.2498670    -2.0299540    -0.0200910
  H        2.5637200     1.5920050    -0.0150810
  H       -1.7471690     1.7737230     0.0102860
  H        2.6825510    -2.1081700    -0.4357140
  H        3.6321630    -0.6167660    -0.5349600
  H        3.1786260    -1.2736230     1.0416080
  H        0.4810020     2.9291789    -0.0969283
  H       -2.1255320    -1.9885980    -0.0123860
units angstrom
no_reorient  #important for SAPT in psi4, default
symmetry c1  #important for SAPT in psi4, default
}

set PROPERTIES_ORIGIN ["COM"]
properties('MP2/aug-cc-pvtz', properties = ['dipole'])
--------------------------------------------------------------------------

    Molecular point group: c1
  Charge       = 0
  Multiplicity = 1
  Basis Set: AUG-CC-PVTZ
    Blend: AUG-CC-PVTZ
  Basis Set: (AUG-CC-PVTZ AUX)
    Blend: AUG-CC-PVTZ-JKFIT

    Orbital Energies [Eh]
    ---------------------

    Doubly Occupied:

       1A    -20.554163     2A    -11.336715     3A    -11.259262
       4A    -11.257002     5A    -11.254055     6A    -11.252782
       7A    -11.250733     8A    -11.249537     9A    -11.237876
      10A     -1.378828    11A     -1.172964    12A     -1.065834
      13A     -1.042879    14A     -0.948613    15A     -0.891889
      16A     -0.834266    17A     -0.772349    18A     -0.708992
      19A     -0.679020    20A     -0.649915    21A     -0.619192
      22A     -0.608520    23A     -0.590762    24A     -0.583579
      25A     -0.552969    26A     -0.544467    27A     -0.520113
      28A     -0.503000    29A     -0.488597    30A     -0.428459
      31A     -0.353521    32A     -0.339662

  @DF-RHF Final Energy:  -382.59704827702626

   => Energetics <=

    Nuclear Repulsion Energy =            396.2096337793707335
    One-Electron Energy =               -1303.7523280659670490
    Two-Electron Energy =                 524.9456460095700550
    Total Energy =                       -382.5970482770262606
  Basis Set: (AUG-CC-PVTZ AUX)
    Blend: AUG-CC-PVTZ-RI
    Molecular point group: c1

    Geometry (in Angstrom), charge = 0, multiplicity = 1:

       Center              X                  Y                   Z               Mass
    ------------   -----------------  -----------------  -----------------  -----------------
         O           -3.188687247853    -0.320171231536     0.007897449518    15.994914619570
         C            1.634659752147    -0.329248231536    -0.014236550482    12.000000000000
         C            0.383490752147    -0.955012231536    -0.008919550482    12.000000000000
         C           -0.795680247853    -0.202275231536    -0.000275550482    12.000000000000
         C            1.672973752147     1.071637768464    -0.005846550482    12.000000000000
         C           -0.743278247853     1.197480768464     0.007569449518    12.000000000000
         C            0.496850752147     1.828797768464     0.002483449518    12.000000000000
         C            2.906193752147    -1.136872231536     0.014610449518    12.000000000000
         C           -2.103143247853    -0.893535231536    -0.001366550482    12.000000000000
         H            0.323414752147    -2.044203231536    -0.018947550482     1.007825032230
         H            2.637267752147     1.577755768464    -0.013937550482     1.007825032230
         H           -1.673621247853     1.759473768464     0.011429449518     1.007825032230
         H            2.756098752147    -2.122419231536    -0.434570550482     1.007825032230
         H            3.705710752147    -0.631015231536    -0.533816550482     1.007825032230
         H            3.252173752147    -1.287872231536     1.042751449518     1.007825032230
         H            0.554549752147     2.914929668464    -0.095784850482     1.007825032230
         H           -2.051984247853    -2.002847231536    -0.011242550482     1.007825032230

  Basis Set: AUG-CC-PVTZ
    Blend: AUG-CC-PVTZ
  Basis Set: (AUG-CC-PVTZ AUX)
    Blend: AUG-CC-PVTZ-JKFIT
	 Reference Energy          =    -382.5970482770262606 [Eh]
	 Singles Energy            =      -0.0000000000000000 [Eh]
	 Same-Spin Energy          =      -0.4081624856777782 [Eh]
	 Opposite-Spin Energy      =      -1.2864738379863814 [Eh]
	 Correlation Energy        =      -1.6946363236641595 [Eh]
	 Total Energy              =    -384.2916846006904166 [Eh]

	 ================> DF-SCS-MP2 Energies <==================
	-----------------------------------------------------------
	 SCS Same-Spin Scale       =       0.3333333333333333 [-]
	 SCS Opposite-Spin Scale   =       1.2000000000000000 [-]
	 SCS Same-Spin Energy      =      -0.1360541618925927 [Eh]
	 SCS Opposite-Spin Energy  =      -1.5437686055836577 [Eh]
	 SCS Correlation Energy    =      -1.6798227674762505 [Eh]
	 SCS Total Energy          =    -384.2768710445025135 [Eh]
	-----------------------------------------------------------

  Dipole Moment: [D]
     X:     3.6815      Y:    -0.5015      Z:    -0.0376     Total:     3.7157

*** Psi4 exiting successfully. Buy a developer a beer!
