                               Psi4 1.3.2 release

  ==> Input File <==

--------------------------------------------------------------------------
#psi4
#
memory 32 gb

molecule  {
0 1
  O       -3.2622350    -0.3059220     0.0067540
  C        1.5611120    -0.3149990    -0.0153800
  C        0.3099430    -0.9407630    -0.0100630
  C       -0.8692280    -0.1880260    -0.0014190
  C        1.5994260     1.0858870    -0.0069900
  C       -0.8168260     1.2117300     0.0064260
  C        0.4233030     1.8430470     0.0013400
  C        2.8326460    -1.1226230     0.0134670
  C       -2.1766910    -0.8792860    -0.0025100
  H        0.2498670    -2.0299540    -0.0200910
  H        2.5637200     1.5920050    -0.0150810
  H       -1.7471690     1.7737230     0.0102860
  H        2.6825510    -2.1081700    -0.4357140
  H        3.6321630    -0.6167660    -0.5349600
  H        3.1786260    -1.2736230     1.0416080
  H        0.4815460     2.9289630     0.0030700
  H       -2.1263015    -1.9868430    -0.2123768
units angstrom
no_reorient  #important for SAPT in psi4, default
symmetry c1  #important for SAPT in psi4, default
}

set PROPERTIES_ORIGIN ["COM"]
properties('MP2/aug-cc-pvtz', properties = ['dipole'])
--------------------------------------------------------------------------

    Molecular point group: c1
  Charge       = 0
  Multiplicity = 1
  Basis Set: AUG-CC-PVTZ
    Blend: AUG-CC-PVTZ
  Basis Set: (AUG-CC-PVTZ AUX)
    Blend: AUG-CC-PVTZ-JKFIT

    Orbital Energies [Eh]
    ---------------------

    Doubly Occupied:

       1A    -20.555017     2A    -11.338608     3A    -11.259249
       4A    -11.256863     5A    -11.253993     6A    -11.253157
       7A    -11.250630     8A    -11.249381     9A    -11.237856
      10A     -1.379378    11A     -1.172990    12A     -1.065860
      13A     -1.042920    14A     -0.948618    15A     -0.890837
      16A     -0.834129    17A     -0.770714    18A     -0.708386
      19A     -0.678241    20A     -0.650249    21A     -0.618907
      22A     -0.608950    23A     -0.590720    24A     -0.583583
      25A     -0.553276    26A     -0.543963    27A     -0.520123
      28A     -0.502786    29A     -0.489440    30A     -0.427552
      31A     -0.353550    32A     -0.339721

  @DF-RHF Final Energy:  -382.59530032908111

   => Energetics <=

    Nuclear Repulsion Energy =            396.1568338620641043
    One-Electron Energy =               -1303.6449734594766596
    Two-Electron Energy =                 524.8928392683314996
    Total Energy =                       -382.5953003290810557
  Basis Set: (AUG-CC-PVTZ AUX)
    Blend: AUG-CC-PVTZ-RI
    Molecular point group: c1

    Geometry (in Angstrom), charge = 0, multiplicity = 1:

       Center              X                  Y                   Z               Mass
    ------------   -----------------  -----------------  -----------------  -----------------
         O           -3.188685354890    -0.320184151540     0.008736838411    15.994914619570
         C            1.634661645110    -0.329261151540    -0.013397161589    12.000000000000
         C            0.383492645110    -0.955025151540    -0.008080161589    12.000000000000
         C           -0.795678354890    -0.202288151540     0.000563838411    12.000000000000
         C            1.672975645110     1.071624848460    -0.005007161589    12.000000000000
         C           -0.743276354890     1.197467848460     0.008408838411    12.000000000000
         C            0.496852645110     1.828784848460     0.003322838411    12.000000000000
         C            2.906195645110    -1.136885151540     0.015449838411    12.000000000000
         C           -2.103141354890    -0.893548151540    -0.000527161589    12.000000000000
         H            0.323416645110    -2.044216151540    -0.018108161589     1.007825032230
         H            2.637269645110     1.577742848460    -0.013098161589     1.007825032230
         H           -1.673619354890     1.759460848460     0.012268838411     1.007825032230
         H            2.756100645110    -2.122432151540    -0.433731161589     1.007825032230
         H            3.705712645110    -0.631028151540    -0.532977161589     1.007825032230
         H            3.252175645110    -1.287885151540     1.043590838411     1.007825032230
         H            0.555095645110     2.914700848460     0.005052838411     1.007825032230
         H           -2.052751854890    -2.001105151540    -0.210393961589     1.007825032230

  Basis Set: AUG-CC-PVTZ
    Blend: AUG-CC-PVTZ
  Basis Set: (AUG-CC-PVTZ AUX)
    Blend: AUG-CC-PVTZ-JKFIT
	 Reference Energy          =    -382.5953003290811125 [Eh]
	 Singles Energy            =      -0.0000000000000000 [Eh]
	 Same-Spin Energy          =      -0.4082807341725540 [Eh]
	 Opposite-Spin Energy      =      -1.2866841646397515 [Eh]
	 Correlation Energy        =      -1.6949648988123056 [Eh]
	 Total Energy              =    -384.2902652278934283 [Eh]

	 ================> DF-SCS-MP2 Energies <==================
	-----------------------------------------------------------
	 SCS Same-Spin Scale       =       0.3333333333333333 [-]
	 SCS Opposite-Spin Scale   =       1.2000000000000000 [-]
	 SCS Same-Spin Energy      =      -0.1360935780575180 [Eh]
	 SCS Opposite-Spin Energy  =      -1.5440209975677017 [Eh]
	 SCS Correlation Energy    =      -1.6801145756252196 [Eh]
	 SCS Total Energy          =    -384.2754149047063379 [Eh]
	-----------------------------------------------------------

  Dipole Moment: [D]
     X:     3.6784      Y:    -0.4627      Z:    -0.0451     Total:     3.7076

*** Psi4 exiting successfully. Buy a developer a beer!
