                               Psi4 1.3.2 release

  ==> Input File <==

--------------------------------------------------------------------------
#psi4
#
memory 32 gb

molecule  {
0 1
  O       -3.2622350    -0.3059220     0.0067540
  C        1.5611120    -0.3149990    -0.0153800
  C        0.3099430    -0.9407630    -0.0100630
  C       -0.8692280    -0.1880260    -0.0014190
  C        1.5994260     1.0858870    -0.0069900
  C       -0.8168260     1.2117300     0.0064260
  C        0.4233030     1.8430470     0.0013400
  C        2.8349016    -1.1236791    -0.2365206
  C       -2.1766910    -0.8792860    -0.0025100
  H        0.2498670    -2.0299540    -0.0200910
  H        2.5637200     1.5920050    -0.0150810
  H       -1.7471690     1.7737230     0.0102860
  H        2.6825510    -2.1081700    -0.4357140
  H        3.6321630    -0.6167660    -0.5349600
  H        3.1786260    -1.2736230     1.0416080
  H        0.4815460     2.9289630     0.0030700
  H       -2.1255320    -1.9885980    -0.0123860
units angstrom
no_reorient  #important for SAPT in psi4, default
symmetry c1  #important for SAPT in psi4, default
}

set PROPERTIES_ORIGIN ["COM"]
properties('MP2/aug-cc-pvtz', properties = ['dipole'])
--------------------------------------------------------------------------

    Molecular point group: c1
  Charge       = 0
  Multiplicity = 1
  Basis Set: AUG-CC-PVTZ
    Blend: AUG-CC-PVTZ
  Basis Set: (AUG-CC-PVTZ AUX)
    Blend: AUG-CC-PVTZ-JKFIT

    Orbital Energies [Eh]
    ---------------------

    Doubly Occupied:

       1A    -20.554625     2A    -11.337082     3A    -11.265447
       4A    -11.257271     5A    -11.254019     6A    -11.253585
       7A    -11.250738     8A    -11.248927     9A    -11.248721
      10A     -1.379182    11A     -1.173413    12A     -1.066468
      13A     -1.043394    14A     -0.954017    15A     -0.892864
      16A     -0.836225    17A     -0.775029    18A     -0.710390
      19A     -0.684725    20A     -0.656483    21A     -0.632461
      22A     -0.610232    23A     -0.595626    24A     -0.587525
      25A     -0.556359    26A     -0.527443    27A     -0.521843
      28A     -0.506714    29A     -0.467740    30A     -0.428990
      31A     -0.354289    32A     -0.330792

  @DF-RHF Final Energy:  -382.54951798682987

   => Energetics <=

    Nuclear Repulsion Energy =            395.9530132458010598
    One-Electron Energy =               -1303.0798245469873109
    Two-Electron Energy =                 524.5772933143564387
    Total Energy =                       -382.5495179868298692
  Basis Set: (AUG-CC-PVTZ AUX)
    Blend: AUG-CC-PVTZ-RI
    Molecular point group: c1

    Geometry (in Angstrom), charge = 0, multiplicity = 1:

       Center              X                  Y                   Z               Mass
    ------------   -----------------  -----------------  -----------------  -----------------
         O           -3.188917266415    -0.320063859753     0.032044796005    15.994914619570
         C            1.634429733585    -0.329140859753     0.009910796005    12.000000000000
         C            0.383260733585    -0.954904859753     0.015227796005    12.000000000000
         C           -0.795910266415    -0.202167859753     0.023871796005    12.000000000000
         C            1.672743733585     1.071745140247     0.018300796005    12.000000000000
         C           -0.743508266415     1.197588140247     0.031716796005    12.000000000000
         C            0.496620733585     1.828905140247     0.026630796005    12.000000000000
         C            2.908219333585    -1.137820959753    -0.211229803995    12.000000000000
         C           -2.103373266415    -0.893427859753     0.022780796005    12.000000000000
         H            0.323184733585    -2.044095859753     0.005199796005     1.007825032230
         H            2.637037733585     1.577863140247     0.010209796005     1.007825032230
         H           -1.673851266415     1.759581140247     0.035576796005     1.007825032230
         H            2.755868733585    -2.122311859753    -0.410423203995     1.007825032230
         H            3.705480733585    -0.630907859753    -0.509669203995     1.007825032230
         H            3.251943733585    -1.287764859753     1.066898796005     1.007825032230
         H            0.554863733585     2.914821140247     0.028360796005     1.007825032230
         H           -2.052214266415    -2.002739859753     0.012904796005     1.007825032230

  Basis Set: AUG-CC-PVTZ
    Blend: AUG-CC-PVTZ
  Basis Set: (AUG-CC-PVTZ AUX)
    Blend: AUG-CC-PVTZ-JKFIT
	 Reference Energy          =    -382.5495179868298692 [Eh]
	 Singles Energy            =      -0.0000000000000000 [Eh]
	 Same-Spin Energy          =      -0.4088554569544167 [Eh]
	 Opposite-Spin Energy      =      -1.2887859722010646 [Eh]
	 Correlation Energy        =      -1.6976414291554813 [Eh]
	 Total Energy              =    -384.2471594159853225 [Eh]

	 ================> DF-SCS-MP2 Energies <==================
	-----------------------------------------------------------
	 SCS Same-Spin Scale       =       0.3333333333333333 [-]
	 SCS Opposite-Spin Scale   =       1.2000000000000000 [-]
	 SCS Same-Spin Energy      =      -0.1362851523181389 [Eh]
	 SCS Opposite-Spin Energy  =      -1.5465431666412774 [Eh]
	 SCS Correlation Energy    =      -1.6828283189594164 [Eh]
	 SCS Total Energy          =    -384.2323463057892923 [Eh]
	-----------------------------------------------------------

  Dipole Moment: [D]
     X:     3.7278      Y:    -0.5280      Z:    -0.1101     Total:     3.7666

*** Psi4 exiting successfully. Buy a developer a beer!
