                               Psi4 1.3.2 release

  ==> Input File <==

--------------------------------------------------------------------------
#psi4
#
memory 32 gb

molecule  {
0 1
  O       -3.2622350    -0.3059220     0.0067540
  C        1.5611120    -0.3149990    -0.0153800
  C        0.3099430    -0.9407630    -0.0100630
  C       -0.8692280    -0.1880260    -0.0014190
  C        1.5994260     1.0858870    -0.0069900
  C       -0.8168260     1.2117300     0.0064260
  C        0.4233030     1.8430470     0.0013400
  C        2.8326460    -1.1226230     0.0134670
  C       -2.1766910    -0.8792860    -0.0025100
  H        0.2498670    -2.0299540    -0.0200910
  H        2.5637200     1.5920050    -0.0150810
  H       -1.7469564     1.7735198     0.0602851
  H        2.6825510    -2.1081700    -0.4357140
  H        3.6321630    -0.6167660    -0.5349600
  H        3.1786260    -1.2736230     1.0416080
  H        0.4815460     2.9289630     0.0030700
  H       -2.1255320    -1.9885980    -0.0123860
units angstrom
no_reorient  #important for SAPT in psi4, default
symmetry c1  #important for SAPT in psi4, default
}

set PROPERTIES_ORIGIN ["COM"]
properties('MP2/aug-cc-pvtz', properties = ['dipole'])
--------------------------------------------------------------------------

    Molecular point group: c1
  Charge       = 0
  Multiplicity = 1
  Basis Set: AUG-CC-PVTZ
    Blend: AUG-CC-PVTZ
  Basis Set: (AUG-CC-PVTZ AUX)
    Blend: AUG-CC-PVTZ-JKFIT

    Orbital Energies [Eh]
    ---------------------

    Doubly Occupied:

       1A    -20.554124     2A    -11.336670     3A    -11.259239
       4A    -11.256903     5A    -11.253991     6A    -11.252739
       7A    -11.250545     8A    -11.249307     9A    -11.237858
      10A     -1.378785    11A     -1.172923    12A     -1.065783
      13A     -1.042972    14A     -0.948555    15A     -0.891836
      16A     -0.834613    17A     -0.772277    18A     -0.709023
      19A     -0.678975    20A     -0.650170    21A     -0.619179
      22A     -0.608988    23A     -0.590915    24A     -0.583236
      25A     -0.552947    26A     -0.544443    27A     -0.520100
      28A     -0.502791    29A     -0.489071    30A     -0.428423
      31A     -0.353574    32A     -0.339586

  @DF-RHF Final Energy:  -382.59753148133314

   => Energetics <=

    Nuclear Repulsion Energy =            396.2225745968995625
    One-Electron Energy =               -1303.7791294186981759
    Two-Electron Energy =                 524.9590233404654782
    Total Energy =                       -382.5975314813331352
  Basis Set: (AUG-CC-PVTZ AUX)
    Blend: AUG-CC-PVTZ-RI
    Molecular point group: c1

    Geometry (in Angstrom), charge = 0, multiplicity = 1:

       Center              X                  Y                   Z               Mass
    ------------   -----------------  -----------------  -----------------  -----------------
         O           -3.188693599146    -0.320167713394     0.006638293565    15.994914619570
         C            1.634653400854    -0.329244713394    -0.015495706435    12.000000000000
         C            0.383484400854    -0.955008713394    -0.010178706435    12.000000000000
         C           -0.795686599146    -0.202271713394    -0.001534706435    12.000000000000
         C            1.672967400854     1.071641286606    -0.007105706435    12.000000000000
         C           -0.743284599146     1.197484286606     0.006310293565    12.000000000000
         C            0.496844400854     1.828801286606     0.001224293565    12.000000000000
         C            2.906187400854    -1.136868713394     0.013351293565    12.000000000000
         C           -2.103149599146    -0.893531713394    -0.002625706435    12.000000000000
         H            0.323408400854    -2.044199713394    -0.020206706435     1.007825032230
         H            2.637261400854     1.577759286606    -0.015196706435     1.007825032230
         H           -1.673414999146     1.759274086606     0.060169393565     1.007825032230
         H            2.756092400854    -2.122415713394    -0.435829706435     1.007825032230
         H            3.705704400854    -0.631011713394    -0.535075706435     1.007825032230
         H            3.252167400854    -1.287868713394     1.041492293565     1.007825032230
         H            0.555087400854     2.914717286606     0.002954293565     1.007825032230
         H           -2.051990599146    -2.002843713394    -0.012501706435     1.007825032230

  Basis Set: AUG-CC-PVTZ
    Blend: AUG-CC-PVTZ
  Basis Set: (AUG-CC-PVTZ AUX)
    Blend: AUG-CC-PVTZ-JKFIT
	 Reference Energy          =    -382.5975314813331352 [Eh]
	 Singles Energy            =      -0.0000000000000000 [Eh]
	 Same-Spin Energy          =      -0.4081360458407663 [Eh]
	 Opposite-Spin Energy      =      -1.2864101214882973 [Eh]
	 Correlation Energy        =      -1.6945461673290636 [Eh]
	 Total Energy              =    -384.2920776486622003 [Eh]

	 ================> DF-SCS-MP2 Energies <==================
	-----------------------------------------------------------
	 SCS Same-Spin Scale       =       0.3333333333333333 [-]
	 SCS Opposite-Spin Scale   =       1.2000000000000000 [-]
	 SCS Same-Spin Energy      =      -0.1360453486135888 [Eh]
	 SCS Opposite-Spin Energy  =      -1.5436921457859567 [Eh]
	 SCS Correlation Energy    =      -1.6797374943995456 [Eh]
	 SCS Total Energy          =    -384.2772689757326816 [Eh]
	-----------------------------------------------------------

  Dipole Moment: [D]
     X:     3.6858      Y:    -0.4941      Z:     0.0528     Total:     3.7191

*** Psi4 exiting successfully. Buy a developer a beer!
