                               Psi4 1.3.2 release

  ==> Input File <==

--------------------------------------------------------------------------
#psi4
#
memory 32 gb

molecule  {
0 1
  O       -3.2622350    -0.3059220     0.0067540
  C        1.5611120    -0.3149990    -0.0153800
  C        0.3099430    -0.9407630    -0.0100630
  C       -0.8692280    -0.1880260    -0.0014190
  C        1.5994260     1.0858870    -0.0069900
  C       -0.8168260     1.2117300     0.0064260
  C        0.4233030     1.8430470     0.0013400
  C        2.8326460    -1.1226230     0.0134670
  C       -2.1766910    -0.8792860    -0.0025100
  H        0.2506748    -2.0309837     0.1299033
  H        2.5637200     1.5920050    -0.0150810
  H       -1.7471690     1.7737230     0.0102860
  H        2.6825510    -2.1081700    -0.4357140
  H        3.6321630    -0.6167660    -0.5349600
  H        3.1786260    -1.2736230     1.0416080
  H        0.4815460     2.9289630     0.0030700
  H       -2.1255320    -1.9885980    -0.0123860
units angstrom
no_reorient  #important for SAPT in psi4, default
symmetry c1  #important for SAPT in psi4, default
}

set PROPERTIES_ORIGIN ["COM"]
properties('MP2/aug-cc-pvtz', properties = ['dipole'])
--------------------------------------------------------------------------

    Molecular point group: c1
  Charge       = 0
  Multiplicity = 1
  Basis Set: AUG-CC-PVTZ
    Blend: AUG-CC-PVTZ
  Basis Set: (AUG-CC-PVTZ AUX)
    Blend: AUG-CC-PVTZ-JKFIT

    Orbital Energies [Eh]
    ---------------------

    Doubly Occupied:

       1A    -20.554146     2A    -11.336627     3A    -11.259454
       4A    -11.257647     5A    -11.254040     6A    -11.252874
       7A    -11.250606     8A    -11.249399     9A    -11.237796
      10A     -1.378798    11A     -1.172935    12A     -1.065851
      13A     -1.042777    14A     -0.948528    15A     -0.891763
      16A     -0.834083    17A     -0.772346    18A     -0.708430
      19A     -0.678784    20A     -0.649827    21A     -0.619189
      22A     -0.608430    23A     -0.590710    24A     -0.583503
      25A     -0.552941    26A     -0.544237    27A     -0.519947
      28A     -0.502706    29A     -0.488687    30A     -0.428435
      31A     -0.353456    32A     -0.339625

  @DF-RHF Final Energy:  -382.59628791219325

   => Energetics <=

    Nuclear Repulsion Energy =            396.1862284318549996
    One-Electron Energy =               -1303.7078792380873438
    Two-Electron Energy =                 524.9253628940391536
    Total Energy =                       -382.5962879121932474
  Basis Set: (AUG-CC-PVTZ AUX)
    Blend: AUG-CC-PVTZ-RI
    Molecular point group: c1

    Geometry (in Angstrom), charge = 0, multiplicity = 1:

       Center              X                  Y                   Z               Mass
    ------------   -----------------  -----------------  -----------------  -----------------
         O           -3.188698595564    -0.320160775324     0.005798882007    15.994914619570
         C            1.634648404436    -0.329237775324    -0.016335117993    12.000000000000
         C            0.383479404436    -0.955001775324    -0.011018117993    12.000000000000
         C           -0.795691595564    -0.202264775324    -0.002374117993    12.000000000000
         C            1.672962404436     1.071648224676    -0.007945117993    12.000000000000
         C           -0.743289595564     1.197491224676     0.005470882007    12.000000000000
         C            0.496839404436     1.828808224676     0.000384882007    12.000000000000
         C            2.906182404436    -1.136861775324     0.012511882007    12.000000000000
         C           -2.103154595564    -0.893524775324    -0.003465117993    12.000000000000
         H            0.324211204436    -2.045222475324     0.128948182007     1.007825032230
         H            2.637256404436     1.577766224676    -0.016036117993     1.007825032230
         H           -1.673632595564     1.759484224676     0.009330882007     1.007825032230
         H            2.756087404436    -2.122408775324    -0.436669117993     1.007825032230
         H            3.705699404436    -0.631004775324    -0.535915117993     1.007825032230
         H            3.252162404436    -1.287861775324     1.040652882007     1.007825032230
         H            0.555082404436     2.914724224676     0.002114882007     1.007825032230
         H           -2.051995595564    -2.002836775324    -0.013341117993     1.007825032230

  Basis Set: AUG-CC-PVTZ
    Blend: AUG-CC-PVTZ
  Basis Set: (AUG-CC-PVTZ AUX)
    Blend: AUG-CC-PVTZ-JKFIT
	 Reference Energy          =    -382.5962879121932474 [Eh]
	 Singles Energy            =      -0.0000000000000000 [Eh]
	 Same-Spin Energy          =      -0.4082109186220005 [Eh]
	 Opposite-Spin Energy      =      -1.2865626106905559 [Eh]
	 Correlation Energy        =      -1.6947735293125565 [Eh]
	 Total Energy              =    -384.2910614415058035 [Eh]

	 ================> DF-SCS-MP2 Energies <==================
	-----------------------------------------------------------
	 SCS Same-Spin Scale       =       0.3333333333333333 [-]
	 SCS Opposite-Spin Scale   =       1.2000000000000000 [-]
	 SCS Same-Spin Energy      =      -0.1360703062073335 [Eh]
	 SCS Opposite-Spin Energy  =      -1.5438751328286671 [Eh]
	 SCS Correlation Energy    =      -1.6799454390360005 [Eh]
	 SCS Total Energy          =    -384.2762333512292230 [Eh]
	-----------------------------------------------------------

  Dipole Moment: [D]
     X:     3.6872      Y:    -0.4797      Z:     0.1111     Total:     3.7200

*** Psi4 exiting successfully. Buy a developer a beer!
