                               Psi4 1.3.2 release

  ==> Input File <==

--------------------------------------------------------------------------
#psi4
#
memory 32 gb

molecule  {
0 1
  O       -3.2622350    -0.3059220     0.0067540
  C        1.5611120    -0.3149990    -0.0153800
  C        0.3099430    -0.9407630    -0.0100630
  C       -0.8692280    -0.1880260    -0.0014190
  C        1.5994260     1.0858870    -0.0069900
  C       -0.8168260     1.2117300     0.0064260
  C        0.4233030     1.8430470     0.0013400
  C        2.8326460    -1.1226230     0.0134670
  C       -2.1766910    -0.8792860    -0.0025100
  H        0.2498670    -2.0299540    -0.0200910
  H        2.5637200     1.5920050    -0.0150810
  H       -1.7471690     1.7737230     0.0102860
  H        2.6825510    -2.1081700    -0.4357140
  H        3.6321630    -0.6167660    -0.5349600
  H        3.1786260    -1.2736230     1.0416080
  H        0.4801860     2.9295027    -0.2469257
  H       -2.1255320    -1.9885980    -0.0123860
units angstrom
no_reorient  #important for SAPT in psi4, default
symmetry c1  #important for SAPT in psi4, default
}

set PROPERTIES_ORIGIN ["COM"]
properties('MP2/aug-cc-pvtz', properties = ['dipole'])
--------------------------------------------------------------------------

    Molecular point group: c1
  Charge       = 0
  Multiplicity = 1
  Basis Set: AUG-CC-PVTZ
    Blend: AUG-CC-PVTZ
  Basis Set: (AUG-CC-PVTZ AUX)
    Blend: AUG-CC-PVTZ-JKFIT

    Orbital Energies [Eh]
    ---------------------

    Doubly Occupied:

       1A    -20.554317     2A    -11.336890     3A    -11.259457
       4A    -11.257465     5A    -11.254491     6A    -11.253044
       7A    -11.252343     8A    -11.250411     9A    -11.238005
      10A     -1.378983    11A     -1.173167    12A     -1.066043
      13A     -1.042434    14A     -0.948800    15A     -0.892112
      16A     -0.832528    17A     -0.772529    18A     -0.708418
      19A     -0.679069    20A     -0.648711    21A     -0.619241
      22A     -0.606110    23A     -0.590775    24A     -0.583759
      25A     -0.553110    26A     -0.544656    27A     -0.520130
      28A     -0.503801    29A     -0.486193    30A     -0.428572
      31A     -0.353236    32A     -0.339834

  @DF-RHF Final Energy:  -382.59340468026693

   => Energetics <=

    Nuclear Repulsion Energy =            396.1207755925581182
    One-Electron Energy =               -1303.5710921180452715
    Two-Electron Energy =                 524.8569118452201110
    Total Energy =                       -382.5934046802669855
  Basis Set: (AUG-CC-PVTZ AUX)
    Blend: AUG-CC-PVTZ-RI
    Molecular point group: c1

    Geometry (in Angstrom), charge = 0, multiplicity = 1:

       Center              X                  Y                   Z               Mass
    ------------   -----------------  -----------------  -----------------  -----------------
         O           -3.188680397926    -0.320173949681     0.009156605470    15.994914619570
         C            1.634666602074    -0.329250949681    -0.012977394530    12.000000000000
         C            0.383497602074    -0.955014949681    -0.007660394530    12.000000000000
         C           -0.795673397926    -0.202277949681     0.000983605470    12.000000000000
         C            1.672980602074     1.071635050319    -0.004587394530    12.000000000000
         C           -0.743271397926     1.197478050319     0.008828605470    12.000000000000
         C            0.496857602074     1.828795050319     0.003742605470    12.000000000000
         C            2.906200602074    -1.136874949681     0.015869605470    12.000000000000
         C           -2.103136397926    -0.893537949681    -0.000107394530    12.000000000000
         H            0.323421602074    -2.044205949681    -0.017688394530     1.007825032230
         H            2.637274602074     1.577753050319    -0.012678394530     1.007825032230
         H           -1.673614397926     1.759471050319     0.012688605470     1.007825032230
         H            2.756105602074    -2.122421949681    -0.433311394530     1.007825032230
         H            3.705717602074    -0.631017949681    -0.532557394530     1.007825032230
         H            3.252180602074    -1.287874949681     1.044010605470     1.007825032230
         H            0.553740602074     2.915250750319    -0.244523094530     1.007825032230
         H           -2.051977397926    -2.002849949681    -0.009983394530     1.007825032230

  Basis Set: AUG-CC-PVTZ
    Blend: AUG-CC-PVTZ
  Basis Set: (AUG-CC-PVTZ AUX)
    Blend: AUG-CC-PVTZ-JKFIT
	 Reference Energy          =    -382.5934046802669286 [Eh]
	 Singles Energy            =      -0.0000000000000000 [Eh]
	 Same-Spin Energy          =      -0.4083366854117505 [Eh]
	 Opposite-Spin Energy      =      -1.2869293764154595 [Eh]
	 Correlation Energy        =      -1.6952660618272100 [Eh]
	 Total Energy              =    -384.2886707420941548 [Eh]

	 ================> DF-SCS-MP2 Energies <==================
	-----------------------------------------------------------
	 SCS Same-Spin Scale       =       0.3333333333333333 [-]
	 SCS Opposite-Spin Scale   =       1.2000000000000000 [-]
	 SCS Same-Spin Energy      =      -0.1361122284705835 [Eh]
	 SCS Opposite-Spin Energy  =      -1.5443152516985512 [Eh]
	 SCS Correlation Energy    =      -1.6804274801691348 [Eh]
	 SCS Total Energy          =    -384.2738321604360863 [Eh]
	-----------------------------------------------------------

  Dipole Moment: [D]
     X:     3.6734      Y:    -0.5446      Z:    -0.1252     Total:     3.7157

*** Psi4 exiting successfully. Buy a developer a beer!
