                               Psi4 1.3.2 release

  ==> Input File <==

--------------------------------------------------------------------------
#psi4
#
memory 32 gb

molecule  {
0 1
  O       -3.2622350    -0.3059220     0.0067540
  C        1.5611120    -0.3149990    -0.0153800
  C        0.3099430    -0.9407630    -0.0100630
  C       -0.8692280    -0.1880260    -0.0014190
  C        1.5994260     1.0858870    -0.0069900
  C       -0.8168260     1.2117300     0.0064260
  C        0.4233030     1.8430470     0.0013400
  C        2.8326460    -1.1226230     0.0134670
  C       -2.1766910    -0.8792860    -0.0025100
  H        0.2509441    -2.0313269     0.1799014
  H        2.5637200     1.5920050    -0.0150810
  H       -1.7471690     1.7737230     0.0102860
  H        2.6825510    -2.1081700    -0.4357140
  H        3.6321630    -0.6167660    -0.5349600
  H        3.1786260    -1.2736230     1.0416080
  H        0.4815460     2.9289630     0.0030700
  H       -2.1255320    -1.9885980    -0.0123860
units angstrom
no_reorient  #important for SAPT in psi4, default
symmetry c1  #important for SAPT in psi4, default
}

set PROPERTIES_ORIGIN ["COM"]
properties('MP2/aug-cc-pvtz', properties = ['dipole'])
--------------------------------------------------------------------------

    Molecular point group: c1
  Charge       = 0
  Multiplicity = 1
  Basis Set: AUG-CC-PVTZ
    Blend: AUG-CC-PVTZ
  Basis Set: (AUG-CC-PVTZ AUX)
    Blend: AUG-CC-PVTZ-JKFIT

    Orbital Energies [Eh]
    ---------------------

    Doubly Occupied:

       1A    -20.554168     2A    -11.336598     3A    -11.259680
       4A    -11.258213     5A    -11.254089     6A    -11.252998
       7A    -11.250710     8A    -11.249508     9A    -11.237777
      10A     -1.378810    11A     -1.172957    12A     -1.065904
      13A     -1.042641    14A     -0.948496    15A     -0.891711
      16A     -0.833683    17A     -0.772382    18A     -0.707932
      19A     -0.678612    20A     -0.649594    21A     -0.619202
      22A     -0.608026    23A     -0.590725    24A     -0.583300
      25A     -0.552910    26A     -0.544134    27A     -0.519848
      28A     -0.502698    29A     -0.488308    30A     -0.428450
      31A     -0.353379    32A     -0.339650

  @DF-RHF Final Energy:  -382.59512246463908

   => Energetics <=

    Nuclear Repulsion Energy =            396.1543875152377723
    One-Electron Energy =               -1303.6448324680231963
    Two-Electron Energy =                 524.8953224881463484
    Total Energy =                       -382.5951224646390756
  Basis Set: (AUG-CC-PVTZ AUX)
    Blend: AUG-CC-PVTZ-RI
    Molecular point group: c1

    Geometry (in Angstrom), charge = 0, multiplicity = 1:

       Center              X                  Y                   Z               Mass
    ------------   -----------------  -----------------  -----------------  -----------------
         O           -3.188700856207    -0.320157894325     0.005379172031    15.994914619570
         C            1.634646143793    -0.329234894325    -0.016754827969    12.000000000000
         C            0.383477143793    -0.954998894325    -0.011437827969    12.000000000000
         C           -0.795693856207    -0.202261894325    -0.002793827969    12.000000000000
         C            1.672960143793     1.071651105675    -0.008364827969    12.000000000000
         C           -0.743291856207     1.197494105675     0.005051172031    12.000000000000
         C            0.496837143793     1.828811105675    -0.000034827969    12.000000000000
         C            2.906180143793    -1.136858894325     0.012092172031    12.000000000000
         C           -2.103156856207    -0.893521894325    -0.003884827969    12.000000000000
         H            0.324478243793    -2.045562794325     0.178526572031     1.007825032230
         H            2.637254143793     1.577769105675    -0.016455827969     1.007825032230
         H           -1.673634856207     1.759487105675     0.008911172031     1.007825032230
         H            2.756085143793    -2.122405894325    -0.437088827969     1.007825032230
         H            3.705697143793    -0.631001894325    -0.536334827969     1.007825032230
         H            3.252160143793    -1.287858894325     1.040233172031     1.007825032230
         H            0.555080143793     2.914727105675     0.001695172031     1.007825032230
         H           -2.051997856207    -2.002833894325    -0.013760827969     1.007825032230

  Basis Set: AUG-CC-PVTZ
    Blend: AUG-CC-PVTZ
  Basis Set: (AUG-CC-PVTZ AUX)
    Blend: AUG-CC-PVTZ-JKFIT
	 Reference Energy          =    -382.5951224646390756 [Eh]
	 Singles Energy            =      -0.0000000000000000 [Eh]
	 Same-Spin Energy          =      -0.4082788962449300 [Eh]
	 Opposite-Spin Energy      =      -1.2867034217512217 [Eh]
	 Correlation Energy        =      -1.6949823179961516 [Eh]
	 Total Energy              =    -384.2901047826352396 [Eh]

	 ================> DF-SCS-MP2 Energies <==================
	-----------------------------------------------------------
	 SCS Same-Spin Scale       =       0.3333333333333333 [-]
	 SCS Opposite-Spin Scale   =       1.2000000000000000 [-]
	 SCS Same-Spin Energy      =      -0.1360929654149766 [Eh]
	 SCS Opposite-Spin Energy  =      -1.5440441061014660 [Eh]
	 SCS Correlation Energy    =      -1.6801370715164428 [Eh]
	 SCS Total Energy          =    -384.2752595361555450 [Eh]
	-----------------------------------------------------------

  Dipole Moment: [D]
     X:     3.6888      Y:    -0.4675      Z:     0.1402     Total:     3.7210

*** Psi4 exiting successfully. Buy a developer a beer!
