                               Psi4 1.3.2 release

  ==> Input File <==

--------------------------------------------------------------------------
#psi4
#
memory 32 gb

molecule  {
0 1
  O       -3.2622350    -0.3059220     0.0067540
  C        1.5611120    -0.3149990    -0.0153800
  C        0.3099430    -0.9407630    -0.0100630
  C       -0.8692280    -0.1880260    -0.0014190
  C        1.5994260     1.0858870    -0.0069900
  C       -0.8168260     1.2117300     0.0064260
  C        0.4233030     1.8430470     0.0013400
  C        2.8326460    -1.1226230     0.0134670
  C       -2.1766910    -0.8792860    -0.0025100
  H        0.2498670    -2.0299540    -0.0200910
  H        2.5637200     1.5920050    -0.0150810
  H       -1.7467439     1.7733166     0.1102843
  H        2.6825510    -2.1081700    -0.4357140
  H        3.6321630    -0.6167660    -0.5349600
  H        3.1786260    -1.2736230     1.0416080
  H        0.4815460     2.9289630     0.0030700
  H       -2.1255320    -1.9885980    -0.0123860
units angstrom
no_reorient  #important for SAPT in psi4, default
symmetry c1  #important for SAPT in psi4, default
}

set PROPERTIES_ORIGIN ["COM"]
properties('MP2/aug-cc-pvtz', properties = ['dipole'])
--------------------------------------------------------------------------

    Molecular point group: c1
  Charge       = 0
  Multiplicity = 1
  Basis Set: AUG-CC-PVTZ
    Blend: AUG-CC-PVTZ
  Basis Set: (AUG-CC-PVTZ AUX)
    Blend: AUG-CC-PVTZ-JKFIT

    Orbital Energies [Eh]
    ---------------------

    Doubly Occupied:

       1A    -20.554113     2A    -11.336654     3A    -11.259288
       4A    -11.256918     5A    -11.254000     6A    -11.252789
       7A    -11.250729     8A    -11.249424     9A    -11.237881
      10A     -1.378765    11A     -1.172933    12A     -1.065754
      13A     -1.042981    14A     -0.948482    15A     -0.891819
      16A     -0.834574    17A     -0.772173    18A     -0.708744
      19A     -0.678857    20A     -0.650152    21A     -0.619169
      22A     -0.609004    23A     -0.591100    24A     -0.582751
      25A     -0.552969    26A     -0.544426    27A     -0.520057
      28A     -0.502810    29A     -0.488808    30A     -0.428410
      31A     -0.353587    32A     -0.339525

  @DF-RHF Final Energy:  -382.59703999429269

   => Energetics <=

    Nuclear Repulsion Energy =            396.2086301038320926
    One-Electron Energy =               -1303.7520464833562528
    Two-Electron Energy =                 524.9463763852314742
    Total Energy =                       -382.5970399942926861
  Basis Set: (AUG-CC-PVTZ AUX)
    Blend: AUG-CC-PVTZ-RI
    Molecular point group: c1

    Geometry (in Angstrom), charge = 0, multiplicity = 1:

       Center              X                  Y                   Z               Mass
    ------------   -----------------  -----------------  -----------------  -----------------
         O           -3.188695382981    -0.320166007627     0.006218574355    15.994914619570
         C            1.634651617019    -0.329243007627    -0.015915425645    12.000000000000
         C            0.383482617019    -0.955007007627    -0.010598425645    12.000000000000
         C           -0.795688382981    -0.202270007627    -0.001954425645    12.000000000000
         C            1.672965617019     1.071642992373    -0.007525425645    12.000000000000
         C           -0.743286382981     1.197485992373     0.005890574355    12.000000000000
         C            0.496842617019     1.828802992373     0.000804574355    12.000000000000
         C            2.906185617019    -1.136867007627     0.012931574355    12.000000000000
         C           -2.103151382981    -0.893530007627    -0.003045425645    12.000000000000
         H            0.323406617019    -2.044198007627    -0.020626425645     1.007825032230
         H            2.637259617019     1.577760992373    -0.015616425645     1.007825032230
         H           -1.673204282981     1.759072592373     0.109748874355     1.007825032230
         H            2.756090617019    -2.122414007627    -0.436249425645     1.007825032230
         H            3.705702617019    -0.631010007627    -0.535495425645     1.007825032230
         H            3.252165617019    -1.287867007627     1.041072574355     1.007825032230
         H            0.555085617019     2.914718992373     0.002534574355     1.007825032230
         H           -2.051992382981    -2.002842007627    -0.012921425645     1.007825032230

  Basis Set: AUG-CC-PVTZ
    Blend: AUG-CC-PVTZ
  Basis Set: (AUG-CC-PVTZ AUX)
    Blend: AUG-CC-PVTZ-JKFIT
	 Reference Energy          =    -382.5970399942926861 [Eh]
	 Singles Energy            =      -0.0000000000000000 [Eh]
	 Same-Spin Energy          =      -0.4081662566050560 [Eh]
	 Opposite-Spin Energy      =      -1.2864621217810193 [Eh]
	 Correlation Energy        =      -1.6946283783860752 [Eh]
	 Total Energy              =    -384.2916683726787710 [Eh]

	 ================> DF-SCS-MP2 Energies <==================
	-----------------------------------------------------------
	 SCS Same-Spin Scale       =       0.3333333333333333 [-]
	 SCS Opposite-Spin Scale   =       1.2000000000000000 [-]
	 SCS Same-Spin Energy      =      -0.1360554188683520 [Eh]
	 SCS Opposite-Spin Energy  =      -1.5437545461372231 [Eh]
	 SCS Correlation Energy    =      -1.6798099650055751 [Eh]
	 SCS Total Energy          =    -384.2768499592982607 [Eh]
	-----------------------------------------------------------

  Dipole Moment: [D]
     X:     3.6903      Y:    -0.4968      Z:     0.0834     Total:     3.7245

*** Psi4 exiting successfully. Buy a developer a beer!
