                               Psi4 1.3.2 release

  ==> Input File <==

--------------------------------------------------------------------------
#psi4
#
memory 32 gb

molecule  {
0 1
  O       -3.2622350    -0.3059220     0.0067540
  C        1.5611120    -0.3149990    -0.0153800
  C        0.3099430    -0.9407630    -0.0100630
  C       -0.8692280    -0.1880260    -0.0014190
  C        1.5994260     1.0858870    -0.0069900
  C       -0.8168260     1.2117300     0.0064260
  C        0.4233030     1.8430470     0.0013400
  C        2.8326460    -1.1226230     0.0134670
  C       -2.1766910    -0.8792860    -0.0025100
  H        0.2498670    -2.0299540    -0.0200910
  H        2.5637200     1.5920050    -0.0150810
  H       -1.7471690     1.7737230     0.0102860
  H        2.6825510    -2.1081700    -0.4357140
  H        3.6321630    -0.6167660    -0.5349600
  H        3.1786260    -1.2736230     1.0416080
  H        0.4815460     2.9289630     0.0030700
  H       -2.1255320    -1.9885980    -0.0123860
units angstrom
no_reorient  #important for SAPT in psi4, default
symmetry c1  #important for SAPT in psi4, default
}

set PROPERTIES_ORIGIN ["COM"]
properties('MP2/aug-cc-pvtz', properties = ['dipole'])
--------------------------------------------------------------------------

    Molecular point group: c1
  Charge       = 0
  Multiplicity = 1
  Basis Set: AUG-CC-PVTZ
    Blend: AUG-CC-PVTZ
  Basis Set: (AUG-CC-PVTZ AUX)
    Blend: AUG-CC-PVTZ-JKFIT

    Orbital Energies [Eh]
    ---------------------

    Doubly Occupied:

       1A    -20.554129     2A    -11.336676     3A    -11.259227
       4A    -11.256901     5A    -11.253990     6A    -11.252728
       7A    -11.250493     8A    -11.249268     9A    -11.237856
      10A     -1.378793    11A     -1.172923    12A     -1.065794
      13A     -1.042970    14A     -0.948580    15A     -0.891844
      16A     -0.834627    17A     -0.772312    18A     -0.709114
      19A     -0.679013    20A     -0.650177    21A     -0.619184
      22A     -0.608984    23A     -0.590760    24A     -0.583494
      25A     -0.552940    26A     -0.544433    27A     -0.520113
      28A     -0.502767    29A     -0.489174    30A     -0.428429
      31A     -0.353571    32A     -0.339615

  @DF-RHF Final Energy:  -382.59768866477958

   => Energetics <=

    Nuclear Repulsion Energy =            396.2270603364127055
    One-Electron Energy =               -1303.7877401786490736
    Two-Electron Energy =                 524.9629911774568427
    Total Energy =                       -382.5976886647795254
  Basis Set: (AUG-CC-PVTZ AUX)
    Blend: AUG-CC-PVTZ-RI
    Molecular point group: c1

    Geometry (in Angstrom), charge = 0, multiplicity = 1:

       Center              X                  Y                   Z               Mass
    ------------   -----------------  -----------------  -----------------  -----------------
         O           -3.188691814472    -0.320169419160     0.007058011936    15.994914619570
         C            1.634655185528    -0.329246419160    -0.015075988064    12.000000000000
         C            0.383486185528    -0.955010419160    -0.009758988064    12.000000000000
         C           -0.795684814472    -0.202273419160    -0.001114988064    12.000000000000
         C            1.672969185528     1.071639580840    -0.006685988064    12.000000000000
         C           -0.743282814472     1.197482580840     0.006730011936    12.000000000000
         C            0.496846185528     1.828799580840     0.001644011936    12.000000000000
         C            2.906189185528    -1.136870419160     0.013771011936    12.000000000000
         C           -2.103147814472    -0.893533419160    -0.002205988064    12.000000000000
         H            0.323410185528    -2.044201419160    -0.019786988064     1.007825032230
         H            2.637263185528     1.577757580840    -0.014776988064     1.007825032230
         H           -1.673625814472     1.759475580840     0.010590011936     1.007825032230
         H            2.756094185528    -2.122417419160    -0.435409988064     1.007825032230
         H            3.705706185528    -0.631013419160    -0.534655988064     1.007825032230
         H            3.252169185528    -1.287870419160     1.041912011936     1.007825032230
         H            0.555089185528     2.914715580840     0.003374011936     1.007825032230
         H           -2.051988814472    -2.002845419160    -0.012081988064     1.007825032230

  Basis Set: AUG-CC-PVTZ
    Blend: AUG-CC-PVTZ
  Basis Set: (AUG-CC-PVTZ AUX)
    Blend: AUG-CC-PVTZ-JKFIT
	 Reference Energy          =    -382.5976886647795823 [Eh]
	 Singles Energy            =      -0.0000000000000000 [Eh]
	 Same-Spin Energy          =      -0.4081273300105205 [Eh]
	 Opposite-Spin Energy      =      -1.2863985103058231 [Eh]
	 Correlation Energy        =      -1.6945258403163437 [Eh]
	 Total Energy              =    -384.2922145050958989 [Eh]

	 ================> DF-SCS-MP2 Energies <==================
	-----------------------------------------------------------
	 SCS Same-Spin Scale       =       0.3333333333333333 [-]
	 SCS Opposite-Spin Scale   =       1.2000000000000000 [-]
	 SCS Same-Spin Energy      =      -0.1360424433368402 [Eh]
	 SCS Opposite-Spin Energy  =      -1.5436782123669877 [Eh]
	 SCS Correlation Energy    =      -1.6797206557038278 [Eh]
	 SCS Total Energy          =    -384.2774093204834003 [Eh]
	-----------------------------------------------------------

  Dipole Moment: [D]
     X:     3.6842      Y:    -0.4932      Z:     0.0221     Total:     3.7171

*** Psi4 exiting successfully. Buy a developer a beer!
