                               Psi4 1.3.2 release

  ==> Input File <==

--------------------------------------------------------------------------
#psi4
#
memory 32 gb

molecule  {
0 1
  O       -1.4315460    -0.9343010     0.0017330
  O        1.4315440    -0.9343040     0.0014650
  C        0.0000000     1.0463400     0.0064820
  C       -1.3306420     0.3245978    -0.0045521
  C        1.3046430     0.2786040    -0.0050280
  H       -0.0000810     1.7100180     0.8850940
  H        0.0000800     1.7395660    -0.8486310
  H       -2.1981250     0.9389830    -0.0199880
  H        2.1981330     0.9389860    -0.0193030
units angstrom
no_reorient  #important for SAPT in psi4, default
symmetry c1  #important for SAPT in psi4, default
}

set PROPERTIES_ORIGIN ["COM"]
properties('MP2/aug-cc-pvtz', properties = ['dipole'])
--------------------------------------------------------------------------

    Molecular point group: c1
  Charge       = 0
  Multiplicity = 1
  Basis Set: AUG-CC-PVTZ
    Blend: AUG-CC-PVTZ
  Basis Set: (AUG-CC-PVTZ AUX)
    Blend: AUG-CC-PVTZ-JKFIT

    Orbital Energies [Eh]
    ---------------------

    Doubly Occupied:

       1A    -20.570741     2A    -20.570207     3A    -11.354637
       4A    -11.353123     5A    -11.281627     6A     -1.396316
       7A     -1.366386     8A     -1.073927     9A     -0.887468
      10A     -0.783281    11A     -0.703925    12A     -0.648210
      13A     -0.644184    14A     -0.642388    15A     -0.596943
      16A     -0.518080    17A     -0.492201    18A     -0.463625
      19A     -0.420937

  @DF-RHF Final Energy:  -265.71381888394694

   => Energetics <=

    Nuclear Repulsion Energy =            157.9795955888090759
    One-Electron Energy =                -675.8504125928169515
    Two-Electron Energy =                 252.1569981200609618
    Total Energy =                       -265.7138188839469422
  Basis Set: (AUG-CC-PVTZ AUX)
    Blend: AUG-CC-PVTZ-RI
    Molecular point group: c1

    Geometry (in Angstrom), charge = 0, multiplicity = 1:

       Center              X                  Y                   Z               Mass
    ------------   -----------------  -----------------  -----------------  -----------------
         O           -1.427213758368    -0.868703103935     0.001578539665    15.994914619570
         O            1.435876241632    -0.868706103935     0.001310539665    15.994914619570
         C            0.004332241632     1.111937896065     0.006327539665    12.000000000000
         C           -1.326309758368     0.390195696065    -0.004706560335    12.000000000000
         C            1.308975241632     0.344201896065    -0.005182460335    12.000000000000
         H            0.004251241632     1.775615896065     0.884939539665     1.007825032230
         H            0.004412241632     1.805163896065    -0.848785460335     1.007825032230
         H           -2.193792758368     1.004580896065    -0.020142460335     1.007825032230
         H            2.202465241632     1.004583896065    -0.019457460335     1.007825032230

  Basis Set: AUG-CC-PVTZ
    Blend: AUG-CC-PVTZ
  Basis Set: (AUG-CC-PVTZ AUX)
    Blend: AUG-CC-PVTZ-JKFIT
	 Reference Energy          =    -265.7138188839469422 [Eh]
	 Singles Energy            =      -0.0000000000000000 [Eh]
	 Same-Spin Energy          =      -0.2521669294513474 [Eh]
	 Opposite-Spin Energy      =      -0.7975707847838100 [Eh]
	 Correlation Energy        =      -1.0497377142351576 [Eh]
	 Total Energy              =    -266.7635565981821060 [Eh]

	 ================> DF-SCS-MP2 Energies <==================
	-----------------------------------------------------------
	 SCS Same-Spin Scale       =       0.3333333333333333 [-]
	 SCS Opposite-Spin Scale   =       1.2000000000000000 [-]
	 SCS Same-Spin Energy      =      -0.0840556431504491 [Eh]
	 SCS Opposite-Spin Energy  =      -0.9570849417405720 [Eh]
	 SCS Correlation Energy    =      -1.0411405848910211 [Eh]
	 SCS Total Energy          =    -266.7549594688379671 [Eh]
	-----------------------------------------------------------

  Dipole Moment: [D]
     X:    -0.0686      Y:     5.0465      Z:    -0.0090     Total:     5.0470

*** Psi4 exiting successfully. Buy a developer a beer!
