                               Psi4 1.3.2 release

  ==> Input File <==

--------------------------------------------------------------------------
#psi4
#
memory 32 gb

molecule  {
0 1
  O       -1.4315460    -0.9343010     0.0017330
  O        1.4315440    -0.9343040     0.0014650
  C        0.0000000     1.0463400     0.0064820
  C       -1.3777527     0.4191662    -0.0031248
  C        1.3046430     0.2786040    -0.0050280
  H       -0.0000810     1.7100180     0.8850940
  H        0.0000800     1.7395660    -0.8486310
  H       -2.1981250     0.9389830    -0.0199880
  H        2.1981330     0.9389860    -0.0193030
units angstrom
no_reorient  #important for SAPT in psi4, default
symmetry c1  #important for SAPT in psi4, default
}

set PROPERTIES_ORIGIN ["COM"]
properties('MP2/aug-cc-pvtz', properties = ['dipole'])
--------------------------------------------------------------------------

    Molecular point group: c1
  Charge       = 0
  Multiplicity = 1
  Basis Set: AUG-CC-PVTZ
    Blend: AUG-CC-PVTZ
  Basis Set: (AUG-CC-PVTZ AUX)
    Blend: AUG-CC-PVTZ-JKFIT

    Orbital Energies [Eh]
    ---------------------

    Doubly Occupied:

       1A    -20.571470     2A    -20.569999     3A    -11.360395
       4A    -11.355638     5A    -11.286838     6A     -1.395681
       7A     -1.317581     8A     -1.076609     9A     -0.910092
      10A     -0.800980    11A     -0.698545    12A     -0.657627
      13A     -0.644662    14A     -0.635231    15A     -0.573847
      16A     -0.515382    17A     -0.462898    18A     -0.460780
      19A     -0.428659

  @DF-RHF Final Energy:  -265.67026879715689

   => Energetics <=

    Nuclear Repulsion Energy =            156.5802018434574165
    One-Electron Energy =                -673.0551134242634816
    Two-Electron Energy =                 250.8046427836491432
    Total Energy =                       -265.6702687971569503
  Basis Set: (AUG-CC-PVTZ AUX)
    Blend: AUG-CC-PVTZ-RI
    Molecular point group: c1

    Geometry (in Angstrom), charge = 0, multiplicity = 1:

       Center              X                  Y                   Z               Mass
    ------------   -----------------  -----------------  -----------------  -----------------
         O           -1.419364278570    -0.884459879897     0.001340726121    15.994914619570
         O            1.443725721430    -0.884462879897     0.001072726121    15.994914619570
         C            0.012181721430     1.096181120103     0.006089726121    12.000000000000
         C           -1.365570978570     0.469007320103    -0.003517073879    12.000000000000
         C            1.316824721430     0.328445120103    -0.005420273879    12.000000000000
         H            0.012100721430     1.759859120103     0.884701726121     1.007825032230
         H            0.012261721430     1.789407120103    -0.849023273879     1.007825032230
         H           -2.185943278570     0.988824120103    -0.020380273879     1.007825032230
         H            2.210314721430     0.988827120103    -0.019695273879     1.007825032230

  Basis Set: AUG-CC-PVTZ
    Blend: AUG-CC-PVTZ
  Basis Set: (AUG-CC-PVTZ AUX)
    Blend: AUG-CC-PVTZ-JKFIT
	 Reference Energy          =    -265.6702687971568935 [Eh]
	 Singles Energy            =      -0.0000000000000000 [Eh]
	 Same-Spin Energy          =      -0.2551482904662425 [Eh]
	 Opposite-Spin Energy      =      -0.8054678654539866 [Eh]
	 Correlation Energy        =      -1.0606161559202292 [Eh]
	 Total Energy              =    -266.7308849530771226 [Eh]

	 ================> DF-SCS-MP2 Energies <==================
	-----------------------------------------------------------
	 SCS Same-Spin Scale       =       0.3333333333333333 [-]
	 SCS Opposite-Spin Scale   =       1.2000000000000000 [-]
	 SCS Same-Spin Energy      =      -0.0850494301554142 [Eh]
	 SCS Opposite-Spin Energy  =      -0.9665614385447839 [Eh]
	 SCS Correlation Energy    =      -1.0516108687001982 [Eh]
	 SCS Total Energy          =    -266.7218796658571023 [Eh]
	-----------------------------------------------------------

  Dipole Moment: [D]
     X:    -0.1119      Y:     5.2443      Z:    -0.0110     Total:     5.2455

*** Psi4 exiting successfully. Buy a developer a beer!
