                               Psi4 1.3.2 release

  ==> Input File <==

--------------------------------------------------------------------------
#psi4
#
memory 32 gb

molecule  {
0 1
  O       -1.4315460    -0.9343010     0.0017330
  O        1.4315440    -0.9343040     0.0014650
  C        0.0000000     1.0463400     0.0064820
  C       -1.2479012     0.1894774    -0.0065901
  C        1.3046430     0.2786040    -0.0050280
  H       -0.0000810     1.7100180     0.8850940
  H        0.0000800     1.7395660    -0.8486310
  H       -2.1981250     0.9389830    -0.0199880
  H        2.1981330     0.9389860    -0.0193030
units angstrom
no_reorient  #important for SAPT in psi4, default
symmetry c1  #important for SAPT in psi4, default
}

set PROPERTIES_ORIGIN ["COM"]
properties('MP2/aug-cc-pvtz', properties = ['dipole'])
--------------------------------------------------------------------------

    Molecular point group: c1
  Charge       = 0
  Multiplicity = 1
  Basis Set: AUG-CC-PVTZ
    Blend: AUG-CC-PVTZ
  Basis Set: (AUG-CC-PVTZ AUX)
    Blend: AUG-CC-PVTZ-JKFIT

    Orbital Energies [Eh]
    ---------------------

    Doubly Occupied:

       1A    -20.574813     2A    -20.572380     3A    -11.351849
       4A    -11.349536     5A    -11.279581     6A     -1.456036
       7A     -1.397098     8A     -1.073852     9A     -0.865633
      10A     -0.764461    11A     -0.716356    12A     -0.666564
      13A     -0.650042    14A     -0.647139    15A     -0.612732
      16A     -0.555400    17A     -0.512685    18A     -0.462971
      19A     -0.400339

  @DF-RHF Final Energy:  -265.71533481597174

   => Energetics <=

    Nuclear Repulsion Energy =            160.3702094548972354
    One-Electron Energy =                -680.3521531391317012
    Two-Electron Energy =                 254.2666088682627219
    Total Energy =                       -265.7153348159717439
  Basis Set: (AUG-CC-PVTZ AUX)
    Blend: AUG-CC-PVTZ-RI
    Molecular point group: c1

    Geometry (in Angstrom), charge = 0, multiplicity = 1:

       Center              X                  Y                   Z               Mass
    ------------   -----------------  -----------------  -----------------  -----------------
         O           -1.440999845988    -0.846189644146     0.001918106681    15.994914619570
         O            1.422090154012    -0.846192644146     0.001650106681    15.994914619570
         C           -0.009453845988     1.134451355854     0.006667106681    12.000000000000
         C           -1.257355045988     0.277588755854    -0.006404993319    12.000000000000
         C            1.295189154012     0.366715355854    -0.004842893319    12.000000000000
         H           -0.009534845988     1.798129355854     0.885279106681     1.007825032230
         H           -0.009373845988     1.827677355854    -0.848445893319     1.007825032230
         H           -2.207578845988     1.027094355854    -0.019802893319     1.007825032230
         H            2.188679154012     1.027097355854    -0.019117893319     1.007825032230

  Basis Set: AUG-CC-PVTZ
    Blend: AUG-CC-PVTZ
  Basis Set: (AUG-CC-PVTZ AUX)
    Blend: AUG-CC-PVTZ-JKFIT
	 Reference Energy          =    -265.7153348159717439 [Eh]
	 Singles Energy            =      -0.0000000000000000 [Eh]
	 Same-Spin Energy          =      -0.2493505548515996 [Eh]
	 Opposite-Spin Energy      =      -0.7900266324075385 [Eh]
	 Correlation Energy        =      -1.0393771872591380 [Eh]
	 Total Energy              =    -266.7547120032309067 [Eh]

	 ================> DF-SCS-MP2 Energies <==================
	-----------------------------------------------------------
	 SCS Same-Spin Scale       =       0.3333333333333333 [-]
	 SCS Opposite-Spin Scale   =       1.2000000000000000 [-]
	 SCS Same-Spin Energy      =      -0.0831168516171999 [Eh]
	 SCS Opposite-Spin Energy  =      -0.9480319588890461 [Eh]
	 SCS Correlation Energy    =      -1.0311488105062461 [Eh]
	 SCS Total Energy          =    -266.7464836264779819 [Eh]
	-----------------------------------------------------------

  Dipole Moment: [D]
     X:     0.2679      Y:     4.4499      Z:    -0.0022     Total:     4.4580

*** Psi4 exiting successfully. Buy a developer a beer!
