                               Psi4 1.3.2 release

  ==> Input File <==

--------------------------------------------------------------------------
#psi4
#
memory 32 gb

molecule  {
0 1
  O       -1.4315460    -0.9343010     0.0017330
  O        1.4315440    -0.9343040     0.0014650
  C        0.0000000     1.0463400     0.0064820
  C       -1.2172334     0.1464532    -0.0072387
  C        1.3046430     0.2786040    -0.0050280
  H       -0.0000810     1.7100180     0.8850940
  H        0.0000800     1.7395660    -0.8486310
  H       -2.1981250     0.9389830    -0.0199880
  H        2.1981330     0.9389860    -0.0193030
units angstrom
no_reorient  #important for SAPT in psi4, default
symmetry c1  #important for SAPT in psi4, default
}

set PROPERTIES_ORIGIN ["COM"]
properties('MP2/aug-cc-pvtz', properties = ['dipole'])
--------------------------------------------------------------------------

    Molecular point group: c1
  Charge       = 0
  Multiplicity = 1
  Basis Set: AUG-CC-PVTZ
    Blend: AUG-CC-PVTZ
  Basis Set: (AUG-CC-PVTZ AUX)
    Blend: AUG-CC-PVTZ-JKFIT

    Orbital Energies [Eh]
    ---------------------

    Doubly Occupied:

       1A    -20.578772     2A    -20.573962     3A    -11.352429
       4A    -11.349630     5A    -11.281087     6A     -1.487333
       7A     -1.399258     8A     -1.075286     9A     -0.861483
      10A     -0.762537    11A     -0.722290    12A     -0.676077
      13A     -0.655432    14A     -0.651622    15A     -0.615450
      16A     -0.573504    17A     -0.515236    18A     -0.462184
      19A     -0.389527

  @DF-RHF Final Energy:  -265.69854813903561

   => Energetics <=

    Nuclear Repulsion Energy =            161.2200133360846337
    One-Electron Energy =                -681.8709268313143639
    Two-Electron Energy =                 254.9523653561940932
    Total Energy =                       -265.6985481390356085
  Basis Set: (AUG-CC-PVTZ AUX)
    Blend: AUG-CC-PVTZ-RI
    Molecular point group: c1

    Geometry (in Angstrom), charge = 0, multiplicity = 1:

       Center              X                  Y                   Z               Mass
    ------------   -----------------  -----------------  -----------------  -----------------
         O           -1.446109646449    -0.839021047867     0.002026174967    15.994914619570
         O            1.416980353551    -0.839024047867     0.001758174967    15.994914619570
         C           -0.014563646449     1.141619952133     0.006775174967    12.000000000000
         C           -1.231797046449     0.241733152133    -0.006945525033    12.000000000000
         C            1.290079353551     0.373883952133    -0.004734825033    12.000000000000
         H           -0.014644646449     1.805297952133     0.885387174967     1.007825032230
         H           -0.014483646449     1.834845952133    -0.848337825033     1.007825032230
         H           -2.212688646449     1.034262952133    -0.019694825033     1.007825032230
         H            2.183569353551     1.034265952133    -0.019009825033     1.007825032230

  Basis Set: AUG-CC-PVTZ
    Blend: AUG-CC-PVTZ
  Basis Set: (AUG-CC-PVTZ AUX)
    Blend: AUG-CC-PVTZ-JKFIT
	 Reference Energy          =    -265.6985481390356085 [Eh]
	 Singles Energy            =      -0.0000000000000000 [Eh]
	 Same-Spin Energy          =      -0.2487282102501449 [Eh]
	 Opposite-Spin Energy      =      -0.7884704841272634 [Eh]
	 Correlation Energy        =      -1.0371986943774083 [Eh]
	 Total Energy              =    -266.7357468334130317 [Eh]

	 ================> DF-SCS-MP2 Energies <==================
	-----------------------------------------------------------
	 SCS Same-Spin Scale       =       0.3333333333333333 [-]
	 SCS Opposite-Spin Scale   =       1.2000000000000000 [-]
	 SCS Same-Spin Energy      =      -0.0829094034167150 [Eh]
	 SCS Opposite-Spin Energy  =      -0.9461645809527160 [Eh]
	 SCS Correlation Energy    =      -1.0290739843694310 [Eh]
	 SCS Total Energy          =    -266.7276221234050126 [Eh]
	-----------------------------------------------------------

  Dipole Moment: [D]
     X:     0.4807      Y:     4.1755      Z:     0.0015     Total:     4.2031

*** Psi4 exiting successfully. Buy a developer a beer!
