                               Psi4 1.3.2 release

  ==> Input File <==

--------------------------------------------------------------------------
#psi4
#
memory 32 gb

molecule  {
0 1
  O       -1.4315460    -0.9343010     0.0017330
  O        1.4315440    -0.9343040     0.0014650
  C        0.0000000     1.0463400     0.0064820
  C       -1.2770485     0.2335456    -0.0059256
  C        1.3046430     0.2786040    -0.0050280
  H       -0.0000810     1.7100180     0.8850940
  H        0.0000800     1.7395660    -0.8486310
  H       -2.1981250     0.9389830    -0.0199880
  H        2.1981330     0.9389860    -0.0193030
units angstrom
no_reorient  #important for SAPT in psi4, default
symmetry c1  #important for SAPT in psi4, default
}

set PROPERTIES_ORIGIN ["COM"]
properties('MP2/aug-cc-pvtz', properties = ['dipole'])
--------------------------------------------------------------------------

    Molecular point group: c1
  Charge       = 0
  Multiplicity = 1
  Basis Set: AUG-CC-PVTZ
    Blend: AUG-CC-PVTZ
  Basis Set: (AUG-CC-PVTZ AUX)
    Blend: AUG-CC-PVTZ-JKFIT

    Orbital Energies [Eh]
    ---------------------

    Doubly Occupied:

       1A    -20.572280     2A    -20.571374     3A    -11.351835
       4A    -11.350511     5A    -11.279293     6A     -1.425955
       7A     -1.395152     8A     -1.073225     9A     -0.871312
      10A     -0.768966    11A     -0.711468    12A     -0.657765
      13A     -0.646773    14A     -0.644227    15A     -0.609725
      16A     -0.538075    17A     -0.509700    18A     -0.463711
      19A     -0.408926

  @DF-RHF Final Energy:  -265.72352267788079

   => Energetics <=

    Nuclear Repulsion Energy =            159.5412667684614405
    One-Electron Energy =                -678.8290344409464296
    Two-Electron Energy =                 253.5642449946041665
    Total Energy =                       -265.7235226778807942
  Basis Set: (AUG-CC-PVTZ AUX)
    Blend: AUG-CC-PVTZ-RI
    Molecular point group: c1

    Geometry (in Angstrom), charge = 0, multiplicity = 1:

       Center              X                  Y                   Z               Mass
    ------------   -----------------  -----------------  -----------------  -----------------
         O           -1.436143387848    -0.853532189377     0.001807389173    15.994914619570
         O            1.426946612152    -0.853535189377     0.001539389173    15.994914619570
         C           -0.004597387848     1.127108810623     0.006556389173    12.000000000000
         C           -1.281645887848     0.314314410623    -0.005851210827    12.000000000000
         C            1.300045612152     0.359372810623    -0.004953610827    12.000000000000
         H           -0.004678387848     1.790786810623     0.885168389173     1.007825032230
         H           -0.004517387848     1.820334810623    -0.848556610827     1.007825032230
         H           -2.202722387848     1.019751810623    -0.019913610827     1.007825032230
         H            2.193535612152     1.019754810623    -0.019228610827     1.007825032230

  Basis Set: AUG-CC-PVTZ
    Blend: AUG-CC-PVTZ
  Basis Set: (AUG-CC-PVTZ AUX)
    Blend: AUG-CC-PVTZ-JKFIT
	 Reference Energy          =    -265.7235226778807942 [Eh]
	 Singles Energy            =      -0.0000000000000000 [Eh]
	 Same-Spin Energy          =      -0.2501038978454133 [Eh]
	 Opposite-Spin Energy      =      -0.7920108289560395 [Eh]
	 Correlation Energy        =      -1.0421147268014528 [Eh]
	 Total Energy              =    -266.7656374046822521 [Eh]

	 ================> DF-SCS-MP2 Energies <==================
	-----------------------------------------------------------
	 SCS Same-Spin Scale       =       0.3333333333333333 [-]
	 SCS Opposite-Spin Scale   =       1.2000000000000000 [-]
	 SCS Same-Spin Energy      =      -0.0833679659484711 [Eh]
	 SCS Opposite-Spin Energy  =      -0.9504129947472473 [Eh]
	 SCS Correlation Energy    =      -1.0337809606957185 [Eh]
	 SCS Total Energy          =    -266.7573036385765022 [Eh]
	-----------------------------------------------------------

  Dipole Moment: [D]
     X:     0.1098      Y:     4.6877      Z:    -0.0051     Total:     4.6890

*** Psi4 exiting successfully. Buy a developer a beer!
