                               Psi4 1.3.2 release

  ==> Input File <==

--------------------------------------------------------------------------
#psi4
#
memory 32 gb

molecule  {
0 1
  O       -1.4315460    -0.9343010     0.0017330
  O        1.4315440    -0.9343040     0.0014650
  C        0.0000000     1.0463400     0.0064820
  C       -1.2910409     0.2559544    -0.0055876
  C        1.3046430     0.2786040    -0.0050280
  H       -0.0000810     1.7100180     0.8850940
  H        0.0000800     1.7395660    -0.8486310
  H       -2.1981250     0.9389830    -0.0199880
  H        2.1981330     0.9389860    -0.0193030
units angstrom
no_reorient  #important for SAPT in psi4, default
symmetry c1  #important for SAPT in psi4, default
}

set PROPERTIES_ORIGIN ["COM"]
properties('MP2/aug-cc-pvtz', properties = ['dipole'])
--------------------------------------------------------------------------

    Molecular point group: c1
  Charge       = 0
  Multiplicity = 1
  Basis Set: AUG-CC-PVTZ
    Blend: AUG-CC-PVTZ
  Basis Set: (AUG-CC-PVTZ AUX)
    Blend: AUG-CC-PVTZ-JKFIT

    Orbital Energies [Eh]
    ---------------------

    Doubly Occupied:

       1A    -20.571449     2A    -20.571058     3A    -11.352010
       4A    -11.351316     5A    -11.279546     6A     -1.412067
       7A     -1.393678     8A     -1.073176     9A     -0.874742
      10A     -0.771996    11A     -0.709334    12A     -0.653918
      13A     -0.645716    14A     -0.643580    15A     -0.607598
      16A     -0.530527    17A     -0.507420    18A     -0.463932
      19A     -0.412492

  @DF-RHF Final Energy:  -265.72434498618088

   => Energetics <=

    Nuclear Repulsion Energy =            159.1375247622190727
    One-Electron Energy =                -678.0726284894985838
    Two-Electron Energy =                 253.2107587410986298
    Total Energy =                       -265.7243449861808813
  Basis Set: (AUG-CC-PVTZ AUX)
    Blend: AUG-CC-PVTZ-RI
    Molecular point group: c1

    Geometry (in Angstrom), charge = 0, multiplicity = 1:

       Center              X                  Y                   Z               Mass
    ------------   -----------------  -----------------  -----------------  -----------------
         O           -1.433812005357    -0.857265893671     0.001751072366    15.994914619570
         O            1.429277994643    -0.857268893671     0.001483072366    15.994914619570
         C           -0.002266005357     1.123375106329     0.006500072366    12.000000000000
         C           -1.293306905357     0.332989506329    -0.005569527634    12.000000000000
         C            1.302376994643     0.355639106329    -0.005009927634    12.000000000000
         H           -0.002347005357     1.787053106329     0.885112072366     1.007825032230
         H           -0.002186005357     1.816601106329    -0.848612927634     1.007825032230
         H           -2.200391005357     1.016018106329    -0.019969927634     1.007825032230
         H            2.195866994643     1.016021106329    -0.019284927634     1.007825032230

  Basis Set: AUG-CC-PVTZ
    Blend: AUG-CC-PVTZ
  Basis Set: (AUG-CC-PVTZ AUX)
    Blend: AUG-CC-PVTZ-JKFIT
	 Reference Energy          =    -265.7243449861808813 [Eh]
	 Singles Energy            =      -0.0000000000000000 [Eh]
	 Same-Spin Energy          =      -0.2505434956463957 [Eh]
	 Opposite-Spin Energy      =      -0.7931910808208253 [Eh]
	 Correlation Energy        =      -1.0437345764672210 [Eh]
	 Total Energy              =    -266.7680795626480972 [Eh]

	 ================> DF-SCS-MP2 Energies <==================
	-----------------------------------------------------------
	 SCS Same-Spin Scale       =       0.3333333333333333 [-]
	 SCS Opposite-Spin Scale   =       1.2000000000000000 [-]
	 SCS Same-Spin Energy      =      -0.0835144985487986 [Eh]
	 SCS Opposite-Spin Energy  =      -0.9518292969849904 [Eh]
	 SCS Correlation Energy    =      -1.0353437955337890 [Eh]
	 SCS Total Energy          =    -266.7596887817146580 [Eh]
	-----------------------------------------------------------

  Dipole Moment: [D]
     X:     0.0493      Y:     4.7922      Z:    -0.0063     Total:     4.7925

*** Psi4 exiting successfully. Buy a developer a beer!
