                               Psi4 1.3.2 release

  ==> Input File <==

--------------------------------------------------------------------------
#psi4
#
memory 32 gb

molecule  {
0 1
  O       -1.4315460    -0.9343010     0.0017330
  O        1.4315440    -0.9343040     0.0014650
  C        0.0000000     1.0463400     0.0064820
  C       -1.3046400     0.2786040    -0.0052460
  C        1.3046430     0.2786040    -0.0050280
  H       -0.0000810     1.7100180     0.8850940
  H        0.0000800     1.7395660    -0.8486310
  H       -2.1981250     0.9389830    -0.0199880
  H        2.1981330     0.9389860    -0.0193030
units angstrom
no_reorient  #important for SAPT in psi4, default
symmetry c1  #important for SAPT in psi4, default
}

set PROPERTIES_ORIGIN ["COM"]
properties('MP2/aug-cc-pvtz', properties = ['dipole'])
--------------------------------------------------------------------------

    Molecular point group: c1
  Charge       = 0
  Multiplicity = 1
  Basis Set: AUG-CC-PVTZ
    Blend: AUG-CC-PVTZ
  Basis Set: (AUG-CC-PVTZ AUX)
    Blend: AUG-CC-PVTZ-JKFIT

    Orbital Energies [Eh]
    ---------------------

    Doubly Occupied:

       1A    -20.570856     2A    -20.570853     3A    -11.352294
       4A    -11.352285     5A    -11.280033     6A     -1.401392
       7A     -1.389477     8A     -1.073286     9A     -0.878575
      10A     -0.775441    11A     -0.707376    12A     -0.650649
      13A     -0.644961    14A     -0.643457    15A     -0.604803
      16A     -0.524500    17A     -0.503903    18A     -0.464003
      19A     -0.415646

  @DF-RHF Final Energy:  -265.72299086714673

   => Energetics <=

    Nuclear Repulsion Energy =            158.7421818878341071
    One-Electron Energy =                -677.3227651654057127
    Two-Electron Energy =                 252.8575924104248429
    Total Energy =                       -265.7229908671467342
  Basis Set: (AUG-CC-PVTZ AUX)
    Blend: AUG-CC-PVTZ-RI
    Molecular point group: c1

    Geometry (in Angstrom), charge = 0, multiplicity = 1:

       Center              X                  Y                   Z               Mass
    ------------   -----------------  -----------------  -----------------  -----------------
         O           -1.431546153635    -0.861039719525     0.001694155736    15.994914619570
         O            1.431543846365    -0.861042719525     0.001426155736    15.994914619570
         C           -0.000000153635     1.119601280475     0.006443155736    12.000000000000
         C           -1.304640153635     0.351865280475    -0.005284844264    12.000000000000
         C            1.304642846365     0.351865280475    -0.005066844264    12.000000000000
         H           -0.000081153635     1.783279280475     0.885055155736     1.007825032230
         H            0.000079846365     1.812827280475    -0.848669844264     1.007825032230
         H           -2.198125153635     1.012244280475    -0.020026844264     1.007825032230
         H            2.198132846365     1.012247280475    -0.019341844264     1.007825032230

  Basis Set: AUG-CC-PVTZ
    Blend: AUG-CC-PVTZ
  Basis Set: (AUG-CC-PVTZ AUX)
    Blend: AUG-CC-PVTZ-JKFIT
	 Reference Energy          =    -265.7229908671467342 [Eh]
	 Singles Energy            =      -0.0000000000000000 [Eh]
	 Same-Spin Energy          =      -0.2510313314322998 [Eh]
	 Opposite-Spin Energy      =      -0.7945076301810436 [Eh]
	 Correlation Energy        =      -1.0455389616133435 [Eh]
	 Total Energy              =    -266.7685298287600517 [Eh]

	 ================> DF-SCS-MP2 Energies <==================
	-----------------------------------------------------------
	 SCS Same-Spin Scale       =       0.3333333333333333 [-]
	 SCS Opposite-Spin Scale   =       1.2000000000000000 [-]
	 SCS Same-Spin Energy      =      -0.0836771104774333 [Eh]
	 SCS Opposite-Spin Energy  =      -0.9534091562172523 [Eh]
	 SCS Correlation Energy    =      -1.0370862666946856 [Eh]
	 SCS Total Energy          =    -266.7600771338414347 [Eh]
	-----------------------------------------------------------

  Dipole Moment: [D]
     X:     0.0000      Y:     4.8869      Z:    -0.0073     Total:     4.8869

*** Psi4 exiting successfully. Buy a developer a beer!
