                               Psi4 1.3.2 release

  ==> Input File <==

--------------------------------------------------------------------------
#psi4
#
memory 32 gb

molecule  {
0 1
  O       -1.4315460    -0.9343010     0.0017330
  O        1.4315440    -0.9343040     0.0014650
  C        0.0000000     1.0463400     0.0064820
  C       -1.3550228     0.3714709    -0.0038448
  C        1.3046430     0.2786040    -0.0050280
  H       -0.0000810     1.7100180     0.8850940
  H        0.0000800     1.7395660    -0.8486310
  H       -2.1981250     0.9389830    -0.0199880
  H        2.1981330     0.9389860    -0.0193030
units angstrom
no_reorient  #important for SAPT in psi4, default
symmetry c1  #important for SAPT in psi4, default
}

set PROPERTIES_ORIGIN ["COM"]
properties('MP2/aug-cc-pvtz', properties = ['dipole'])
--------------------------------------------------------------------------

    Molecular point group: c1
  Charge       = 0
  Multiplicity = 1
  Basis Set: AUG-CC-PVTZ
    Blend: AUG-CC-PVTZ
  Basis Set: (AUG-CC-PVTZ AUX)
    Blend: AUG-CC-PVTZ-JKFIT

    Orbital Energies [Eh]
    ---------------------

    Doubly Occupied:

       1A    -20.570965     2A    -20.570019     3A    -11.357376
       4A    -11.354260     5A    -11.283931     6A     -1.395665
       7A     -1.341132     8A     -1.075060     9A     -0.898000
      10A     -0.791947    11A     -0.701007    12A     -0.651979
      13A     -0.644137    14A     -0.638650    15A     -0.586383
      16A     -0.515989    17A     -0.477554    18A     -0.462542
      19A     -0.425184

  @DF-RHF Final Energy:  -265.69617799624308

   => Energetics <=

    Nuclear Repulsion Energy =            157.2580450198441895
    One-Electron Energy =                -674.4248844418028739
    Two-Electron Energy =                 251.4706614257156048
    Total Energy =                       -265.6961779962430796
  Basis Set: (AUG-CC-PVTZ AUX)
    Blend: AUG-CC-PVTZ-RI
    Molecular point group: c1

    Geometry (in Angstrom), charge = 0, multiplicity = 1:

       Center              X                  Y                   Z               Mass
    ------------   -----------------  -----------------  -----------------  -----------------
         O           -1.423151483830    -0.876512995351     0.001460690916    15.994914619570
         O            1.439938516170    -0.876515995351     0.001192690916    15.994914619570
         C            0.008394516170     1.104128004649     0.006209690916    12.000000000000
         C           -1.346628283830     0.429258904649    -0.004117109084    12.000000000000
         C            1.313037516170     0.336392004649    -0.005300309084    12.000000000000
         H            0.008313516170     1.767806004649     0.884821690916     1.007825032230
         H            0.008474516170     1.797354004649    -0.848903309084     1.007825032230
         H           -2.189730483830     0.996771004649    -0.020260309084     1.007825032230
         H            2.206527516170     0.996774004649    -0.019575309084     1.007825032230

  Basis Set: AUG-CC-PVTZ
    Blend: AUG-CC-PVTZ
  Basis Set: (AUG-CC-PVTZ AUX)
    Blend: AUG-CC-PVTZ-JKFIT
	 Reference Energy          =    -265.6961779962430796 [Eh]
	 Singles Energy            =      -0.0000000000000000 [Eh]
	 Same-Spin Energy          =      -0.2535347106943013 [Eh]
	 Opposite-Spin Energy      =      -0.8012249352475016 [Eh]
	 Correlation Energy        =      -1.0547596459418029 [Eh]
	 Total Energy              =    -266.7509376421849083 [Eh]

	 ================> DF-SCS-MP2 Energies <==================
	-----------------------------------------------------------
	 SCS Same-Spin Scale       =       0.3333333333333333 [-]
	 SCS Opposite-Spin Scale   =       1.2000000000000000 [-]
	 SCS Same-Spin Energy      =      -0.0845115702314338 [Eh]
	 SCS Opposite-Spin Energy  =      -0.9614699222970019 [Eh]
	 SCS Correlation Energy    =      -1.0459814925284356 [Eh]
	 SCS Total Energy          =    -266.7421594887715059 [Eh]
	-----------------------------------------------------------

  Dipole Moment: [D]
     X:    -0.1036      Y:     5.1659      Z:    -0.0102     Total:     5.1669

*** Psi4 exiting successfully. Buy a developer a beer!
