                               Psi4 1.3.2 release

  ==> Input File <==

--------------------------------------------------------------------------
#psi4
#
memory 32 gb

molecule  {
0 1
  O       -1.4315460    -0.9343010     0.0017330
  O        1.4315440    -0.9343040     0.0014650
  C        0.0000000     1.0463400     0.0064820
  C       -1.3178417     0.3014874    -0.0049008
  C        1.3046430     0.2786040    -0.0050280
  H       -0.0000810     1.7100180     0.8850940
  H        0.0000800     1.7395660    -0.8486310
  H       -2.1981250     0.9389830    -0.0199880
  H        2.1981330     0.9389860    -0.0193030
units angstrom
no_reorient  #important for SAPT in psi4, default
symmetry c1  #important for SAPT in psi4, default
}

set PROPERTIES_ORIGIN ["COM"]
properties('MP2/aug-cc-pvtz', properties = ['dipole'])
--------------------------------------------------------------------------

    Molecular point group: c1
  Charge       = 0
  Multiplicity = 1
  Basis Set: AUG-CC-PVTZ
    Blend: AUG-CC-PVTZ
  Basis Set: (AUG-CC-PVTZ AUX)
    Blend: AUG-CC-PVTZ-JKFIT

    Orbital Energies [Eh]
    ---------------------

    Doubly Occupied:

       1A    -20.570752     2A    -20.570454     3A    -11.353405
       4A    -11.352664     5A    -11.280733     6A     -1.397438
       7A     -1.379075     8A     -1.073540     9A     -0.882816
      10A     -0.779226    11A     -0.705578    12A     -0.648420
      13A     -0.644465    14A     -0.643412    15A     -0.601250
      16A     -0.520449    17A     -0.498725    18A     -0.463904
      19A     -0.418444

  @DF-RHF Final Energy:  -265.71947537559402

   => Energetics <=

    Nuclear Repulsion Energy =            158.3559972389455766
    One-Electron Energy =                -676.5814477832984721
    Two-Electron Energy =                 252.5059751687589653
    Total Energy =                       -265.7194753755940155
  Basis Set: (AUG-CC-PVTZ AUX)
    Blend: AUG-CC-PVTZ-RI
    Molecular point group: c1

    Geometry (in Angstrom), charge = 0, multiplicity = 1:

       Center              X                  Y                   Z               Mass
    ------------   -----------------  -----------------  -----------------  -----------------
         O           -1.429346515815    -0.864852500613     0.001636639282    15.994914619570
         O            1.433743484185    -0.864855500613     0.001368639282    15.994914619570
         C            0.002199484185     1.115788499387     0.006385639282    12.000000000000
         C           -1.315642215815     0.370935899387    -0.004997160718    12.000000000000
         C            1.306842484185     0.348052499387    -0.005124360718    12.000000000000
         H            0.002118484185     1.779466499387     0.884997639282     1.007825032230
         H            0.002279484185     1.809014499387    -0.848727360718     1.007825032230
         H           -2.195925515815     1.008431499387    -0.020084360718     1.007825032230
         H            2.200332484185     1.008434499387    -0.019399360718     1.007825032230

  Basis Set: AUG-CC-PVTZ
    Blend: AUG-CC-PVTZ
  Basis Set: (AUG-CC-PVTZ AUX)
    Blend: AUG-CC-PVTZ-JKFIT
	 Reference Energy          =    -265.7194753755940155 [Eh]
	 Singles Energy            =      -0.0000000000000000 [Eh]
	 Same-Spin Energy          =      -0.2515713648778148 [Eh]
	 Opposite-Spin Energy      =      -0.7959662185572247 [Eh]
	 Correlation Energy        =      -1.0475375834350396 [Eh]
	 Total Energy              =    -266.7670129590290458 [Eh]

	 ================> DF-SCS-MP2 Energies <==================
	-----------------------------------------------------------
	 SCS Same-Spin Scale       =       0.3333333333333333 [-]
	 SCS Opposite-Spin Scale   =       1.2000000000000000 [-]
	 SCS Same-Spin Energy      =      -0.0838571216259383 [Eh]
	 SCS Opposite-Spin Energy  =      -0.9551594622686697 [Eh]
	 SCS Correlation Energy    =      -1.0390165838946079 [Eh]
	 SCS Total Energy          =    -266.7584919594886514 [Eh]
	-----------------------------------------------------------

  Dipole Moment: [D]
     X:    -0.0390      Y:     4.9717      Z:    -0.0082     Total:     4.9719

*** Psi4 exiting successfully. Buy a developer a beer!
