                               Psi4 1.3.2 release

  ==> Input File <==

--------------------------------------------------------------------------
#psi4
#
memory 32 gb

molecule  {
0 1
  O       -0.0931590     2.3556990    -0.4150330
  N        1.0902530     0.4589530     0.1084880
  C        3.5423410    -1.0378250     0.1583630
  C        3.3922610     0.2419230    -0.6640150
  C        2.1860550    -1.7140940     0.3593590
  C        2.3988847     1.1032697     0.0160093
  C        1.1838660    -0.7305840     0.9537980
  C       -0.0769430     1.1544410    -0.1174940
  C       -1.3555190     0.3759530    -0.0649830
  C       -2.4581180     0.9595770     0.5701650
  C       -1.5045770    -0.8456090    -0.7357740
  C       -3.6889550     0.3043920     0.5733300
  C       -2.7428150    -1.4894620    -0.7452070
  C       -3.8339540    -0.9208060    -0.0836890
  H        4.2467360    -1.7252930    -0.3235850
  H        3.9658390    -0.7874970     1.1407660
  H        4.3526700     0.7654030    -0.7430120
  H        3.0718610    -0.0071480    -1.6828650
  H        1.8013720    -2.0729510    -0.6033450
  H        2.2806590    -2.5842610     1.0203320
  H        2.7011300     1.5279490     0.9404770
  H        2.1670460     2.0514870    -0.6632420
  H        0.1966470    -1.1794980     1.0614980
  H        1.5220510    -0.4257650     1.9581480
  H       -2.3377960     1.9283990     1.0483720
  H       -0.6569890    -1.2752080    -1.2661150
  H       -4.5402850     0.7544580     1.0784950
  H       -2.8585310    -2.4316580    -1.2759100
  H       -4.7967310    -1.4262250    -0.0878670
units angstrom
no_reorient  #important for SAPT in psi4, default
symmetry c1  #important for SAPT in psi4, default
}

set PROPERTIES_ORIGIN ["COM"]
properties('MP2/aug-cc-pvtz', properties = ['dipole'])
--------------------------------------------------------------------------

    Molecular point group: c1
  Charge       = 0
  Multiplicity = 1
  Basis Set: AUG-CC-PVTZ
    Blend: AUG-CC-PVTZ
  Basis Set: (AUG-CC-PVTZ AUX)
    Blend: AUG-CC-PVTZ-JKFIT

    Orbital Energies [Eh]
    ---------------------

    Doubly Occupied:

       1A    -20.515020     2A    -15.581674     3A    -11.351810
       4A    -11.265227     5A    -11.255000     6A    -11.251709
       7A    -11.250299     8A    -11.248123     9A    -11.246109
      10A    -11.245652    11A    -11.243628    12A    -11.230736
      13A    -11.226587    14A    -11.224056    15A     -1.368597
      16A     -1.249761    17A     -1.161462    18A     -1.087892
      19A     -1.040223    20A     -1.027858    21A     -1.023423
      22A     -0.926057    23A     -0.866685    24A     -0.844454
      25A     -0.835510    26A     -0.796578    27A     -0.749911
      28A     -0.720365    29A     -0.680558    30A     -0.651960
      31A     -0.640604    32A     -0.630838    33A     -0.623828
      34A     -0.612540    35A     -0.601549    36A     -0.594452
      37A     -0.589612    38A     -0.555406    39A     -0.550196
      40A     -0.532834    41A     -0.515489    42A     -0.506738
      43A     -0.503095    44A     -0.496457    45A     -0.482898
      46A     -0.468207    47A     -0.443568    48A     -0.420524
      49A     -0.372588    50A     -0.345111    51A     -0.342625

  @DF-RHF Final Energy:  -592.66985143043053

   => Energetics <=

    Nuclear Repulsion Energy =            877.5424538320756938
    One-Electron Energy =               -2546.4324454766569943
    Two-Electron Energy =                1076.2201402141506605
    Total Energy =                       -592.6698514304305263
  Basis Set: (AUG-CC-PVTZ AUX)
    Blend: AUG-CC-PVTZ-RI
    Molecular point group: c1

    Geometry (in Angstrom), charge = 0, multiplicity = 1:

       Center              X                  Y                   Z               Mass
    ------------   -----------------  -----------------  -----------------  -----------------
         O           -0.037583415691     2.324086759997    -0.410452618819    15.994914619570
         N            1.145828584309     0.427340759997     0.113068381181    14.003074004430
         C            3.597916584309    -1.069437240003     0.162943381181    12.000000000000
         C            3.447836584309     0.210310759997    -0.659434618819    12.000000000000
         C            2.241630584309    -1.745706240003     0.363939381181    12.000000000000
         C            2.454460284309     1.071657459997     0.020589681181    12.000000000000
         C            1.239441584309    -0.762196240003     0.958378381181    12.000000000000
         C           -0.021367415691     1.122828759997    -0.112913618819    12.000000000000
         C           -1.299943415691     0.344340759997    -0.060402618819    12.000000000000
         C           -2.402542415691     0.927964759997     0.574745381181    12.000000000000
         C           -1.449001415691    -0.877221240003    -0.731193618819    12.000000000000
         C           -3.633379415691     0.272779759997     0.577910381181    12.000000000000
         C           -2.687239415691    -1.521074240003    -0.740626618819    12.000000000000
         C           -3.778378415691    -0.952418240003    -0.079108618819    12.000000000000
         H            4.302311584309    -1.756905240003    -0.319004618819     1.007825032230
         H            4.021414584309    -0.819109240003     1.145346381181     1.007825032230
         H            4.408245584309     0.733790759997    -0.738431618819     1.007825032230
         H            3.127436584309    -0.038760240003    -1.678284618819     1.007825032230
         H            1.856947584309    -2.104563240003    -0.598764618819     1.007825032230
         H            2.336234584309    -2.615873240003     1.024912381181     1.007825032230
         H            2.756705584309     1.496336759997     0.945057381181     1.007825032230
         H            2.222621584309     2.019874759997    -0.658661618819     1.007825032230
         H            0.252222584309    -1.211110240003     1.066078381181     1.007825032230
         H            1.577626584309    -0.457377240003     1.962728381181     1.007825032230
         H           -2.282220415691     1.896786759997     1.052952381181     1.007825032230
         H           -0.601413415691    -1.306820240003    -1.261534618819     1.007825032230
         H           -4.484709415691     0.722845759997     1.083075381181     1.007825032230
         H           -2.802955415691    -2.463270240003    -1.271329618819     1.007825032230
         H           -4.741155415691    -1.457837240003    -0.083286618819     1.007825032230

  Basis Set: AUG-CC-PVTZ
    Blend: AUG-CC-PVTZ
  Basis Set: (AUG-CC-PVTZ AUX)
    Blend: AUG-CC-PVTZ-JKFIT
	 Reference Energy          =    -592.6698514304305263 [Eh]
	 Singles Energy            =      -0.0000000000000000 [Eh]
	 Same-Spin Energy          =      -0.6444359091666966 [Eh]
	 Opposite-Spin Energy      =      -2.0548997622980836 [Eh]
	 Correlation Energy        =      -2.6993356714647803 [Eh]
	 Total Energy              =    -595.3691871018952497 [Eh]

	 ================> DF-SCS-MP2 Energies <==================
	-----------------------------------------------------------
	 SCS Same-Spin Scale       =       0.3333333333333333 [-]
	 SCS Opposite-Spin Scale   =       1.2000000000000000 [-]
	 SCS Same-Spin Energy      =      -0.2148119697222322 [Eh]
	 SCS Opposite-Spin Energy  =      -2.4658797147577003 [Eh]
	 SCS Correlation Energy    =      -2.6806916844799327 [Eh]
	 SCS Total Energy          =    -595.3505431149104652 [Eh]
	-----------------------------------------------------------

  Dipole Moment: [D]
     X:     1.0166      Y:    -3.3888      Z:     1.1524     Total:     3.7210

*** Psi4 exiting successfully. Buy a developer a beer!
