                               Psi4 1.4a3.dev225

  ==> Input File <==

--------------------------------------------------------------------------
#psi4
#
memory 32 gb

molecule  {
0 1
  O       -0.0931590     2.3556990    -0.4150330
  N        1.0902530     0.4589530     0.1084880
  C        3.5423410    -1.0378250     0.1583630
  C        3.3922610     0.2419230    -0.6640150
  C        2.1860550    -1.7140940     0.3593590
  C        2.3733132     1.1834653    -0.0461566
  C        1.1838660    -0.7305840     0.9537980
  C       -0.0769430     1.1544410    -0.1174940
  C       -1.3555190     0.3759530    -0.0649830
  C       -2.4581180     0.9595770     0.5701650
  C       -1.5045770    -0.8456090    -0.7357740
  C       -3.6889550     0.3043920     0.5733300
  C       -2.7428150    -1.4894620    -0.7452070
  C       -3.8339540    -0.9208060    -0.0836890
  H        4.2467360    -1.7252930    -0.3235850
  H        3.9658390    -0.7874970     1.1407660
  H        4.3526700     0.7654030    -0.7430120
  H        3.0718610    -0.0071480    -1.6828650
  H        1.8013720    -2.0729510    -0.6033450
  H        2.2806590    -2.5842610     1.0203320
  H        2.7011300     1.5279490     0.9404770
  H        2.1670460     2.0514870    -0.6632420
  H        0.1966470    -1.1794980     1.0614980
  H        1.5220510    -0.4257650     1.9581480
  H       -2.3377960     1.9283990     1.0483720
  H       -0.6569890    -1.2752080    -1.2661150
  H       -4.5402850     0.7544580     1.0784950
  H       -2.8585310    -2.4316580    -1.2759100
  H       -4.7967310    -1.4262250    -0.0878670
units angstrom
no_reorient  #important for SAPT in psi4, default
symmetry c1  #important for SAPT in psi4, default
}

set PROPERTIES_ORIGIN ["COM"]
properties('MP2/aug-cc-pvtz', properties = ['dipole'])
--------------------------------------------------------------------------

    Molecular point group: c1
  Charge       = 0
  Multiplicity = 1
  Basis Set: AUG-CC-PVTZ
    Blend: AUG-CC-PVTZ
  Basis Set: (AUG-CC-PVTZ AUX)
    Blend: AUG-CC-PVTZ-JKFIT

    Orbital Energies [Eh]
    ---------------------

    Doubly Occupied:

       1A    -20.513973     2A    -15.580954     3A    -11.349613
       4A    -11.266693     5A    -11.253975     6A    -11.250693
       7A    -11.249499     8A    -11.247557     9A    -11.245353
      10A    -11.245167    11A    -11.243085    12A    -11.230849
      13A    -11.228368    14A    -11.225404    15A     -1.367988
      16A     -1.244476    17A     -1.160706    18A     -1.084099
      19A     -1.039990    20A     -1.026250    21A     -1.022725
      22A     -0.924556    23A     -0.866693    24A     -0.846330
      25A     -0.835437    26A     -0.792932    27A     -0.747749
      28A     -0.718975    29A     -0.680648    30A     -0.650807
      31A     -0.638231    32A     -0.631223    33A     -0.625296
      34A     -0.610316    35A     -0.601070    36A     -0.593387
      37A     -0.588043    38A     -0.559505    39A     -0.551228
      40A     -0.534274    41A     -0.512989    42A     -0.504368
      43A     -0.501877    44A     -0.496054    45A     -0.479547
      46A     -0.469224    47A     -0.460895    48A     -0.421652
      49A     -0.369658    50A     -0.344622    51A     -0.341960

  @DF-RHF Final Energy:  -592.68253485662171

   => Energetics <=

    Nuclear Repulsion Energy =            876.6331076777807993
    One-Electron Energy =               -2544.6773590883171892
    Two-Electron Energy =                1075.3617165539146754
    Total Energy =                       -592.6825348566217144
  Basis Set: (AUG-CC-PVTZ AUX)
    Blend: AUG-CC-PVTZ-RI
    Molecular point group: c1

    Geometry (in Angstrom), charge = 0, multiplicity = 1:

       Center              X                  Y                   Z               Mass
    ------------   -----------------  -----------------  -----------------  -----------------
         O           -0.035960818810     2.318998081959    -0.406507985322    15.994914619570
         N            1.147451181190     0.422252081959     0.117013014678    14.003074004430
         C            3.599539181190    -1.074525918041     0.166888014678    12.000000000000
         C            3.449459181190     0.205222081959    -0.655489985322    12.000000000000
         C            2.243253181190    -1.750794918041     0.367884014678    12.000000000000
         C            2.430511381190     1.146764381959    -0.037631585322    12.000000000000
         C            1.241064181190    -0.767284918041     0.962323014678    12.000000000000
         C           -0.019744818810     1.117740081959    -0.108968985322    12.000000000000
         C           -1.298320818810     0.339252081959    -0.056457985322    12.000000000000
         C           -2.400919818810     0.922876081959     0.578690014678    12.000000000000
         C           -1.447378818810    -0.882309918041    -0.727248985322    12.000000000000
         C           -3.631756818810     0.267691081959     0.581855014678    12.000000000000
         C           -2.685616818810    -1.526162918041    -0.736681985322    12.000000000000
         C           -3.776755818810    -0.957506918041    -0.075163985322    12.000000000000
         H            4.303934181190    -1.761993918041    -0.315059985322     1.007825032230
         H            4.023037181190    -0.824197918041     1.149291014678     1.007825032230
         H            4.409868181190     0.728702081959    -0.734486985322     1.007825032230
         H            3.129059181190    -0.043848918041    -1.674339985322     1.007825032230
         H            1.858570181190    -2.109651918041    -0.594819985322     1.007825032230
         H            2.337857181190    -2.620961918041     1.028857014678     1.007825032230
         H            2.758328181190     1.491248081959     0.949002014678     1.007825032230
         H            2.224244181190     2.014786081959    -0.654716985322     1.007825032230
         H            0.253845181190    -1.216198918041     1.070023014678     1.007825032230
         H            1.579249181190    -0.462465918041     1.966673014678     1.007825032230
         H           -2.280597818810     1.891698081959     1.056897014678     1.007825032230
         H           -0.599790818810    -1.311908918041    -1.257589985322     1.007825032230
         H           -4.483086818810     0.717757081959     1.087020014678     1.007825032230
         H           -2.801332818810    -2.468358918041    -1.267384985322     1.007825032230
         H           -4.739532818810    -1.462925918041    -0.079341985322     1.007825032230

  Basis Set: AUG-CC-PVTZ
    Blend: AUG-CC-PVTZ
  Basis Set: (AUG-CC-PVTZ AUX)
    Blend: AUG-CC-PVTZ-JKFIT
	 Reference Energy          =    -592.6825348566217144 [Eh]
	 Singles Energy            =      -0.0000000000000000 [Eh]
	 Same-Spin Energy          =      -0.6433942630377949 [Eh]
	 Opposite-Spin Energy      =      -2.0533337343786391 [Eh]
	 Correlation Energy        =      -2.6967279974164340 [Eh]
	 Total Energy              =    -595.3792628540381884 [Eh]

	 ================> DF-SCS-MP2 Energies <==================
	-----------------------------------------------------------
	 SCS Same-Spin Scale       =       0.3333333333333333 [-]
	 SCS Opposite-Spin Scale   =       1.2000000000000000 [-]
	 SCS Same-Spin Energy      =      -0.2144647543459316 [Eh]
	 SCS Opposite-Spin Energy  =      -2.4640004812543670 [Eh]
	 SCS Correlation Energy    =      -2.6784652356002985 [Eh]
	 SCS Total Energy          =    -595.3610000922219569 [Eh]
	-----------------------------------------------------------

  Dipole Moment: [D]
     X:     1.0929      Y:    -3.3829      Z:     1.1269     Total:     3.7293

*** Psi4 exiting successfully. Buy a developer a beer!
