                               Psi4 1.4a3.dev225

  ==> Input File <==

--------------------------------------------------------------------------
#psi4
#
memory 32 gb

molecule  {
0 1
  O       -0.0931590     2.3556990    -0.4150330
  N        1.0902530     0.4589530     0.1084880
  C        3.5423410    -1.0378250     0.1583630
  C        3.3922610     0.2419230    -0.6640150
  C        2.1860550    -1.7140940     0.3593590
  C        2.3559930     1.1736850    -0.0440690
  C        1.1838660    -0.7305840     0.9537980
  C       -0.0938913     1.1645399    -0.1207754
  C       -1.3555190     0.3759530    -0.0649830
  C       -2.4581180     0.9595770     0.5701650
  C       -1.5045770    -0.8456090    -0.7357740
  C       -3.6889550     0.3043920     0.5733300
  C       -2.7428150    -1.4894620    -0.7452070
  C       -3.8339540    -0.9208060    -0.0836890
  H        4.2467360    -1.7252930    -0.3235850
  H        3.9658390    -0.7874970     1.1407660
  H        4.3526700     0.7654030    -0.7430120
  H        3.0718610    -0.0071480    -1.6828650
  H        1.8013720    -2.0729510    -0.6033450
  H        2.2806590    -2.5842610     1.0203320
  H        2.7011300     1.5279490     0.9404770
  H        2.1670460     2.0514870    -0.6632420
  H        0.1966470    -1.1794980     1.0614980
  H        1.5220510    -0.4257650     1.9581480
  H       -2.3377960     1.9283990     1.0483720
  H       -0.6569890    -1.2752080    -1.2661150
  H       -4.5402850     0.7544580     1.0784950
  H       -2.8585310    -2.4316580    -1.2759100
  H       -4.7967310    -1.4262250    -0.0878670
units angstrom
no_reorient  #important for SAPT in psi4, default
symmetry c1  #important for SAPT in psi4, default
}

set PROPERTIES_ORIGIN ["COM"]
properties('MP2/aug-cc-pvtz', properties = ['dipole'])
--------------------------------------------------------------------------

    Molecular point group: c1
  Charge       = 0
  Multiplicity = 1
  Basis Set: AUG-CC-PVTZ
    Blend: AUG-CC-PVTZ
  Basis Set: (AUG-CC-PVTZ AUX)
    Blend: AUG-CC-PVTZ-JKFIT

    Orbital Energies [Eh]
    ---------------------

    Doubly Occupied:

       1A    -20.518286     2A    -15.578142     3A    -11.351001
       4A    -11.264983     5A    -11.251768     6A    -11.251573
       7A    -11.250405     8A    -11.248859     9A    -11.246682
      10A    -11.246235    11A    -11.244114    12A    -11.229470
      13A    -11.226636    14A    -11.223654    15A     -1.375770
      16A     -1.243779    17A     -1.162253    18A     -1.081233
      19A     -1.041096    20A     -1.025791    21A     -1.022962
      22A     -0.921088    23A     -0.866309    24A     -0.846714
      25A     -0.836392    26A     -0.791402    27A     -0.747452
      28A     -0.719244    29A     -0.682246    30A     -0.651488
      31A     -0.638476    32A     -0.629350    33A     -0.626000
      34A     -0.610037    35A     -0.601910    36A     -0.594258
      37A     -0.588271    38A     -0.559828    39A     -0.550430
      40A     -0.535034    41A     -0.514659    42A     -0.504326
      43A     -0.501076    44A     -0.496205    45A     -0.478486
      46A     -0.467840    47A     -0.459026    48A     -0.424525
      49A     -0.367272    50A     -0.345662    51A     -0.343605

  @DF-RHF Final Energy:  -592.68270355150628

   => Energetics <=

    Nuclear Repulsion Energy =            876.9237943569851268
    One-Electron Energy =               -2545.2463938752875947
    Two-Electron Energy =                1075.6398959667963027
    Total Energy =                       -592.6827035515061652
  Basis Set: (AUG-CC-PVTZ AUX)
    Blend: AUG-CC-PVTZ-RI
    Molecular point group: c1

    Geometry (in Angstrom), charge = 0, multiplicity = 1:

       Center              X                  Y                   Z               Mass
    ------------   -----------------  -----------------  -----------------  -----------------
         O           -0.033786368299     2.318977865728    -0.406432234734    15.994914619570
         N            1.149625631701     0.422231865728     0.117088765266    14.003074004430
         C            3.601713631701    -1.074546134272     0.166963765266    12.000000000000
         C            3.451633631701     0.205201865728    -0.655414234734    12.000000000000
         C            2.245427631701    -1.750815134272     0.367959765266    12.000000000000
         C            2.415365631701     1.136963865728    -0.035468234734    12.000000000000
         C            1.243238631701    -0.767305134272     0.962398765266    12.000000000000
         C           -0.034518668299     1.127818765728    -0.112174634734    12.000000000000
         C           -1.296146368299     0.339231865728    -0.056382234734    12.000000000000
         C           -2.398745368299     0.922855865728     0.578765765266    12.000000000000
         C           -1.445204368299    -0.882330134272    -0.727173234734    12.000000000000
         C           -3.629582368299     0.267670865728     0.581930765266    12.000000000000
         C           -2.683442368299    -1.526183134272    -0.736606234734    12.000000000000
         C           -3.774581368299    -0.957527134272    -0.075088234734    12.000000000000
         H            4.306108631701    -1.762014134272    -0.314984234734     1.007825032230
         H            4.025211631701    -0.824218134272     1.149366765266     1.007825032230
         H            4.412042631701     0.728681865728    -0.734411234734     1.007825032230
         H            3.131233631701    -0.043869134272    -1.674264234734     1.007825032230
         H            1.860744631701    -2.109672134272    -0.594744234734     1.007825032230
         H            2.340031631701    -2.620982134272     1.028932765266     1.007825032230
         H            2.760502631701     1.491227865728     0.949077765266     1.007825032230
         H            2.226418631701     2.014765865728    -0.654641234734     1.007825032230
         H            0.256019631701    -1.216219134272     1.070098765266     1.007825032230
         H            1.581423631701    -0.462486134272     1.966748765266     1.007825032230
         H           -2.278423368299     1.891677865728     1.056972765266     1.007825032230
         H           -0.597616368299    -1.311929134272    -1.257514234734     1.007825032230
         H           -4.480912368299     0.717736865728     1.087095765266     1.007825032230
         H           -2.799158368299    -2.468379134272    -1.267309234734     1.007825032230
         H           -4.737358368299    -1.462946134272    -0.079266234734     1.007825032230

  Basis Set: AUG-CC-PVTZ
    Blend: AUG-CC-PVTZ
  Basis Set: (AUG-CC-PVTZ AUX)
    Blend: AUG-CC-PVTZ-JKFIT
	 Reference Energy          =    -592.6827035515062789 [Eh]
	 Singles Energy            =      -0.0000000000000000 [Eh]
	 Same-Spin Energy          =      -0.6433817045691941 [Eh]
	 Opposite-Spin Energy      =      -2.0531343030621656 [Eh]
	 Correlation Energy        =      -2.6965160076313595 [Eh]
	 Total Energy              =    -595.3792195591375958 [Eh]

	 ================> DF-SCS-MP2 Energies <==================
	-----------------------------------------------------------
	 SCS Same-Spin Scale       =       0.3333333333333333 [-]
	 SCS Opposite-Spin Scale   =       1.2000000000000000 [-]
	 SCS Same-Spin Energy      =      -0.2144605681897314 [Eh]
	 SCS Opposite-Spin Energy  =      -2.4637611636745986 [Eh]
	 SCS Correlation Energy    =      -2.6782217318643298 [Eh]
	 SCS Total Energy          =    -595.3609252833706478 [Eh]
	-----------------------------------------------------------

  Dipole Moment: [D]
     X:     0.8351      Y:    -3.3031      Z:     1.0787     Total:     3.5737

*** Psi4 exiting successfully. Buy a developer a beer!
