                               Psi4 1.3.2 release

  ==> Input File <==

--------------------------------------------------------------------------
#psi4
#
memory 32 gb

molecule  {
0 1
  O       -0.0931590     2.3556990    -0.4150330
  N        1.0902530     0.4589530     0.1084880
  C        3.5423410    -1.0378250     0.1583630
  C        3.3922610     0.2419230    -0.6640150
  C        2.1860550    -1.7140940     0.3593590
  C        2.4253032     1.0426191    -0.0063514
  C        1.1838660    -0.7305840     0.9537980
  C       -0.0769430     1.1544410    -0.1174940
  C       -1.3555190     0.3759530    -0.0649830
  C       -2.4581180     0.9595770     0.5701650
  C       -1.5045770    -0.8456090    -0.7357740
  C       -3.6889550     0.3043920     0.5733300
  C       -2.7428150    -1.4894620    -0.7452070
  C       -3.8339540    -0.9208060    -0.0836890
  H        4.2467360    -1.7252930    -0.3235850
  H        3.9658390    -0.7874970     1.1407660
  H        4.3526700     0.7654030    -0.7430120
  H        3.0718610    -0.0071480    -1.6828650
  H        1.8013720    -2.0729510    -0.6033450
  H        2.2806590    -2.5842610     1.0203320
  H        2.7011300     1.5279490     0.9404770
  H        2.1670460     2.0514870    -0.6632420
  H        0.1966470    -1.1794980     1.0614980
  H        1.5220510    -0.4257650     1.9581480
  H       -2.3377960     1.9283990     1.0483720
  H       -0.6569890    -1.2752080    -1.2661150
  H       -4.5402850     0.7544580     1.0784950
  H       -2.8585310    -2.4316580    -1.2759100
  H       -4.7967310    -1.4262250    -0.0878670
units angstrom
no_reorient  #important for SAPT in psi4, default
symmetry c1  #important for SAPT in psi4, default
}

set PROPERTIES_ORIGIN ["COM"]
properties('MP2/aug-cc-pvtz', properties = ['dipole'])
--------------------------------------------------------------------------

    Molecular point group: c1
  Charge       = 0
  Multiplicity = 1
  Basis Set: AUG-CC-PVTZ
    Blend: AUG-CC-PVTZ
  Basis Set: (AUG-CC-PVTZ AUX)
    Blend: AUG-CC-PVTZ-JKFIT

    Orbital Energies [Eh]
    ---------------------

    Doubly Occupied:

       1A    -20.515400     2A    -15.581881     3A    -11.352943
       4A    -11.264502     5A    -11.259103     6A    -11.252110
       7A    -11.250586     8A    -11.248349     9A    -11.246344
      10A    -11.245805    11A    -11.243775    12A    -11.231303
      13A    -11.226972    14A    -11.222052    15A     -1.368517
      16A     -1.251426    17A     -1.161770    18A     -1.094895
      19A     -1.040961    20A     -1.031998    21A     -1.023818
      22A     -0.926572    23A     -0.867939    24A     -0.842817
      25A     -0.835419    26A     -0.798977    27A     -0.747408
      28A     -0.721416    29A     -0.681107    30A     -0.650592
      31A     -0.641553    32A     -0.632935    33A     -0.623854
      34A     -0.613017    35A     -0.602262    36A     -0.595364
      37A     -0.590914    38A     -0.562645    39A     -0.548672
      40A     -0.533572    41A     -0.517134    42A     -0.504636
      43A     -0.502480    44A     -0.494859    45A     -0.485331
      46A     -0.468720    47A     -0.434666    48A     -0.416487
      49A     -0.372743    50A     -0.345247    51A     -0.342861

  @DF-RHF Final Energy:  -592.65448632202356

   => Energetics <=

    Nuclear Repulsion Energy =            878.2146023444837510
    One-Electron Energy =               -2547.7047551849677802
    Two-Electron Energy =                1076.8356665184603571
    Total Energy =                       -592.6544863220235584
  Basis Set: (AUG-CC-PVTZ AUX)
    Blend: AUG-CC-PVTZ-RI
    Molecular point group: c1

    Geometry (in Angstrom), charge = 0, multiplicity = 1:

       Center              X                  Y                   Z               Mass
    ------------   -----------------  -----------------  -----------------  -----------------
         O           -0.039259757545     2.327935242660    -0.409033757896    15.994914619570
         N            1.144152242455     0.431189242660     0.114487242104    14.003074004430
         C            3.596240242455    -1.065588757340     0.164362242104    12.000000000000
         C            3.446160242455     0.214159242660    -0.658015757896    12.000000000000
         C            2.239954242455    -1.741857757340     0.365358242104    12.000000000000
         C            2.479202442455     1.014855342660    -0.000352157896    12.000000000000
         C            1.237765242455    -0.758347757340     0.959797242104    12.000000000000
         C           -0.023043757545     1.126677242660    -0.111494757896    12.000000000000
         C           -1.301619757545     0.348189242660    -0.058983757896    12.000000000000
         C           -2.404218757545     0.931813242660     0.576164242104    12.000000000000
         C           -1.450677757545    -0.873372757340    -0.729774757896    12.000000000000
         C           -3.635055757545     0.276628242660     0.579329242104    12.000000000000
         C           -2.688915757545    -1.517225757340    -0.739207757896    12.000000000000
         C           -3.780054757545    -0.948569757340    -0.077689757896    12.000000000000
         H            4.300635242455    -1.753056757340    -0.317585757896     1.007825032230
         H            4.019738242455    -0.815260757340     1.146765242104     1.007825032230
         H            4.406569242455     0.737639242660    -0.737012757896     1.007825032230
         H            3.125760242455    -0.034911757340    -1.676865757896     1.007825032230
         H            1.855271242455    -2.100714757340    -0.597345757896     1.007825032230
         H            2.334558242455    -2.612024757340     1.026331242104     1.007825032230
         H            2.755029242455     1.500185242660     0.946476242104     1.007825032230
         H            2.220945242455     2.023723242660    -0.657242757896     1.007825032230
         H            0.250546242455    -1.207261757340     1.067497242104     1.007825032230
         H            1.575950242455    -0.453528757340     1.964147242104     1.007825032230
         H           -2.283896757545     1.900635242660     1.054371242104     1.007825032230
         H           -0.603089757545    -1.302971757340    -1.260115757896     1.007825032230
         H           -4.486385757545     0.726694242660     1.084494242104     1.007825032230
         H           -2.804631757545    -2.459421757340    -1.269910757896     1.007825032230
         H           -4.742831757545    -1.453988757340    -0.081867757896     1.007825032230

  Basis Set: AUG-CC-PVTZ
    Blend: AUG-CC-PVTZ
  Basis Set: (AUG-CC-PVTZ AUX)
    Blend: AUG-CC-PVTZ-JKFIT
	 Reference Energy          =    -592.6544863220235584 [Eh]
	 Singles Energy            =      -0.0000000000000000 [Eh]
	 Same-Spin Energy          =      -0.6456399093628135 [Eh]
	 Opposite-Spin Energy      =      -2.0565655768525253 [Eh]
	 Correlation Energy        =      -2.7022054862153388 [Eh]
	 Total Energy              =    -595.3566918082389066 [Eh]

	 ================> DF-SCS-MP2 Energies <==================
	-----------------------------------------------------------
	 SCS Same-Spin Scale       =       0.3333333333333333 [-]
	 SCS Opposite-Spin Scale   =       1.2000000000000000 [-]
	 SCS Same-Spin Energy      =      -0.2152133031209378 [Eh]
	 SCS Opposite-Spin Energy  =      -2.4678786922230302 [Eh]
	 SCS Correlation Energy    =      -2.6830919953439683 [Eh]
	 SCS Total Energy          =    -595.3375783173675018 [Eh]
	-----------------------------------------------------------

  Dipole Moment: [D]
     X:     1.0182      Y:    -3.4396      Z:     1.1054     Total:     3.7536

*** Psi4 exiting successfully. Buy a developer a beer!
