                               Psi4 1.4a3.dev225

  ==> Input File <==

--------------------------------------------------------------------------
#psi4
#
memory 32 gb

molecule  {
0 1
  O       -0.0931590     2.3556990    -0.4150330
  N        1.0902530     0.4589530     0.1084880
  C        3.5423410    -1.0378250     0.1583630
  C        3.3922610     0.2419230    -0.6640150
  C        2.1860550    -1.7140940     0.3593590
  C        2.3559930     1.1736850    -0.0440690
  C        1.1838660    -0.7305840     0.9537980
  C       -0.0762879     1.1059118    -0.1054738
  C       -1.3555190     0.3759530    -0.0649830
  C       -2.4581180     0.9595770     0.5701650
  C       -1.5045770    -0.8456090    -0.7357740
  C       -3.6889550     0.3043920     0.5733300
  C       -2.7428150    -1.4894620    -0.7452070
  C       -3.8339540    -0.9208060    -0.0836890
  H        4.2467360    -1.7252930    -0.3235850
  H        3.9658390    -0.7874970     1.1407660
  H        4.3526700     0.7654030    -0.7430120
  H        3.0718610    -0.0071480    -1.6828650
  H        1.8013720    -2.0729510    -0.6033450
  H        2.2806590    -2.5842610     1.0203320
  H        2.7011300     1.5279490     0.9404770
  H        2.1670460     2.0514870    -0.6632420
  H        0.1966470    -1.1794980     1.0614980
  H        1.5220510    -0.4257650     1.9581480
  H       -2.3377960     1.9283990     1.0483720
  H       -0.6569890    -1.2752080    -1.2661150
  H       -4.5402850     0.7544580     1.0784950
  H       -2.8585310    -2.4316580    -1.2759100
  H       -4.7967310    -1.4262250    -0.0878670
units angstrom
no_reorient  #important for SAPT in psi4, default
symmetry c1  #important for SAPT in psi4, default
}

set PROPERTIES_ORIGIN ["COM"]
properties('MP2/aug-cc-pvtz', properties = ['dipole'])
--------------------------------------------------------------------------

    Molecular point group: c1
  Charge       = 0
  Multiplicity = 1
  Basis Set: AUG-CC-PVTZ
    Blend: AUG-CC-PVTZ
  Basis Set: (AUG-CC-PVTZ AUX)
    Blend: AUG-CC-PVTZ-JKFIT

    Orbital Energies [Eh]
    ---------------------

    Doubly Occupied:

       1A    -20.504022     2A    -15.588506     3A    -11.349835
       4A    -11.269652     5A    -11.256217     6A    -11.252065
       7A    -11.250903     8A    -11.249013     9A    -11.247011
      10A    -11.246206    11A    -11.244143    12A    -11.233011
      13A    -11.229720    14A    -11.227138    15A     -1.344179
      16A     -1.246571    17A     -1.162541    18A     -1.087692
      19A     -1.044207    20A     -1.027902    21A     -1.024126
      22A     -0.930993    23A     -0.871251    24A     -0.849148
      25A     -0.837141    26A     -0.796662    27A     -0.750175
      28A     -0.722677    29A     -0.680906    30A     -0.651569
      31A     -0.640327    32A     -0.633429    33A     -0.624171
      34A     -0.610575    35A     -0.598834    36A     -0.594824
      37A     -0.587705    38A     -0.559432    39A     -0.549489
      40A     -0.530453    41A     -0.512606    42A     -0.504320
      43A     -0.503152    44A     -0.494436    45A     -0.474884
      46A     -0.470309    47A     -0.461901    48A     -0.417617
      49A     -0.369198    50A     -0.345807    51A     -0.342016

  @DF-RHF Final Energy:  -592.67538462829941

   => Energetics <=

    Nuclear Repulsion Energy =            877.2541187076617462
    One-Electron Energy =               -2545.8576704917304596
    Two-Electron Energy =                1075.9281671557691880
    Total Energy =                       -592.6753846282995255
  Basis Set: (AUG-CC-PVTZ AUX)
    Blend: AUG-CC-PVTZ-RI
    Molecular point group: c1

    Geometry (in Angstrom), charge = 0, multiplicity = 1:

       Center              X                  Y                   Z               Mass
    ------------   -----------------  -----------------  -----------------  -----------------
         O           -0.034903362685     2.322698014026    -0.407403172241    15.994914619570
         N            1.148508637315     0.425952014026     0.116117827759    14.003074004430
         C            3.600596637315    -1.070825985974     0.165992827759    12.000000000000
         C            3.450516637315     0.208922014026    -0.656385172241    12.000000000000
         C            2.244310637315    -1.747094985974     0.366988827759    12.000000000000
         C            2.414248637315     1.140684014026    -0.036439172241    12.000000000000
         C            1.242121637315    -0.763584985974     0.961427827759    12.000000000000
         C           -0.018032262685     1.072910814026    -0.097843972241    12.000000000000
         C           -1.297263362685     0.342952014026    -0.057353172241    12.000000000000
         C           -2.399862362685     0.926576014026     0.577794827759    12.000000000000
         C           -1.446321362685    -0.878609985974    -0.728144172241    12.000000000000
         C           -3.630699362685     0.271391014026     0.580959827759    12.000000000000
         C           -2.684559362685    -1.522462985974    -0.737577172241    12.000000000000
         C           -3.775698362685    -0.953806985974    -0.076059172241    12.000000000000
         H            4.304991637315    -1.758293985974    -0.315955172241     1.007825032230
         H            4.024094637315    -0.820497985974     1.148395827759     1.007825032230
         H            4.410925637315     0.732402014026    -0.735382172241     1.007825032230
         H            3.130116637315    -0.040148985974    -1.675235172241     1.007825032230
         H            1.859627637315    -2.105951985974    -0.595715172241     1.007825032230
         H            2.338914637315    -2.617261985974     1.027961827759     1.007825032230
         H            2.759385637315     1.494948014026     0.948106827759     1.007825032230
         H            2.225301637315     2.018486014026    -0.655612172241     1.007825032230
         H            0.254902637315    -1.212498985974     1.069127827759     1.007825032230
         H            1.580306637315    -0.458765985974     1.965777827759     1.007825032230
         H           -2.279540362685     1.895398014026     1.056001827759     1.007825032230
         H           -0.598733362685    -1.308208985974    -1.258485172241     1.007825032230
         H           -4.482029362685     0.721457014026     1.086124827759     1.007825032230
         H           -2.800275362685    -2.464658985974    -1.268280172241     1.007825032230
         H           -4.738475362685    -1.459225985974    -0.080237172241     1.007825032230

  Basis Set: AUG-CC-PVTZ
    Blend: AUG-CC-PVTZ
  Basis Set: (AUG-CC-PVTZ AUX)
    Blend: AUG-CC-PVTZ-JKFIT
	 Reference Energy          =    -592.6753846282994118 [Eh]
	 Singles Energy            =      -0.0000000000000000 [Eh]
	 Same-Spin Energy          =      -0.6446559016333189 [Eh]
	 Opposite-Spin Energy      =      -2.0556217579545804 [Eh]
	 Correlation Energy        =      -2.7002776595878992 [Eh]
	 Total Energy              =    -595.3756622878872804 [Eh]

	 ================> DF-SCS-MP2 Energies <==================
	-----------------------------------------------------------
	 SCS Same-Spin Scale       =       0.3333333333333333 [-]
	 SCS Opposite-Spin Scale   =       1.2000000000000000 [-]
	 SCS Same-Spin Energy      =      -0.2148853005444396 [Eh]
	 SCS Opposite-Spin Energy  =      -2.4667461095454963 [Eh]
	 SCS Correlation Energy    =      -2.6816314100899361 [Eh]
	 SCS Total Energy          =    -595.3570160383893608 [Eh]
	-----------------------------------------------------------

  Dipole Moment: [D]
     X:     1.1810      Y:    -3.7102      Z:     1.2124     Total:     4.0780

*** Psi4 exiting successfully. Buy a developer a beer!
