                               Psi4 1.3.2 release

  ==> Input File <==

--------------------------------------------------------------------------
#psi4
#
memory 32 gb

molecule  {
0 1
  O       -0.0931590     2.3556990    -0.4150330
  N        1.0902530     0.4589530     0.1084880
  C        3.5423410    -1.0378250     0.1583630
  C        3.3922610     0.2419230    -0.6640150
  C        2.1860550    -1.7140940     0.3593590
  C        2.3297659     1.2157021    -0.0562900
  C        1.1838660    -0.7305840     0.9537980
  C       -0.0769430     1.1544410    -0.1174940
  C       -1.3555190     0.3759530    -0.0649830
  C       -2.4581180     0.9595770     0.5701650
  C       -1.5045770    -0.8456090    -0.7357740
  C       -3.6889550     0.3043920     0.5733300
  C       -2.7428150    -1.4894620    -0.7452070
  C       -3.8339540    -0.9208060    -0.0836890
  H        4.2467360    -1.7252930    -0.3235850
  H        3.9658390    -0.7874970     1.1407660
  H        4.3526700     0.7654030    -0.7430120
  H        3.0718610    -0.0071480    -1.6828650
  H        1.8013720    -2.0729510    -0.6033450
  H        2.2806590    -2.5842610     1.0203320
  H        2.7011300     1.5279490     0.9404770
  H        2.1670460     2.0514870    -0.6632420
  H        0.1966470    -1.1794980     1.0614980
  H        1.5220510    -0.4257650     1.9581480
  H       -2.3377960     1.9283990     1.0483720
  H       -0.6569890    -1.2752080    -1.2661150
  H       -4.5402850     0.7544580     1.0784950
  H       -2.8585310    -2.4316580    -1.2759100
  H       -4.7967310    -1.4262250    -0.0878670
units angstrom
no_reorient  #important for SAPT in psi4, default
symmetry c1  #important for SAPT in psi4, default
}

set PROPERTIES_ORIGIN ["COM"]
properties('MP2/aug-cc-pvtz', properties = ['dipole'])
--------------------------------------------------------------------------

    Molecular point group: c1
  Charge       = 0
  Multiplicity = 1
  Basis Set: AUG-CC-PVTZ
    Blend: AUG-CC-PVTZ
  Basis Set: (AUG-CC-PVTZ AUX)
    Blend: AUG-CC-PVTZ-JKFIT

    Orbital Energies [Eh]
    ---------------------

    Doubly Occupied:

       1A    -20.514700     2A    -15.582120     3A    -11.349599
       4A    -11.268320     5A    -11.252728     6A    -11.250834
       7A    -11.249669     8A    -11.247760     9A    -11.245542
      10A    -11.245406    11A    -11.243301    12A    -11.231047
      13A    -11.228355    14A    -11.226042    15A     -1.369590
      16A     -1.247503    17A     -1.160963    18A     -1.081751
      19A     -1.040723    20A     -1.024452    21A     -1.021895
      22A     -0.924230    23A     -0.868330    24A     -0.847147
      25A     -0.835747    26A     -0.791684    27A     -0.748614
      28A     -0.720191    29A     -0.681443    30A     -0.652803
      31A     -0.638257    32A     -0.631032    33A     -0.625963
      34A     -0.610626    35A     -0.600703    36A     -0.593582
      37A     -0.588950    38A     -0.565515    39A     -0.547538
      40A     -0.534325    41A     -0.512291    42A     -0.503593
      43A     -0.501051    44A     -0.496224    45A     -0.475045
      46A     -0.470319    47A     -0.464297    48A     -0.422913
      49A     -0.368035    50A     -0.344886    51A     -0.342124

  @DF-RHF Final Energy:  -592.68053982340280

   => Energetics <=

    Nuclear Repulsion Energy =            876.6974822941664343
    One-Electron Energy =               -2544.7765303197384128
    Two-Electron Energy =                1075.3985082021690687
    Total Energy =                       -592.6805398234027962
  Basis Set: (AUG-CC-PVTZ AUX)
    Blend: AUG-CC-PVTZ-RI
    Molecular point group: c1

    Geometry (in Angstrom), charge = 0, multiplicity = 1:

       Center              X                  Y                   Z               Mass
    ------------   -----------------  -----------------  -----------------  -----------------
         O           -0.033197597522     2.316952549584    -0.405864987327    15.994914619570
         N            1.150214402478     0.420206549584     0.117656012673    14.003074004430
         C            3.602302402478    -1.076571450416     0.167531012673    12.000000000000
         C            3.452222402478     0.203176549584    -0.654846987327    12.000000000000
         C            2.246016402478    -1.752840450416     0.368527012673    12.000000000000
         C            2.389727302478     1.176955649584    -0.047121987327    12.000000000000
         C            1.243827402478    -0.769330450416     0.962966012673    12.000000000000
         C           -0.016981597522     1.115694549584    -0.108325987327    12.000000000000
         C           -1.295557597522     0.337206549584    -0.055814987327    12.000000000000
         C           -2.398156597522     0.920830549584     0.579333012673    12.000000000000
         C           -1.444615597522    -0.884355450416    -0.726605987327    12.000000000000
         C           -3.628993597522     0.265645549584     0.582498012673    12.000000000000
         C           -2.682853597522    -1.528208450416    -0.736038987327    12.000000000000
         C           -3.773992597522    -0.959552450416    -0.074520987327    12.000000000000
         H            4.306697402478    -1.764039450416    -0.314416987327     1.007825032230
         H            4.025800402478    -0.826243450416     1.149934012673     1.007825032230
         H            4.412631402478     0.726656549584    -0.733843987327     1.007825032230
         H            3.131822402478    -0.045894450416    -1.673696987327     1.007825032230
         H            1.861333402478    -2.111697450416    -0.594176987327     1.007825032230
         H            2.340620402478    -2.623007450416     1.029500012673     1.007825032230
         H            2.761091402478     1.489202549584     0.949645012673     1.007825032230
         H            2.227007402478     2.012740549584    -0.654073987327     1.007825032230
         H            0.256608402478    -1.218244450416     1.070666012673     1.007825032230
         H            1.582012402478    -0.464511450416     1.967316012673     1.007825032230
         H           -2.277834597522     1.889652549584     1.057540012673     1.007825032230
         H           -0.597027597522    -1.313954450416    -1.256946987327     1.007825032230
         H           -4.480323597522     0.715711549584     1.087663012673     1.007825032230
         H           -2.798569597522    -2.470404450416    -1.266741987327     1.007825032230
         H           -4.736769597522    -1.464971450416    -0.078698987327     1.007825032230

  Basis Set: AUG-CC-PVTZ
    Blend: AUG-CC-PVTZ
  Basis Set: (AUG-CC-PVTZ AUX)
    Blend: AUG-CC-PVTZ-JKFIT
	 Reference Energy          =    -592.6805398234027962 [Eh]
	 Singles Energy            =      -0.0000000000000000 [Eh]
	 Same-Spin Energy          =      -0.6431741264330640 [Eh]
	 Opposite-Spin Energy      =      -2.0530848344982640 [Eh]
	 Correlation Energy        =      -2.6962589609313281 [Eh]
	 Total Energy              =    -595.3767987843341416 [Eh]

	 ================> DF-SCS-MP2 Energies <==================
	-----------------------------------------------------------
	 SCS Same-Spin Scale       =       0.3333333333333333 [-]
	 SCS Opposite-Spin Scale   =       1.2000000000000000 [-]
	 SCS Same-Spin Energy      =      -0.2143913754776880 [Eh]
	 SCS Opposite-Spin Energy  =      -2.4637018013979168 [Eh]
	 SCS Correlation Energy    =      -2.6780931768756049 [Eh]
	 SCS Total Energy          =    -595.3586330002783598 [Eh]
	-----------------------------------------------------------

  Dipole Moment: [D]
     X:     1.0256      Y:    -3.3933      Z:     1.1311     Total:     3.7210

*** Psi4 exiting successfully. Buy a developer a beer!
