                               Psi4 1.3.2 release

  ==> Input File <==

--------------------------------------------------------------------------
#psi4
#
memory 32 gb

molecule  {
0 1
  O       -0.2217136     2.3442127    -0.4261976
  N        1.0902530     0.4589530     0.1084880
  C        3.5423410    -1.0378250     0.1583630
  C        3.3922610     0.2419230    -0.6640150
  C        2.1860550    -1.7140940     0.3593590
  C        2.3559930     1.1736850    -0.0440690
  C        1.1838660    -0.7305840     0.9537980
  C       -0.0769430     1.1544410    -0.1174940
  C       -1.3555190     0.3759530    -0.0649830
  C       -2.4581180     0.9595770     0.5701650
  C       -1.5045770    -0.8456090    -0.7357740
  C       -3.6889550     0.3043920     0.5733300
  C       -2.7428150    -1.4894620    -0.7452070
  C       -3.8339540    -0.9208060    -0.0836890
  H        4.2467360    -1.7252930    -0.3235850
  H        3.9658390    -0.7874970     1.1407660
  H        4.3526700     0.7654030    -0.7430120
  H        3.0718610    -0.0071480    -1.6828650
  H        1.8013720    -2.0729510    -0.6033450
  H        2.2806590    -2.5842610     1.0203320
  H        2.7011300     1.5279490     0.9404770
  H        2.1670460     2.0514870    -0.6632420
  H        0.1966470    -1.1794980     1.0614980
  H        1.5220510    -0.4257650     1.9581480
  H       -2.3377960     1.9283990     1.0483720
  H       -0.6569890    -1.2752080    -1.2661150
  H       -4.5402850     0.7544580     1.0784950
  H       -2.8585310    -2.4316580    -1.2759100
  H       -4.7967310    -1.4262250    -0.0878670
units angstrom
no_reorient  #important for SAPT in psi4, default
symmetry c1  #important for SAPT in psi4, default
}

set PROPERTIES_ORIGIN ["COM"]
properties('MP2/aug-cc-pvtz', properties = ['dipole'])
--------------------------------------------------------------------------

    Molecular point group: c1
  Charge       = 0
  Multiplicity = 1
  Basis Set: AUG-CC-PVTZ
    Blend: AUG-CC-PVTZ
  Basis Set: (AUG-CC-PVTZ AUX)
    Blend: AUG-CC-PVTZ-JKFIT

    Orbital Energies [Eh]
    ---------------------

    Doubly Occupied:

       1A    -20.517071     2A    -15.587907     3A    -11.351351
       4A    -11.270333     5A    -11.258296     6A    -11.246351
       7A    -11.245198     8A    -11.243900     9A    -11.242138
      10A    -11.241277    11A    -11.239894    12A    -11.233276
      13A    -11.230325    14A    -11.228034    15A     -1.369330
      16A     -1.255189    17A     -1.156942    18A     -1.086731
      19A     -1.039999    20A     -1.025295    21A     -1.019638
      22A     -0.926934    23A     -0.869657    24A     -0.845080
      25A     -0.832649    26A     -0.794803    27A     -0.749308
      28A     -0.719662    29A     -0.679352    30A     -0.651387
      31A     -0.638588    32A     -0.633256    33A     -0.625032
      34A     -0.611504    35A     -0.600419    36A     -0.592778
      37A     -0.589424    38A     -0.563840    39A     -0.552255
      40A     -0.534602    41A     -0.511125    42A     -0.504333
      43A     -0.500200    44A     -0.494580    45A     -0.481283
      46A     -0.472349    47A     -0.463712    48A     -0.421618
      49A     -0.374784    50A     -0.341659    51A     -0.336516

  @DF-RHF Final Energy:  -592.67943888057721

   => Energetics <=

    Nuclear Repulsion Energy =            876.9732330742932618
    One-Electron Energy =               -2545.3030157908733599
    Two-Electron Energy =                1075.6503438360030032
    Total Energy =                       -592.6794388805772087
  Basis Set: (AUG-CC-PVTZ AUX)
    Blend: AUG-CC-PVTZ-RI
    Molecular point group: c1

    Geometry (in Angstrom), charge = 0, multiplicity = 1:

       Center              X                  Y                   Z               Mass
    ------------   -----------------  -----------------  -----------------  -----------------
         O           -0.152543560988     2.309103857723    -0.416860775957    15.994914619570
         N            1.159423039012     0.423844157723     0.117824824043    14.003074004430
         C            3.611511039012    -1.072933842277     0.167699824043    12.000000000000
         C            3.461431039012     0.206814157723    -0.654678175957    12.000000000000
         C            2.255225039012    -1.749202842277     0.368695824043    12.000000000000
         C            2.425163039012     1.138576157723    -0.034732175957    12.000000000000
         C            1.253036039012    -0.765692842277     0.963134824043    12.000000000000
         C           -0.007772960988     1.119332157723    -0.108157175957    12.000000000000
         C           -1.286348960988     0.340844157723    -0.055646175957    12.000000000000
         C           -2.388947960988     0.924468157723     0.579501824043    12.000000000000
         C           -1.435406960988    -0.880717842277    -0.726437175957    12.000000000000
         C           -3.619784960988     0.269283157723     0.582666824043    12.000000000000
         C           -2.673644960988    -1.524570842277    -0.735870175957    12.000000000000
         C           -3.764783960988    -0.955914842277    -0.074352175957    12.000000000000
         H            4.315906039012    -1.760401842277    -0.314248175957     1.007825032230
         H            4.035009039012    -0.822605842277     1.150102824043     1.007825032230
         H            4.421840039012     0.730294157723    -0.733675175957     1.007825032230
         H            3.141031039012    -0.042256842277    -1.673528175957     1.007825032230
         H            1.870542039012    -2.108059842277    -0.594008175957     1.007825032230
         H            2.349829039012    -2.619369842277     1.029668824043     1.007825032230
         H            2.770300039012     1.492840157723     0.949813824043     1.007825032230
         H            2.236216039012     2.016378157723    -0.653905175957     1.007825032230
         H            0.265817039012    -1.214606842277     1.070834824043     1.007825032230
         H            1.591221039012    -0.460873842277     1.967484824043     1.007825032230
         H           -2.268625960988     1.893290157723     1.057708824043     1.007825032230
         H           -0.587818960988    -1.310316842277    -1.256778175957     1.007825032230
         H           -4.471114960988     0.719349157723     1.087831824043     1.007825032230
         H           -2.789360960988    -2.466766842277    -1.266573175957     1.007825032230
         H           -4.727560960988    -1.461333842277    -0.078530175957     1.007825032230

  Basis Set: AUG-CC-PVTZ
    Blend: AUG-CC-PVTZ
  Basis Set: (AUG-CC-PVTZ AUX)
    Blend: AUG-CC-PVTZ-JKFIT
	 Reference Energy          =    -592.6794388805772087 [Eh]
	 Singles Energy            =      -0.0000000000000000 [Eh]
	 Same-Spin Energy          =      -0.6435508814698432 [Eh]
	 Opposite-Spin Energy      =      -2.0536800279246057 [Eh]
	 Correlation Energy        =      -2.6972309093944489 [Eh]
	 Total Energy              =    -595.3766697899716291 [Eh]

	 ================> DF-SCS-MP2 Energies <==================
	-----------------------------------------------------------
	 SCS Same-Spin Scale       =       0.3333333333333333 [-]
	 SCS Opposite-Spin Scale   =       1.2000000000000000 [-]
	 SCS Same-Spin Energy      =      -0.2145169604899477 [Eh]
	 SCS Opposite-Spin Energy  =      -2.4644160335095266 [Eh]
	 SCS Correlation Energy    =      -2.6789329939994744 [Eh]
	 SCS Total Energy          =    -595.3583718745767328 [Eh]
	-----------------------------------------------------------

  Dipole Moment: [D]
     X:     1.5505      Y:    -3.3130      Z:     1.1653     Total:     3.8391

*** Psi4 exiting successfully. Buy a developer a beer!
