                               Psi4 1.3.2 release

  ==> Input File <==

--------------------------------------------------------------------------
#psi4
#
memory 32 gb

molecule  {
0 1
  O       -0.0072700     2.3560466    -0.4057699
  N        1.0902530     0.4589530     0.1084880
  C        3.5423410    -1.0378250     0.1583630
  C        3.3922610     0.2419230    -0.6640150
  C        2.1860550    -1.7140940     0.3593590
  C        2.3559930     1.1736850    -0.0440690
  C        1.1838660    -0.7305840     0.9537980
  C       -0.0769430     1.1544410    -0.1174940
  C       -1.3555190     0.3759530    -0.0649830
  C       -2.4581180     0.9595770     0.5701650
  C       -1.5045770    -0.8456090    -0.7357740
  C       -3.6889550     0.3043920     0.5733300
  C       -2.7428150    -1.4894620    -0.7452070
  C       -3.8339540    -0.9208060    -0.0836890
  H        4.2467360    -1.7252930    -0.3235850
  H        3.9658390    -0.7874970     1.1407660
  H        4.3526700     0.7654030    -0.7430120
  H        3.0718610    -0.0071480    -1.6828650
  H        1.8013720    -2.0729510    -0.6033450
  H        2.2806590    -2.5842610     1.0203320
  H        2.7011300     1.5279490     0.9404770
  H        2.1670460     2.0514870    -0.6632420
  H        0.1966470    -1.1794980     1.0614980
  H        1.5220510    -0.4257650     1.9581480
  H       -2.3377960     1.9283990     1.0483720
  H       -0.6569890    -1.2752080    -1.2661150
  H       -4.5402850     0.7544580     1.0784950
  H       -2.8585310    -2.4316580    -1.2759100
  H       -4.7967310    -1.4262250    -0.0878670
units angstrom
no_reorient  #important for SAPT in psi4, default
symmetry c1  #important for SAPT in psi4, default
}

set PROPERTIES_ORIGIN ["COM"]
properties('MP2/aug-cc-pvtz', properties = ['dipole'])
--------------------------------------------------------------------------

    Molecular point group: c1
  Charge       = 0
  Multiplicity = 1
  Basis Set: AUG-CC-PVTZ
    Blend: AUG-CC-PVTZ
  Basis Set: (AUG-CC-PVTZ AUX)
    Blend: AUG-CC-PVTZ-JKFIT

    Orbital Energies [Eh]
    ---------------------

    Doubly Occupied:

       1A    -20.512975     2A    -15.577458     3A    -11.349869
       4A    -11.264842     5A    -11.254292     6A    -11.252808
       7A    -11.250334     8A    -11.249806     9A    -11.248525
      10A    -11.247555    11A    -11.245507    12A    -11.229326
      13A    -11.226198    14A    -11.222932    15A     -1.369930
      16A     -1.243039    17A     -1.163712    18A     -1.081866
      19A     -1.041864    20A     -1.026585    21A     -1.023335
      22A     -0.923221    23A     -0.866733    24A     -0.846378
      25A     -0.837536    26A     -0.792331    27A     -0.746922
      28A     -0.720093    29A     -0.682368    30A     -0.651804
      31A     -0.638925    32A     -0.629894    33A     -0.624962
      34A     -0.610044    35A     -0.601452    36A     -0.595213
      37A     -0.587461    38A     -0.558342    39A     -0.549955
      40A     -0.533888    41A     -0.514498    42A     -0.505461
      43A     -0.501409    44A     -0.495794    45A     -0.476685
      46A     -0.466518    47A     -0.458495    48A     -0.422049
      49A     -0.366070    50A     -0.347000    51A     -0.345621

  @DF-RHF Final Energy:  -592.68129240282894

   => Energetics <=

    Nuclear Repulsion Energy =            877.2524559297463611
    One-Electron Energy =               -2545.9077363348933432
    Two-Electron Energy =                1075.9739880023182650
    Total Energy =                       -592.6812924028288307
  Basis Set: (AUG-CC-PVTZ AUX)
    Blend: AUG-CC-PVTZ-RI
    Molecular point group: c1

    Geometry (in Angstrom), charge = 0, multiplicity = 1:

       Center              X                  Y                   Z               Mass
    ------------   -----------------  -----------------  -----------------  -----------------
         O            0.043762924193     2.319936875426    -0.398160800824    15.994914619570
         N            1.141285924193     0.422843275426     0.116097099176    14.003074004430
         C            3.593373924193    -1.073934724574     0.165972099176    12.000000000000
         C            3.443293924193     0.205813275426    -0.656405900824    12.000000000000
         C            2.237087924193    -1.750203724574     0.366968099176    12.000000000000
         C            2.407025924193     1.137575275426    -0.036459900824    12.000000000000
         C            1.234898924193    -0.766693724574     0.961407099176    12.000000000000
         C           -0.025910075807     1.118331275426    -0.109884900824    12.000000000000
         C           -1.304486075807     0.339843275426    -0.057373900824    12.000000000000
         C           -2.407085075807     0.923467275426     0.577774099176    12.000000000000
         C           -1.453544075807    -0.881718724574    -0.728164900824    12.000000000000
         C           -3.637922075807     0.268282275426     0.580939099176    12.000000000000
         C           -2.691782075807    -1.525571724574    -0.737597900824    12.000000000000
         C           -3.782921075807    -0.956915724574    -0.076079900824    12.000000000000
         H            4.297768924193    -1.761402724574    -0.315975900824     1.007825032230
         H            4.016871924193    -0.823606724574     1.148375099176     1.007825032230
         H            4.403702924193     0.729293275426    -0.735402900824     1.007825032230
         H            3.122893924193    -0.043257724574    -1.675255900824     1.007825032230
         H            1.852404924193    -2.109060724574    -0.595735900824     1.007825032230
         H            2.331691924193    -2.620370724574     1.027941099176     1.007825032230
         H            2.752162924193     1.491839275426     0.948086099176     1.007825032230
         H            2.218078924193     2.015377275426    -0.655632900824     1.007825032230
         H            0.247679924193    -1.215607724574     1.069107099176     1.007825032230
         H            1.573083924193    -0.461874724574     1.965757099176     1.007825032230
         H           -2.286763075807     1.892289275426     1.055981099176     1.007825032230
         H           -0.605956075807    -1.311317724574    -1.258505900824     1.007825032230
         H           -4.489252075807     0.718348275426     1.086104099176     1.007825032230
         H           -2.807498075807    -2.467767724574    -1.268300900824     1.007825032230
         H           -4.745698075807    -1.462334724574    -0.080257900824     1.007825032230

  Basis Set: AUG-CC-PVTZ
    Blend: AUG-CC-PVTZ
  Basis Set: (AUG-CC-PVTZ AUX)
    Blend: AUG-CC-PVTZ-JKFIT
	 Reference Energy          =    -592.6812924028289444 [Eh]
	 Singles Energy            =      -0.0000000000000000 [Eh]
	 Same-Spin Energy          =      -0.6436144261909147 [Eh]
	 Opposite-Spin Energy      =      -2.0534026384384223 [Eh]
	 Correlation Energy        =      -2.6970170646293372 [Eh]
	 Total Energy              =    -595.3783094674582799 [Eh]

	 ================> DF-SCS-MP2 Energies <==================
	-----------------------------------------------------------
	 SCS Same-Spin Scale       =       0.3333333333333333 [-]
	 SCS Opposite-Spin Scale   =       1.2000000000000000 [-]
	 SCS Same-Spin Energy      =      -0.2145381420636382 [Eh]
	 SCS Opposite-Spin Energy  =      -2.4640831661261067 [Eh]
	 SCS Correlation Energy    =      -2.6786213081897450 [Eh]
	 SCS Total Energy          =    -595.3599137110186348 [Eh]
	-----------------------------------------------------------

  Dipole Moment: [D]
     X:     0.6874      Y:    -3.4205      Z:     1.0896     Total:     3.6551

*** Psi4 exiting successfully. Buy a developer a beer!
