                               Psi4 1.3.2 release

  ==> Input File <==

--------------------------------------------------------------------------
#psi4
#
memory 32 gb

molecule  {
0 1
  O       -0.0931590     2.3556990    -0.4150330
  N        1.0902530     0.4589530     0.1084880
  C        3.5423410    -1.0378250     0.1583630
  C        3.3922610     0.2419230    -0.6640150
  C        2.1860550    -1.7140940     0.3593590
  C        2.3559930     1.1736850    -0.0440690
  C        1.1838660    -0.7305840     0.9537980
  C       -0.1005504     1.1932079    -0.0915470
  C       -1.3555190     0.3759530    -0.0649830
  C       -2.4581180     0.9595770     0.5701650
  C       -1.5045770    -0.8456090    -0.7357740
  C       -3.6889550     0.3043920     0.5733300
  C       -2.7428150    -1.4894620    -0.7452070
  C       -3.8339540    -0.9208060    -0.0836890
  H        4.2467360    -1.7252930    -0.3235850
  H        3.9658390    -0.7874970     1.1407660
  H        4.3526700     0.7654030    -0.7430120
  H        3.0718610    -0.0071480    -1.6828650
  H        1.8013720    -2.0729510    -0.6033450
  H        2.2806590    -2.5842610     1.0203320
  H        2.7011300     1.5279490     0.9404770
  H        2.1670460     2.0514870    -0.6632420
  H        0.1966470    -1.1794980     1.0614980
  H        1.5220510    -0.4257650     1.9581480
  H       -2.3377960     1.9283990     1.0483720
  H       -0.6569890    -1.2752080    -1.2661150
  H       -4.5402850     0.7544580     1.0784950
  H       -2.8585310    -2.4316580    -1.2759100
  H       -4.7967310    -1.4262250    -0.0878670
units angstrom
no_reorient  #important for SAPT in psi4, default
symmetry c1  #important for SAPT in psi4, default
}

set PROPERTIES_ORIGIN ["COM"]
properties('MP2/aug-cc-pvtz', properties = ['dipole'])
--------------------------------------------------------------------------

    Molecular point group: c1
  Charge       = 0
  Multiplicity = 1
  Basis Set: AUG-CC-PVTZ
    Blend: AUG-CC-PVTZ
  Basis Set: (AUG-CC-PVTZ AUX)
    Blend: AUG-CC-PVTZ-JKFIT

    Orbital Energies [Eh]
    ---------------------

    Doubly Occupied:

       1A    -20.523687     2A    -15.575216     3A    -11.351292
       4A    -11.263228     5A    -11.251691     6A    -11.250404
       7A    -11.250271     8A    -11.248358     9A    -11.246146
      10A    -11.245880    11A    -11.243702    12A    -11.228480
      13A    -11.225758    14A    -11.222789    15A     -1.389986
      16A     -1.241583    17A     -1.161737    18A     -1.079212
      19A     -1.039769    20A     -1.025377    21A     -1.021949
      22A     -0.917560    23A     -0.864711    24A     -0.846066
      25A     -0.835555    26A     -0.789507    27A     -0.746704
      28A     -0.718330    29A     -0.682776    30A     -0.652788
      31A     -0.638023    32A     -0.628425    33A     -0.626866
      34A     -0.610766    35A     -0.602115    36A     -0.593778
      37A     -0.588714    38A     -0.559384    39A     -0.551221
      40A     -0.536995    41A     -0.515895    42A     -0.504023
      43A     -0.501194    44A     -0.496424    45A     -0.478635
      46A     -0.467276    47A     -0.457950    48A     -0.425338
      49A     -0.367140    50A     -0.345334    51A     -0.343433

  @DF-RHF Final Energy:  -592.68191140382487

   => Energetics <=

    Nuclear Repulsion Energy =            876.7817748087638847
    One-Electron Energy =               -2544.9684966724144033
    Two-Electron Energy =                1075.5048104598256486
    Total Energy =                       -592.6819114038248699
  Basis Set: (AUG-CC-PVTZ AUX)
    Blend: AUG-CC-PVTZ-RI
    Molecular point group: c1

    Geometry (in Angstrom), charge = 0, multiplicity = 1:

       Center              X                  Y                   Z               Mass
    ------------   -----------------  -----------------  -----------------  -----------------
         O           -0.033363826216     2.317158785604    -0.408286874106    15.994914619570
         N            1.150048173784     0.420412785604     0.115234125894    14.003074004430
         C            3.602136173784    -1.076365214396     0.165109125894    12.000000000000
         C            3.452056173784     0.203382785604    -0.657268874106    12.000000000000
         C            2.245850173784    -1.752634214396     0.366105125894    12.000000000000
         C            2.415788173784     1.135144785604    -0.037322874106    12.000000000000
         C            1.243661173784    -0.769124214396     0.960544125894    12.000000000000
         C           -0.040755226216     1.154667685604    -0.084800874106    12.000000000000
         C           -1.295723826216     0.337412785604    -0.058236874106    12.000000000000
         C           -2.398322826216     0.921036785604     0.576911125894    12.000000000000
         C           -1.444781826216    -0.884149214396    -0.729027874106    12.000000000000
         C           -3.629159826216     0.265851785604     0.580076125894    12.000000000000
         C           -2.683019826216    -1.528002214396    -0.738460874106    12.000000000000
         C           -3.774158826216    -0.959346214396    -0.076942874106    12.000000000000
         H            4.306531173784    -1.763833214396    -0.316838874106     1.007825032230
         H            4.025634173784    -0.826037214396     1.147512125894     1.007825032230
         H            4.412465173784     0.726862785604    -0.736265874106     1.007825032230
         H            3.131656173784    -0.045688214396    -1.676118874106     1.007825032230
         H            1.861167173784    -2.111491214396    -0.596598874106     1.007825032230
         H            2.340454173784    -2.622801214396     1.027078125894     1.007825032230
         H            2.760925173784     1.489408785604     0.947223125894     1.007825032230
         H            2.226841173784     2.012946785604    -0.656495874106     1.007825032230
         H            0.256442173784    -1.218038214396     1.068244125894     1.007825032230
         H            1.581846173784    -0.464305214396     1.964894125894     1.007825032230
         H           -2.278000826216     1.889858785604     1.055118125894     1.007825032230
         H           -0.597193826216    -1.313748214396    -1.259368874106     1.007825032230
         H           -4.480489826216     0.715917785604     1.085241125894     1.007825032230
         H           -2.798735826216    -2.470198214396    -1.269163874106     1.007825032230
         H           -4.736935826216    -1.464765214396    -0.081120874106     1.007825032230

  Basis Set: AUG-CC-PVTZ
    Blend: AUG-CC-PVTZ
  Basis Set: (AUG-CC-PVTZ AUX)
    Blend: AUG-CC-PVTZ-JKFIT
	 Reference Energy          =    -592.6819114038248699 [Eh]
	 Singles Energy            =      -0.0000000000000000 [Eh]
	 Same-Spin Energy          =      -0.6430034030320921 [Eh]
	 Opposite-Spin Energy      =      -2.0524775493334642 [Eh]
	 Correlation Energy        =      -2.6954809523655561 [Eh]
	 Total Energy              =    -595.3773923561903985 [Eh]

	 ================> DF-SCS-MP2 Energies <==================
	-----------------------------------------------------------
	 SCS Same-Spin Scale       =       0.3333333333333333 [-]
	 SCS Opposite-Spin Scale   =       1.2000000000000000 [-]
	 SCS Same-Spin Energy      =      -0.2143344676773640 [Eh]
	 SCS Opposite-Spin Energy  =      -2.4629730592001571 [Eh]
	 SCS Correlation Energy    =      -2.6773075268775210 [Eh]
	 SCS Total Energy          =    -595.3592189307023546 [Eh]
	-----------------------------------------------------------

  Dipole Moment: [D]
     X:     0.7542      Y:    -3.1391      Z:     1.0525     Total:     3.3957

*** Psi4 exiting successfully. Buy a developer a beer!
