                               Psi4 1.3.2 release

  ==> Input File <==

--------------------------------------------------------------------------
#psi4
#
memory 32 gb

molecule  {
0 1
  O       -0.0068793     2.3548037    -0.4108088
  N        1.0902530     0.4589530     0.1084880
  C        3.5423410    -1.0378250     0.1583630
  C        3.3922610     0.2419230    -0.6640150
  C        2.1860550    -1.7140940     0.3593590
  C        2.3559930     1.1736850    -0.0440690
  C        1.1838660    -0.7305840     0.9537980
  C       -0.0769430     1.1544410    -0.1174940
  C       -1.3555190     0.3759530    -0.0649830
  C       -2.4581180     0.9595770     0.5701650
  C       -1.5045770    -0.8456090    -0.7357740
  C       -3.6889550     0.3043920     0.5733300
  C       -2.7428150    -1.4894620    -0.7452070
  C       -3.8339540    -0.9208060    -0.0836890
  H        4.2467360    -1.7252930    -0.3235850
  H        3.9658390    -0.7874970     1.1407660
  H        4.3526700     0.7654030    -0.7430120
  H        3.0718610    -0.0071480    -1.6828650
  H        1.8013720    -2.0729510    -0.6033450
  H        2.2806590    -2.5842610     1.0203320
  H        2.7011300     1.5279490     0.9404770
  H        2.1670460     2.0514870    -0.6632420
  H        0.1966470    -1.1794980     1.0614980
  H        1.5220510    -0.4257650     1.9581480
  H       -2.3377960     1.9283990     1.0483720
  H       -0.6569890    -1.2752080    -1.2661150
  H       -4.5402850     0.7544580     1.0784950
  H       -2.8585310    -2.4316580    -1.2759100
  H       -4.7967310    -1.4262250    -0.0878670
units angstrom
no_reorient  #important for SAPT in psi4, default
symmetry c1  #important for SAPT in psi4, default
}

set PROPERTIES_ORIGIN ["COM"]
properties('MP2/aug-cc-pvtz', properties = ['dipole'])
--------------------------------------------------------------------------

    Molecular point group: c1
  Charge       = 0
  Multiplicity = 1
  Basis Set: AUG-CC-PVTZ
    Blend: AUG-CC-PVTZ
  Basis Set: (AUG-CC-PVTZ AUX)
    Blend: AUG-CC-PVTZ-JKFIT

    Orbital Energies [Eh]
    ---------------------

    Doubly Occupied:

       1A    -20.512958     2A    -15.577513     3A    -11.349870
       4A    -11.264837     5A    -11.254307     6A    -11.252801
       7A    -11.250311     8A    -11.249800     9A    -11.248523
      10A    -11.247554    11A    -11.245508    12A    -11.229338
      13A    -11.226202    14A    -11.222936    15A     -1.369934
      16A     -1.243056    17A     -1.163707    18A     -1.081872
      19A     -1.041865    20A     -1.026586    21A     -1.023333
      22A     -0.923225    23A     -0.866740    24A     -0.846379
      25A     -0.837535    26A     -0.792337    27A     -0.746932
      28A     -0.720092    29A     -0.682375    30A     -0.651810
      31A     -0.638939    32A     -0.629894    33A     -0.624952
      34A     -0.610042    35A     -0.601443    36A     -0.595218
      37A     -0.587480    38A     -0.558340    39A     -0.549920
      40A     -0.533891    41A     -0.514526    42A     -0.505471
      43A     -0.501415    44A     -0.495810    45A     -0.476679
      46A     -0.466512    47A     -0.458501    48A     -0.422022
      49A     -0.366102    50A     -0.346996    51A     -0.345598

  @DF-RHF Final Energy:  -592.68127549908741

   => Energetics <=

    Nuclear Repulsion Energy =            877.2548972205879636
    One-Electron Energy =               -2545.9123745674532984
    Two-Electron Energy =                1075.9762018477779293
    Total Energy =                       -592.6812754990874055
  Basis Set: (AUG-CC-PVTZ AUX)
    Blend: AUG-CC-PVTZ-RI
    Molecular point group: c1

    Geometry (in Angstrom), charge = 0, multiplicity = 1:

       Center              X                  Y                   Z               Mass
    ------------   -----------------  -----------------  -----------------  -----------------
         O            0.044120579744     2.318799096866    -0.402773522995    15.994914619570
         N            1.141252879744     0.422948396866     0.116523277005    14.003074004430
         C            3.593340879744    -1.073829603134     0.166398277005    12.000000000000
         C            3.443260879744     0.205918396866    -0.655979722995    12.000000000000
         C            2.237054879744    -1.750098603134     0.367394277005    12.000000000000
         C            2.406992879744     1.137680396866    -0.036033722995    12.000000000000
         C            1.234865879744    -0.766588603134     0.961833277005    12.000000000000
         C           -0.025943120256     1.118436396866    -0.109458722995    12.000000000000
         C           -1.304519120256     0.339948396866    -0.056947722995    12.000000000000
         C           -2.407118120256     0.923572396866     0.578200277005    12.000000000000
         C           -1.453577120256    -0.881613603134    -0.727738722995    12.000000000000
         C           -3.637955120256     0.268387396866     0.581365277005    12.000000000000
         C           -2.691815120256    -1.525466603134    -0.737171722995    12.000000000000
         C           -3.782954120256    -0.956810603134    -0.075653722995    12.000000000000
         H            4.297735879744    -1.761297603134    -0.315549722995     1.007825032230
         H            4.016838879744    -0.823501603134     1.148801277005     1.007825032230
         H            4.403669879744     0.729398396866    -0.734976722995     1.007825032230
         H            3.122860879744    -0.043152603134    -1.674829722995     1.007825032230
         H            1.852371879744    -2.108955603134    -0.595309722995     1.007825032230
         H            2.331658879744    -2.620265603134     1.028367277005     1.007825032230
         H            2.752129879744     1.491944396866     0.948512277005     1.007825032230
         H            2.218045879744     2.015482396866    -0.655206722995     1.007825032230
         H            0.247646879744    -1.215502603134     1.069533277005     1.007825032230
         H            1.573050879744    -0.461769603134     1.966183277005     1.007825032230
         H           -2.286796120256     1.892394396866     1.056407277005     1.007825032230
         H           -0.605989120256    -1.311212603134    -1.258079722995     1.007825032230
         H           -4.489285120256     0.718453396866     1.086530277005     1.007825032230
         H           -2.807531120256    -2.467662603134    -1.267874722995     1.007825032230
         H           -4.745731120256    -1.462229603134    -0.079831722995     1.007825032230

  Basis Set: AUG-CC-PVTZ
    Blend: AUG-CC-PVTZ
  Basis Set: (AUG-CC-PVTZ AUX)
    Blend: AUG-CC-PVTZ-JKFIT
	 Reference Energy          =    -592.6812754990874055 [Eh]
	 Singles Energy            =      -0.0000000000000000 [Eh]
	 Same-Spin Energy          =      -0.6436189569687344 [Eh]
	 Opposite-Spin Energy      =      -2.0534112201931189 [Eh]
	 Correlation Energy        =      -2.6970301771618534 [Eh]
	 Total Energy              =    -595.3783056762492834 [Eh]

	 ================> DF-SCS-MP2 Energies <==================
	-----------------------------------------------------------
	 SCS Same-Spin Scale       =       0.3333333333333333 [-]
	 SCS Opposite-Spin Scale   =       1.2000000000000000 [-]
	 SCS Same-Spin Energy      =      -0.2145396523229114 [Eh]
	 SCS Opposite-Spin Energy  =      -2.4640934642317425 [Eh]
	 SCS Correlation Energy    =      -2.6786331165546540 [Eh]
	 SCS Total Energy          =    -595.3599086156420981 [Eh]
	-----------------------------------------------------------

  Dipole Moment: [D]
     X:     0.6890      Y:    -3.4185      Z:     1.0974     Total:     3.6559

*** Psi4 exiting successfully. Buy a developer a beer!
