                               Psi4 1.3.2 release

  ==> Input File <==

--------------------------------------------------------------------------
#psi4
#
memory 32 gb

molecule  {
0 1
  O       -0.0931590     2.3556990    -0.4150330
  N        1.0902530     0.4589530     0.1084880
  C        3.5423410    -1.0378250     0.1583630
  C        3.3922610     0.2419230    -0.6640150
  C        2.1860550    -1.7140940     0.3593590
  C        2.4179516     1.0668628     0.0462357
  C        1.1838660    -0.7305840     0.9537980
  C       -0.0769430     1.1544410    -0.1174940
  C       -1.3555190     0.3759530    -0.0649830
  C       -2.4581180     0.9595770     0.5701650
  C       -1.5045770    -0.8456090    -0.7357740
  C       -3.6889550     0.3043920     0.5733300
  C       -2.7428150    -1.4894620    -0.7452070
  C       -3.8339540    -0.9208060    -0.0836890
  H        4.2467360    -1.7252930    -0.3235850
  H        3.9658390    -0.7874970     1.1407660
  H        4.3526700     0.7654030    -0.7430120
  H        3.0718610    -0.0071480    -1.6828650
  H        1.8013720    -2.0729510    -0.6033450
  H        2.2806590    -2.5842610     1.0203320
  H        2.7011300     1.5279490     0.9404770
  H        2.1670460     2.0514870    -0.6632420
  H        0.1966470    -1.1794980     1.0614980
  H        1.5220510    -0.4257650     1.9581480
  H       -2.3377960     1.9283990     1.0483720
  H       -0.6569890    -1.2752080    -1.2661150
  H       -4.5402850     0.7544580     1.0784950
  H       -2.8585310    -2.4316580    -1.2759100
  H       -4.7967310    -1.4262250    -0.0878670
units angstrom
no_reorient  #important for SAPT in psi4, default
symmetry c1  #important for SAPT in psi4, default
}

set PROPERTIES_ORIGIN ["COM"]
properties('MP2/aug-cc-pvtz', properties = ['dipole'])
--------------------------------------------------------------------------

    Molecular point group: c1
  Charge       = 0
  Multiplicity = 1
  Basis Set: AUG-CC-PVTZ
    Blend: AUG-CC-PVTZ
  Basis Set: (AUG-CC-PVTZ AUX)
    Blend: AUG-CC-PVTZ-JKFIT

    Orbital Energies [Eh]
    ---------------------

    Doubly Occupied:

       1A    -20.515279     2A    -15.582080     3A    -11.352663
       4A    -11.264551     5A    -11.256897     6A    -11.252109
       7A    -11.250548     8A    -11.248301     9A    -11.246369
      10A    -11.245793    11A    -11.243799    12A    -11.230781
      13A    -11.226077    14A    -11.223967    15A     -1.368511
      16A     -1.250962    17A     -1.161706    18A     -1.090468
      19A     -1.040036    20A     -1.028935    21A     -1.023678
      22A     -0.926942    23A     -0.866413    24A     -0.843991
      25A     -0.835422    26A     -0.798211    27A     -0.751769
      28A     -0.721023    29A     -0.680639    30A     -0.652776
      31A     -0.641947    32A     -0.631456    33A     -0.622981
      34A     -0.613386    35A     -0.601856    36A     -0.594915
      37A     -0.590193    38A     -0.557155    39A     -0.547740
      40A     -0.531904    41A     -0.517111    42A     -0.507486
      43A     -0.503397    44A     -0.496524    45A     -0.484177
      46A     -0.468173    47A     -0.435098    48A     -0.416134
      49A     -0.373823    50A     -0.345250    51A     -0.342820

  @DF-RHF Final Energy:  -592.65579734489415

   => Energetics <=

    Nuclear Repulsion Energy =            877.8266885108071165
    One-Electron Energy =               -2546.9565282056933029
    Two-Electron Energy =                1076.4740423499920325
    Total Energy =                       -592.6557973448941539
  Basis Set: (AUG-CC-PVTZ AUX)
    Blend: AUG-CC-PVTZ-RI
    Molecular point group: c1

    Geometry (in Angstrom), charge = 0, multiplicity = 1:

       Center              X                  Y                   Z               Mass
    ------------   -----------------  -----------------  -----------------  -----------------
         O           -0.038793274029     2.326396899113    -0.412370584616    15.994914619570
         N            1.144618725971     0.429650899113     0.111150415384    14.003074004430
         C            3.596706725971    -1.067127100887     0.161025415384    12.000000000000
         C            3.446626725971     0.212620899113    -0.661352584616    12.000000000000
         C            2.240420725971    -1.743396100887     0.362021415384    12.000000000000
         C            2.472317325971     1.037560699113     0.048898115384    12.000000000000
         C            1.238231725971    -0.759886100887     0.956460415384    12.000000000000
         C           -0.022577274029     1.125138899113    -0.114831584616    12.000000000000
         C           -1.301153274029     0.346650899113    -0.062320584616    12.000000000000
         C           -2.403752274029     0.930274899113     0.572827415384    12.000000000000
         C           -1.450211274029    -0.874911100887    -0.733111584616    12.000000000000
         C           -3.634589274029     0.275089899113     0.575992415384    12.000000000000
         C           -2.688449274029    -1.518764100887    -0.742544584616    12.000000000000
         C           -3.779588274029    -0.950108100887    -0.081026584616    12.000000000000
         H            4.301101725971    -1.754595100887    -0.320922584616     1.007825032230
         H            4.020204725971    -0.816799100887     1.143428415384     1.007825032230
         H            4.407035725971     0.736100899113    -0.740349584616     1.007825032230
         H            3.126226725971    -0.036450100887    -1.680202584616     1.007825032230
         H            1.855737725971    -2.102253100887    -0.600682584616     1.007825032230
         H            2.335024725971    -2.613563100887     1.022994415384     1.007825032230
         H            2.755495725971     1.498646899113     0.943139415384     1.007825032230
         H            2.221411725971     2.022184899113    -0.660579584616     1.007825032230
         H            0.251012725971    -1.208800100887     1.064160415384     1.007825032230
         H            1.576416725971    -0.455067100887     1.960810415384     1.007825032230
         H           -2.283430274029     1.899096899113     1.051034415384     1.007825032230
         H           -0.602623274029    -1.304510100887    -1.263452584616     1.007825032230
         H           -4.485919274029     0.725155899113     1.081157415384     1.007825032230
         H           -2.804165274029    -2.460960100887    -1.273247584616     1.007825032230
         H           -4.742365274029    -1.455527100887    -0.085204584616     1.007825032230

  Basis Set: AUG-CC-PVTZ
    Blend: AUG-CC-PVTZ
  Basis Set: (AUG-CC-PVTZ AUX)
    Blend: AUG-CC-PVTZ-JKFIT
	 Reference Energy          =    -592.6557973448941539 [Eh]
	 Singles Energy            =      -0.0000000000000000 [Eh]
	 Same-Spin Energy          =      -0.6451724881739698 [Eh]
	 Opposite-Spin Energy      =      -2.0562604352324430 [Eh]
	 Correlation Energy        =      -2.7014329234064127 [Eh]
	 Total Energy              =    -595.3572302683005546 [Eh]

	 ================> DF-SCS-MP2 Energies <==================
	-----------------------------------------------------------
	 SCS Same-Spin Scale       =       0.3333333333333333 [-]
	 SCS Opposite-Spin Scale   =       1.2000000000000000 [-]
	 SCS Same-Spin Energy      =      -0.2150574960579899 [Eh]
	 SCS Opposite-Spin Energy  =      -2.4675125222789314 [Eh]
	 SCS Correlation Energy    =      -2.6825700183369214 [Eh]
	 SCS Total Energy          =    -595.3383673632311002 [Eh]
	-----------------------------------------------------------

  Dipole Moment: [D]
     X:     1.0003      Y:    -3.3983      Z:     1.1667     Total:     3.7297

*** Psi4 exiting successfully. Buy a developer a beer!
