                               Psi4 1.3.2 release

  ==> Input File <==

--------------------------------------------------------------------------
#psi4
#
memory 32 gb

molecule  {
0 1
  O       -0.0931590     2.3556990    -0.4150330
  N        1.0902530     0.4589530     0.1084880
  C        3.5423410    -1.0378250     0.1583630
  C        3.3922610     0.2419230    -0.6640150
  C        2.1860550    -1.7140940     0.3593590
  C        2.3559930     1.1736850    -0.0440690
  C        1.1838660    -0.7305840     0.9537980
  C       -0.0769430     1.1544410    -0.1174940
  C       -1.2701583     0.4279267    -0.0684888
  C       -2.4581180     0.9595770     0.5701650
  C       -1.5045770    -0.8456090    -0.7357740
  C       -3.6889550     0.3043920     0.5733300
  C       -2.7428150    -1.4894620    -0.7452070
  C       -3.8339540    -0.9208060    -0.0836890
  H        4.2467360    -1.7252930    -0.3235850
  H        3.9658390    -0.7874970     1.1407660
  H        4.3526700     0.7654030    -0.7430120
  H        3.0718610    -0.0071480    -1.6828650
  H        1.8013720    -2.0729510    -0.6033450
  H        2.2806590    -2.5842610     1.0203320
  H        2.7011300     1.5279490     0.9404770
  H        2.1670460     2.0514870    -0.6632420
  H        0.1966470    -1.1794980     1.0614980
  H        1.5220510    -0.4257650     1.9581480
  H       -2.3377960     1.9283990     1.0483720
  H       -0.6569890    -1.2752080    -1.2661150
  H       -4.5402850     0.7544580     1.0784950
  H       -2.8585310    -2.4316580    -1.2759100
  H       -4.7967310    -1.4262250    -0.0878670
units angstrom
no_reorient  #important for SAPT in psi4, default
symmetry c1  #important for SAPT in psi4, default
}

set PROPERTIES_ORIGIN ["COM"]
properties('MP2/aug-cc-pvtz', properties = ['dipole'])
--------------------------------------------------------------------------

    Molecular point group: c1
  Charge       = 0
  Multiplicity = 1
  Basis Set: AUG-CC-PVTZ
    Blend: AUG-CC-PVTZ
  Basis Set: (AUG-CC-PVTZ AUX)
    Blend: AUG-CC-PVTZ-JKFIT

    Orbital Energies [Eh]
    ---------------------

    Doubly Occupied:

       1A    -20.512630     2A    -15.580547     3A    -11.343906
       4A    -11.266458     5A    -11.259762     6A    -11.254829
       7A    -11.253586     8A    -11.252654     9A    -11.252490
      10A    -11.246961    11A    -11.244803    12A    -11.230506
      13A    -11.227453    14A    -11.224545    15A     -1.371435
      16A     -1.248234    17A     -1.154206    18A     -1.085450
      19A     -1.044889    20A     -1.025446    21A     -1.020261
      22A     -0.928931    23A     -0.873044    24A     -0.852124
      25A     -0.831066    26A     -0.791747    27A     -0.749237
      28A     -0.721791    29A     -0.688409    30A     -0.653334
      31A     -0.639061    32A     -0.630248    33A     -0.624468
      34A     -0.607827    35A     -0.601365    36A     -0.591399
      37A     -0.588233    38A     -0.560288    39A     -0.550765
      40A     -0.535771    41A     -0.520356    42A     -0.501649
      43A     -0.497393    44A     -0.484439    45A     -0.477859
      46A     -0.468535    47A     -0.460195    48A     -0.427815
      49A     -0.369107    50A     -0.344992    51A     -0.336705

  @DF-RHF Final Energy:  -592.66659890224162

   => Energetics <=

    Nuclear Repulsion Energy =            877.3582338567340457
    One-Electron Energy =               -2546.0312505717474778
    Two-Electron Energy =                1076.0064178127718151
    Total Energy =                       -592.6665989022417307
  Basis Set: (AUG-CC-PVTZ AUX)
    Blend: AUG-CC-PVTZ-RI
    Molecular point group: c1

    Geometry (in Angstrom), charge = 0, multiplicity = 1:

       Center              X                  Y                   Z               Mass
    ------------   -----------------  -----------------  -----------------  -----------------
         O           -0.040278215251     2.316320770137    -0.406417995807    15.994914619570
         N            1.143133784749     0.419574770137     0.117103004193    14.003074004430
         C            3.595221784749    -1.077203229863     0.166978004193    12.000000000000
         C            3.445141784749     0.202544770137    -0.655399995807    12.000000000000
         C            2.238935784749    -1.753472229863     0.367974004193    12.000000000000
         C            2.408873784749     1.134306770137    -0.035453995807    12.000000000000
         C            1.236746784749    -0.769962229863     0.962413004193    12.000000000000
         C           -0.024062215251     1.115062770137    -0.108878995807    12.000000000000
         C           -1.217277515251     0.388548470137    -0.059873795807    12.000000000000
         C           -2.405237215251     0.920198770137     0.578780004193    12.000000000000
         C           -1.451696215251    -0.884987229863    -0.727158995807    12.000000000000
         C           -3.636074215251     0.265013770137     0.581945004193    12.000000000000
         C           -2.689934215251    -1.528840229863    -0.736591995807    12.000000000000
         C           -3.781073215251    -0.960184229863    -0.075073995807    12.000000000000
         H            4.299616784749    -1.764671229863    -0.314969995807     1.007825032230
         H            4.018719784749    -0.826875229863     1.149381004193     1.007825032230
         H            4.405550784749     0.726024770137    -0.734396995807     1.007825032230
         H            3.124741784749    -0.046526229863    -1.674249995807     1.007825032230
         H            1.854252784749    -2.112329229863    -0.594729995807     1.007825032230
         H            2.333539784749    -2.623639229863     1.028947004193     1.007825032230
         H            2.754010784749     1.488570770137     0.949092004193     1.007825032230
         H            2.219926784749     2.012108770137    -0.654626995807     1.007825032230
         H            0.249527784749    -1.218876229863     1.070113004193     1.007825032230
         H            1.574931784749    -0.465143229863     1.966763004193     1.007825032230
         H           -2.284915215251     1.889020770137     1.056987004193     1.007825032230
         H           -0.604108215251    -1.314586229863    -1.257499995807     1.007825032230
         H           -4.487404215251     0.715079770137     1.087110004193     1.007825032230
         H           -2.805650215251    -2.471036229863    -1.267294995807     1.007825032230
         H           -4.743850215251    -1.465603229863    -0.079251995807     1.007825032230

  Basis Set: AUG-CC-PVTZ
    Blend: AUG-CC-PVTZ
  Basis Set: (AUG-CC-PVTZ AUX)
    Blend: AUG-CC-PVTZ-JKFIT
	 Reference Energy          =    -592.6665989022416170 [Eh]
	 Singles Energy            =      -0.0000000000000000 [Eh]
	 Same-Spin Energy          =      -0.6450250683311609 [Eh]
	 Opposite-Spin Energy      =      -2.0561988842500196 [Eh]
	 Correlation Energy        =      -2.7012239525811808 [Eh]
	 Total Energy              =    -595.3678228548227480 [Eh]

	 ================> DF-SCS-MP2 Energies <==================
	-----------------------------------------------------------
	 SCS Same-Spin Scale       =       0.3333333333333333 [-]
	 SCS Opposite-Spin Scale   =       1.2000000000000000 [-]
	 SCS Same-Spin Energy      =      -0.2150083561103870 [Eh]
	 SCS Opposite-Spin Energy  =      -2.4674386611000236 [Eh]
	 SCS Correlation Energy    =      -2.6824470172104107 [Eh]
	 SCS Total Energy          =    -595.3490459194520099 [Eh]
	-----------------------------------------------------------

  Dipole Moment: [D]
     X:     0.9022      Y:    -3.4675      Z:     1.1235     Total:     3.7550

*** Psi4 exiting successfully. Buy a developer a beer!
