                               Psi4 1.3.2 release

  ==> Input File <==

--------------------------------------------------------------------------
#psi4
#
memory 32 gb

molecule  {
0 1
  O       -0.1793597     2.3507419    -0.4178076
  N        1.0902530     0.4589530     0.1084880
  C        3.5423410    -1.0378250     0.1583630
  C        3.3922610     0.2419230    -0.6640150
  C        2.1860550    -1.7140940     0.3593590
  C        2.3559930     1.1736850    -0.0440690
  C        1.1838660    -0.7305840     0.9537980
  C       -0.0769430     1.1544410    -0.1174940
  C       -1.3555190     0.3759530    -0.0649830
  C       -2.4581180     0.9595770     0.5701650
  C       -1.5045770    -0.8456090    -0.7357740
  C       -3.6889550     0.3043920     0.5733300
  C       -2.7428150    -1.4894620    -0.7452070
  C       -3.8339540    -0.9208060    -0.0836890
  H        4.2467360    -1.7252930    -0.3235850
  H        3.9658390    -0.7874970     1.1407660
  H        4.3526700     0.7654030    -0.7430120
  H        3.0718610    -0.0071480    -1.6828650
  H        1.8013720    -2.0729510    -0.6033450
  H        2.2806590    -2.5842610     1.0203320
  H        2.7011300     1.5279490     0.9404770
  H        2.1670460     2.0514870    -0.6632420
  H        0.1966470    -1.1794980     1.0614980
  H        1.5220510    -0.4257650     1.9581480
  H       -2.3377960     1.9283990     1.0483720
  H       -0.6569890    -1.2752080    -1.2661150
  H       -4.5402850     0.7544580     1.0784950
  H       -2.8585310    -2.4316580    -1.2759100
  H       -4.7967310    -1.4262250    -0.0878670
units angstrom
no_reorient  #important for SAPT in psi4, default
symmetry c1  #important for SAPT in psi4, default
}

set PROPERTIES_ORIGIN ["COM"]
properties('MP2/aug-cc-pvtz', properties = ['dipole'])
--------------------------------------------------------------------------

    Molecular point group: c1
  Charge       = 0
  Multiplicity = 1
  Basis Set: AUG-CC-PVTZ
    Blend: AUG-CC-PVTZ
  Basis Set: (AUG-CC-PVTZ AUX)
    Blend: AUG-CC-PVTZ-JKFIT

    Orbital Energies [Eh]
    ---------------------

    Doubly Occupied:

       1A    -20.516348     2A    -15.585790     3A    -11.350952
       4A    -11.269308     5A    -11.256690     6A    -11.247919
       7A    -11.246763     8A    -11.245283     9A    -11.243289
      10A    -11.242751    11A    -11.241105    12A    -11.232519
      13A    -11.229538    14A    -11.227060    15A     -1.369072
      16A     -1.252868    17A     -1.158365    18A     -1.085786
      19A     -1.040048    20A     -1.025620    21A     -1.020828
      22A     -0.926159    23A     -0.869000    24A     -0.845455
      25A     -0.833695    26A     -0.794337    27A     -0.748779
      28A     -0.719872    29A     -0.679871    30A     -0.651322
      31A     -0.638581    32A     -0.632334    33A     -0.625373
      34A     -0.611298    35A     -0.600620    36A     -0.592686
      37A     -0.589739    38A     -0.562791    39A     -0.551735
      40A     -0.534436    41A     -0.511760    42A     -0.503916
      43A     -0.500941    44A     -0.495157    45A     -0.480460
      46A     -0.471268    47A     -0.462725    48A     -0.422165
      49A     -0.373061    50A     -0.342777    51A     -0.338588

  @DF-RHF Final Energy:  -592.68135764039937

   => Energetics <=

    Nuclear Repulsion Energy =            876.9497968714420040
    One-Electron Energy =               -2545.2647086136930739
    Two-Electron Energy =                1075.6335541018515869
    Total Energy =                       -592.6813576403994830
  Basis Set: (AUG-CC-PVTZ AUX)
    Blend: AUG-CC-PVTZ-RI
    Molecular point group: c1

    Geometry (in Angstrom), charge = 0, multiplicity = 1:

       Center              X                  Y                   Z               Mass
    ------------   -----------------  -----------------  -----------------  -----------------
         O           -0.113771850185     2.315080833968    -0.409180381621    15.994914619570
         N            1.155840849815     0.423291933968     0.117115218379    14.003074004430
         C            3.607928849815    -1.073486066032     0.166990218379    12.000000000000
         C            3.457848849815     0.206261933968    -0.655387781621    12.000000000000
         C            2.251642849815    -1.749755066032     0.367986218379    12.000000000000
         C            2.421580849815     1.138023933968    -0.035441781621    12.000000000000
         C            1.249453849815    -0.766245066032     0.962425218379    12.000000000000
         C           -0.011355150185     1.118779933968    -0.108866781621    12.000000000000
         C           -1.289931150185     0.340291933968    -0.056355781621    12.000000000000
         C           -2.392530150185     0.923915933968     0.578792218379    12.000000000000
         C           -1.438989150185    -0.881270066032    -0.727146781621    12.000000000000
         C           -3.623367150185     0.268730933968     0.581957218379    12.000000000000
         C           -2.677227150185    -1.525123066032    -0.736579781621    12.000000000000
         C           -3.768366150185    -0.956467066032    -0.075061781621    12.000000000000
         H            4.312323849815    -1.760954066032    -0.314957781621     1.007825032230
         H            4.031426849815    -0.823158066032     1.149393218379     1.007825032230
         H            4.418257849815     0.729741933968    -0.734384781621     1.007825032230
         H            3.137448849815    -0.042809066032    -1.674237781621     1.007825032230
         H            1.866959849815    -2.108612066032    -0.594717781621     1.007825032230
         H            2.346246849815    -2.619922066032     1.028959218379     1.007825032230
         H            2.766717849815     1.492287933968     0.949104218379     1.007825032230
         H            2.232633849815     2.015825933968    -0.654614781621     1.007825032230
         H            0.262234849815    -1.215159066032     1.070125218379     1.007825032230
         H            1.587638849815    -0.461426066032     1.966775218379     1.007825032230
         H           -2.272208150185     1.892737933968     1.056999218379     1.007825032230
         H           -0.591401150185    -1.310869066032    -1.257487781621     1.007825032230
         H           -4.474697150185     0.718796933968     1.087122218379     1.007825032230
         H           -2.792943150185    -2.467319066032    -1.267282781621     1.007825032230
         H           -4.731143150185    -1.461886066032    -0.079239781621     1.007825032230

  Basis Set: AUG-CC-PVTZ
    Blend: AUG-CC-PVTZ
  Basis Set: (AUG-CC-PVTZ AUX)
    Blend: AUG-CC-PVTZ-JKFIT
	 Reference Energy          =    -592.6813576403993693 [Eh]
	 Singles Energy            =      -0.0000000000000000 [Eh]
	 Same-Spin Energy          =      -0.6434801221978425 [Eh]
	 Opposite-Spin Energy      =      -2.0534804399307518 [Eh]
	 Correlation Energy        =      -2.6969605621285941 [Eh]
	 Total Energy              =    -595.3783182025279075 [Eh]

	 ================> DF-SCS-MP2 Energies <==================
	-----------------------------------------------------------
	 SCS Same-Spin Scale       =       0.3333333333333333 [-]
	 SCS Opposite-Spin Scale   =       1.2000000000000000 [-]
	 SCS Same-Spin Energy      =      -0.2144933740659475 [Eh]
	 SCS Opposite-Spin Energy  =      -2.4641765279169019 [Eh]
	 SCS Correlation Energy    =      -2.6786699019828495 [Eh]
	 SCS Total Energy          =    -595.3600275423822268 [Eh]
	-----------------------------------------------------------

  Dipole Moment: [D]
     X:     1.3744      Y:    -3.3475      Z:     1.1445     Total:     3.7954

*** Psi4 exiting successfully. Buy a developer a beer!
