                               Psi4 1.3.2 release

  ==> Input File <==

--------------------------------------------------------------------------
#psi4
#
memory 32 gb

molecule  {
0 1
  O       -0.0931590     2.3556990    -0.4150330
  N        1.0902530     0.4589530     0.1084880
  C        3.5423410    -1.0378250     0.1583630
  C        3.3922610     0.2419230    -0.6640150
  C        2.1860550    -1.7140940     0.3593590
  C        2.3559930     1.1736850    -0.0440690
  C        1.1838660    -0.7305840     0.9537980
  C       -0.2464262     1.2554296    -0.1503078
  C       -1.3555190     0.3759530    -0.0649830
  C       -2.4581180     0.9595770     0.5701650
  C       -1.5045770    -0.8456090    -0.7357740
  C       -3.6889550     0.3043920     0.5733300
  C       -2.7428150    -1.4894620    -0.7452070
  C       -3.8339540    -0.9208060    -0.0836890
  H        4.2467360    -1.7252930    -0.3235850
  H        3.9658390    -0.7874970     1.1407660
  H        4.3526700     0.7654030    -0.7430120
  H        3.0718610    -0.0071480    -1.6828650
  H        1.8013720    -2.0729510    -0.6033450
  H        2.2806590    -2.5842610     1.0203320
  H        2.7011300     1.5279490     0.9404770
  H        2.1670460     2.0514870    -0.6632420
  H        0.1966470    -1.1794980     1.0614980
  H        1.5220510    -0.4257650     1.9581480
  H       -2.3377960     1.9283990     1.0483720
  H       -0.6569890    -1.2752080    -1.2661150
  H       -4.5402850     0.7544580     1.0784950
  H       -2.8585310    -2.4316580    -1.2759100
  H       -4.7967310    -1.4262250    -0.0878670
units angstrom
no_reorient  #important for SAPT in psi4, default
symmetry c1  #important for SAPT in psi4, default
}

set PROPERTIES_ORIGIN ["COM"]
properties('MP2/aug-cc-pvtz', properties = ['dipole'])
--------------------------------------------------------------------------

    Molecular point group: c1
  Charge       = 0
  Multiplicity = 1
  Basis Set: AUG-CC-PVTZ
    Blend: AUG-CC-PVTZ
  Basis Set: (AUG-CC-PVTZ AUX)
    Blend: AUG-CC-PVTZ-JKFIT

    Orbital Energies [Eh]
    ---------------------

    Doubly Occupied:

       1A    -20.548757     2A    -15.542544     3A    -11.357354
       4A    -11.262445     5A    -11.258344     6A    -11.256984
       7A    -11.254478     8A    -11.253608     9A    -11.251207
      10A    -11.245310    11A    -11.235758    12A    -11.215952
      13A    -11.215118    14A    -11.211252    15A     -1.445862
      16A     -1.204177    17A     -1.172954    18A     -1.068150
      19A     -1.045959    20A     -1.032863    21A     -1.010071
      22A     -0.905363    23A     -0.856655    24A     -0.846707
      25A     -0.836117    26A     -0.778589    27A     -0.746098
      28A     -0.711570    29A     -0.691462    30A     -0.672484
      31A     -0.646741    32A     -0.627375    33A     -0.615672
      34A     -0.609464    35A     -0.604880    36A     -0.591064
      37A     -0.586430    38A     -0.561004    39A     -0.545470
      40A     -0.534904    41A     -0.526959    42A     -0.510604
      43A     -0.508107    44A     -0.485171    45A     -0.472862
      46A     -0.461560    47A     -0.443426    48A     -0.416614
      49A     -0.358246    50A     -0.352907    51A     -0.335714

  @DF-RHF Final Energy:  -592.64500305986314

   => Energetics <=

    Nuclear Repulsion Energy =            876.2467867345961849
    One-Electron Energy =               -2543.9248493937334388
    Two-Electron Energy =                1075.0330595992738836
    Total Energy =                       -592.6450030598632566
  Basis Set: (AUG-CC-PVTZ AUX)
    Blend: AUG-CC-PVTZ-RI
    Molecular point group: c1

    Geometry (in Angstrom), charge = 0, multiplicity = 1:

       Center              X                  Y                   Z               Mass
    ------------   -----------------  -----------------  -----------------  -----------------
         O           -0.024107520636     2.313210611411    -0.404558305550    15.994914619570
         N            1.159304479364     0.416464611411     0.118962694450    14.003074004430
         C            3.611392479364    -1.080313388589     0.168837694450    12.000000000000
         C            3.461312479364     0.199434611411    -0.653540305550    12.000000000000
         C            2.255106479364    -1.756582388589     0.369833694450    12.000000000000
         C            2.425044479364     1.131196611411    -0.033594305550    12.000000000000
         C            1.252917479364    -0.773072388589     0.964272694450    12.000000000000
         C           -0.177374720636     1.212941211411    -0.139833105550    12.000000000000
         C           -1.286467520636     0.333464611411    -0.054508305550    12.000000000000
         C           -2.389066520636     0.917088611411     0.580639694450    12.000000000000
         C           -1.435525520636    -0.888097388589    -0.725299305550    12.000000000000
         C           -3.619903520636     0.261903611411     0.583804694450    12.000000000000
         C           -2.673763520636    -1.531950388589    -0.734732305550    12.000000000000
         C           -3.764902520636    -0.963294388589    -0.073214305550    12.000000000000
         H            4.315787479364    -1.767781388589    -0.313110305550     1.007825032230
         H            4.034890479364    -0.829985388589     1.151240694450     1.007825032230
         H            4.421721479364     0.722914611411    -0.732537305550     1.007825032230
         H            3.140912479364    -0.049636388589    -1.672390305550     1.007825032230
         H            1.870423479364    -2.115439388589    -0.592870305550     1.007825032230
         H            2.349710479364    -2.626749388589     1.030806694450     1.007825032230
         H            2.770181479364     1.485460611411     0.950951694450     1.007825032230
         H            2.236097479364     2.008998611411    -0.652767305550     1.007825032230
         H            0.265698479364    -1.221986388589     1.071972694450     1.007825032230
         H            1.591102479364    -0.468253388589     1.968622694450     1.007825032230
         H           -2.268744520636     1.885910611411     1.058846694450     1.007825032230
         H           -0.587937520636    -1.317696388589    -1.255640305550     1.007825032230
         H           -4.471233520636     0.711969611411     1.088969694450     1.007825032230
         H           -2.789479520636    -2.474146388589    -1.265435305550     1.007825032230
         H           -4.727679520636    -1.468713388589    -0.077392305550     1.007825032230

  Basis Set: AUG-CC-PVTZ
    Blend: AUG-CC-PVTZ
  Basis Set: (AUG-CC-PVTZ AUX)
    Blend: AUG-CC-PVTZ-JKFIT
	 Reference Energy          =    -592.6450030598631429 [Eh]
	 Singles Energy            =      -0.0000000000000000 [Eh]
	 Same-Spin Energy          =      -0.6437983902898804 [Eh]
	 Opposite-Spin Energy      =      -2.0536958234475922 [Eh]
	 Correlation Energy        =      -2.6974942137374724 [Eh]
	 Total Energy              =    -595.3424972736006566 [Eh]

	 ================> DF-SCS-MP2 Energies <==================
	-----------------------------------------------------------
	 SCS Same-Spin Scale       =       0.3333333333333333 [-]
	 SCS Opposite-Spin Scale   =       1.2000000000000000 [-]
	 SCS Same-Spin Energy      =      -0.2145994634299601 [Eh]
	 SCS Opposite-Spin Energy  =      -2.4644349881371106 [Eh]
	 SCS Correlation Energy    =      -2.6790344515670705 [Eh]
	 SCS Total Energy          =    -595.3240375114302196 [Eh]
	-----------------------------------------------------------

  Dipole Moment: [D]
     X:    -1.0321      Y:    -2.4796      Z:     0.6649     Total:     2.7669

*** Psi4 exiting successfully. Buy a developer a beer!
