                               Psi4 1.3.2 release

  ==> Input File <==

--------------------------------------------------------------------------
#psi4
#
memory 32 gb

molecule  {
0 1
  O       -0.0931590     2.3556990    -0.4150330
  N        1.1027068     0.4792951     0.1054910
  C        3.5423410    -1.0378250     0.1583630
  C        3.3922610     0.2419230    -0.6640150
  C        2.1860550    -1.7140940     0.3593590
  C        2.3559930     1.1736850    -0.0440690
  C        1.1838660    -0.7305840     0.9537980
  C       -0.0769430     1.1544410    -0.1174940
  C       -1.3555190     0.3759530    -0.0649830
  C       -2.4581180     0.9595770     0.5701650
  C       -1.5045770    -0.8456090    -0.7357740
  C       -3.6889550     0.3043920     0.5733300
  C       -2.7428150    -1.4894620    -0.7452070
  C       -3.8339540    -0.9208060    -0.0836890
  H        4.2467360    -1.7252930    -0.3235850
  H        3.9658390    -0.7874970     1.1407660
  H        4.3526700     0.7654030    -0.7430120
  H        3.0718610    -0.0071480    -1.6828650
  H        1.8013720    -2.0729510    -0.6033450
  H        2.2806590    -2.5842610     1.0203320
  H        2.7011300     1.5279490     0.9404770
  H        2.1670460     2.0514870    -0.6632420
  H        0.1966470    -1.1794980     1.0614980
  H        1.5220510    -0.4257650     1.9581480
  H       -2.3377960     1.9283990     1.0483720
  H       -0.6569890    -1.2752080    -1.2661150
  H       -4.5402850     0.7544580     1.0784950
  H       -2.8585310    -2.4316580    -1.2759100
  H       -4.7967310    -1.4262250    -0.0878670
units angstrom
no_reorient  #important for SAPT in psi4, default
symmetry c1  #important for SAPT in psi4, default
}

set PROPERTIES_ORIGIN ["COM"]
properties('MP2/aug-cc-pvtz', properties = ['dipole'])
--------------------------------------------------------------------------

    Molecular point group: c1
  Charge       = 0
  Multiplicity = 1
  Basis Set: AUG-CC-PVTZ
    Blend: AUG-CC-PVTZ
  Basis Set: (AUG-CC-PVTZ AUX)
    Blend: AUG-CC-PVTZ-JKFIT

    Orbital Energies [Eh]
    ---------------------

    Doubly Occupied:

       1A    -20.513530     2A    -15.581140     3A    -11.349848
       4A    -11.268303     5A    -11.251903     6A    -11.251479
       7A    -11.250485     8A    -11.248265     9A    -11.246199
      10A    -11.245847    11A    -11.243765    12A    -11.231316
      13A    -11.227855    14A    -11.224622    15A     -1.369076
      16A     -1.247476    17A     -1.161597    18A     -1.083505
      19A     -1.042122    20A     -1.025558    21A     -1.022891
      22A     -0.924346    23A     -0.868829    24A     -0.845615
      25A     -0.835884    26A     -0.793801    27A     -0.747336
      28A     -0.720644    29A     -0.681330    30A     -0.650290
      31A     -0.638839    32A     -0.631944    33A     -0.625565
      34A     -0.611039    35A     -0.601222    36A     -0.594283
      37A     -0.589087    38A     -0.560402    39A     -0.550492
      40A     -0.533997    41A     -0.513668    42A     -0.504094
      43A     -0.501897    44A     -0.495960    45A     -0.478548
      46A     -0.469670    47A     -0.459469    48A     -0.422783
      49A     -0.368212    50A     -0.345320    51A     -0.342680

  @DF-RHF Final Energy:  -592.68253067400178

   => Energetics <=

    Nuclear Repulsion Energy =            876.9508269090032400
    One-Electron Energy =               -2545.2786569379909452
    Two-Electron Energy =                1075.6452993549858093
    Total Energy =                       -592.6825306740017822
  Basis Set: (AUG-CC-PVTZ AUX)
    Blend: AUG-CC-PVTZ-RI
    Molecular point group: c1

    Geometry (in Angstrom), charge = 0, multiplicity = 1:

       Center              X                  Y                   Z               Mass
    ------------   -----------------  -----------------  -----------------  -----------------
         O           -0.035783937798     2.318112440898    -0.406418537208    15.994914619570
         N            1.160081862202     0.441708540898     0.114105462792    14.003074004430
         C            3.599716062202    -1.075411559102     0.166977462792    12.000000000000
         C            3.449636062202     0.204336440898    -0.655400537208    12.000000000000
         C            2.243430062202    -1.751680559102     0.367973462792    12.000000000000
         C            2.413368062202     1.136098440898    -0.035454537208    12.000000000000
         C            1.241241062202    -0.768170559102     0.962412462792    12.000000000000
         C           -0.019567937798     1.116854440898    -0.108879537208    12.000000000000
         C           -1.298143937798     0.338366440898    -0.056368537208    12.000000000000
         C           -2.400742937798     0.921990440898     0.578779462792    12.000000000000
         C           -1.447201937798    -0.883195559102    -0.727159537208    12.000000000000
         C           -3.631579937798     0.266805440898     0.581944462792    12.000000000000
         C           -2.685439937798    -1.527048559102    -0.736592537208    12.000000000000
         C           -3.776578937798    -0.958392559102    -0.075074537208    12.000000000000
         H            4.304111062202    -1.762879559102    -0.314970537208     1.007825032230
         H            4.023214062202    -0.825083559102     1.149380462792     1.007825032230
         H            4.410045062202     0.727816440898    -0.734397537208     1.007825032230
         H            3.129236062202    -0.044734559102    -1.674250537208     1.007825032230
         H            1.858747062202    -2.110537559102    -0.594730537208     1.007825032230
         H            2.338034062202    -2.621847559102     1.028946462792     1.007825032230
         H            2.758505062202     1.490362440898     0.949091462792     1.007825032230
         H            2.224421062202     2.013900440898    -0.654627537208     1.007825032230
         H            0.254022062202    -1.217084559102     1.070112462792     1.007825032230
         H            1.579426062202    -0.463351559102     1.966762462792     1.007825032230
         H           -2.280420937798     1.890812440898     1.056986462792     1.007825032230
         H           -0.599613937798    -1.312794559102    -1.257500537208     1.007825032230
         H           -4.482909937798     0.716871440898     1.087109462792     1.007825032230
         H           -2.801155937798    -2.469244559102    -1.267295537208     1.007825032230
         H           -4.739355937798    -1.463811559102    -0.079252537208     1.007825032230

  Basis Set: AUG-CC-PVTZ
    Blend: AUG-CC-PVTZ
  Basis Set: (AUG-CC-PVTZ AUX)
    Blend: AUG-CC-PVTZ-JKFIT
	 Reference Energy          =    -592.6825306740017822 [Eh]
	 Singles Energy            =      -0.0000000000000000 [Eh]
	 Same-Spin Energy          =      -0.6434317689354542 [Eh]
	 Opposite-Spin Energy      =      -2.0531991659975848 [Eh]
	 Correlation Energy        =      -2.6966309349330388 [Eh]
	 Total Energy              =    -595.3791616089348508 [Eh]

	 ================> DF-SCS-MP2 Energies <==================
	-----------------------------------------------------------
	 SCS Same-Spin Scale       =       0.3333333333333333 [-]
	 SCS Opposite-Spin Scale   =       1.2000000000000000 [-]
	 SCS Same-Spin Energy      =      -0.2144772563118180 [Eh]
	 SCS Opposite-Spin Energy  =      -2.4638389991971015 [Eh]
	 SCS Correlation Energy    =      -2.6783162555089195 [Eh]
	 SCS Total Energy          =    -595.3608469295106715 [Eh]
	-----------------------------------------------------------

  Dipole Moment: [D]
     X:     0.9869      Y:    -3.4479      Z:     1.1331     Total:     3.7611

*** Psi4 exiting successfully. Buy a developer a beer!
