                               Psi4 1.3.2 release

  ==> Input File <==

--------------------------------------------------------------------------
#psi4
#
memory 32 gb

molecule  {
0 1
  O       -0.0931590     2.3556990    -0.4150330
  N        1.0902530     0.4589530     0.1084880
  C        3.5423410    -1.0378250     0.1583630
  C        3.3922610     0.2419230    -0.6640150
  C        2.1860550    -1.7140940     0.3593590
  C        2.5291947     1.2714877    -0.0649446
  C        1.1838660    -0.7305840     0.9537980
  C       -0.0769430     1.1544410    -0.1174940
  C       -1.3555190     0.3759530    -0.0649830
  C       -2.4581180     0.9595770     0.5701650
  C       -1.5045770    -0.8456090    -0.7357740
  C       -3.6889550     0.3043920     0.5733300
  C       -2.7428150    -1.4894620    -0.7452070
  C       -3.8339540    -0.9208060    -0.0836890
  H        4.2467360    -1.7252930    -0.3235850
  H        3.9658390    -0.7874970     1.1407660
  H        4.3526700     0.7654030    -0.7430120
  H        3.0718610    -0.0071480    -1.6828650
  H        1.8013720    -2.0729510    -0.6033450
  H        2.2806590    -2.5842610     1.0203320
  H        2.7011300     1.5279490     0.9404770
  H        2.1670460     2.0514870    -0.6632420
  H        0.1966470    -1.1794980     1.0614980
  H        1.5220510    -0.4257650     1.9581480
  H       -2.3377960     1.9283990     1.0483720
  H       -0.6569890    -1.2752080    -1.2661150
  H       -4.5402850     0.7544580     1.0784950
  H       -2.8585310    -2.4316580    -1.2759100
  H       -4.7967310    -1.4262250    -0.0878670
units angstrom
no_reorient  #important for SAPT in psi4, default
symmetry c1  #important for SAPT in psi4, default
}

set PROPERTIES_ORIGIN ["COM"]
properties('MP2/aug-cc-pvtz', properties = ['dipole'])
--------------------------------------------------------------------------

    Molecular point group: c1
  Charge       = 0
  Multiplicity = 1
  Basis Set: AUG-CC-PVTZ
    Blend: AUG-CC-PVTZ
  Basis Set: (AUG-CC-PVTZ AUX)
    Blend: AUG-CC-PVTZ-JKFIT

    Orbital Energies [Eh]
    ---------------------

    Doubly Occupied:

       1A    -20.507157     2A    -15.570580     3A    -11.342791
       4A    -11.265767     5A    -11.262332     6A    -11.246994
       7A    -11.245829     8A    -11.244548     9A    -11.242296
      10A    -11.241978    11A    -11.240193    12A    -11.232996
      13A    -11.230608    14A    -11.229704    15A     -1.359132
      16A     -1.218658    17A     -1.156965    18A     -1.088128
      19A     -1.037030    20A     -1.028865    21A     -1.019977
      22A     -0.925050    23A     -0.859586    24A     -0.848289
      25A     -0.832400    26A     -0.792275    27A     -0.745360
      28A     -0.709223    29A     -0.677611    30A     -0.647498
      31A     -0.641698    32A     -0.634950    33A     -0.622102
      34A     -0.610393    35A     -0.600112    36A     -0.590076
      37A     -0.583780    38A     -0.558030    39A     -0.549096
      40A     -0.530348    41A     -0.519331    42A     -0.505127
      43A     -0.499020    44A     -0.495093    45A     -0.484736
      46A     -0.476544    47A     -0.445589    48A     -0.410868
      49A     -0.364722    50A     -0.341610    51A     -0.338581

  @DF-RHF Final Energy:  -592.65415968134937

   => Energetics <=

    Nuclear Repulsion Energy =            873.2516754044987692
    One-Electron Energy =               -2538.1084173301933333
    Two-Electron Energy =                1072.2025822443451943
    Total Energy =                       -592.6541596813494834
  Basis Set: (AUG-CC-PVTZ AUX)
    Blend: AUG-CC-PVTZ-RI
    Molecular point group: c1

    Geometry (in Angstrom), charge = 0, multiplicity = 1:

       Center              X                  Y                   Z               Mass
    ------------   -----------------  -----------------  -----------------  -----------------
         O           -0.045852019394     2.313412767382    -0.405315824119    15.994914619570
         N            1.137559980606     0.416666767382     0.118205175881    14.003074004430
         C            3.589647980606    -1.080111232618     0.168080175881    12.000000000000
         C            3.439567980606     0.199636767382    -0.654297824119    12.000000000000
         C            2.233361980606    -1.756380232618     0.369076175881    12.000000000000
         C            2.576501680606     1.229201467382    -0.055227424119    12.000000000000
         C            1.231172980606    -0.772870232618     0.963515175881    12.000000000000
         C           -0.029636019394     1.112154767382    -0.107776824119    12.000000000000
         C           -1.308212019394     0.333666767382    -0.055265824119    12.000000000000
         C           -2.410811019394     0.917290767382     0.579882175881    12.000000000000
         C           -1.457270019394    -0.887895232618    -0.726056824119    12.000000000000
         C           -3.641648019394     0.262105767382     0.583047175881    12.000000000000
         C           -2.695508019394    -1.531748232618    -0.735489824119    12.000000000000
         C           -3.786647019394    -0.963092232618    -0.073971824119    12.000000000000
         H            4.294042980606    -1.767579232618    -0.313867824119     1.007825032230
         H            4.013145980606    -0.829783232618     1.150483175881     1.007825032230
         H            4.399976980606     0.723116767382    -0.733294824119     1.007825032230
         H            3.119167980606    -0.049434232618    -1.673147824119     1.007825032230
         H            1.848678980606    -2.115237232618    -0.593627824119     1.007825032230
         H            2.327965980606    -2.626547232618     1.030049175881     1.007825032230
         H            2.748436980606     1.485662767382     0.950194175881     1.007825032230
         H            2.214352980606     2.009200767382    -0.653524824119     1.007825032230
         H            0.243953980606    -1.221784232618     1.071215175881     1.007825032230
         H            1.569357980606    -0.468051232618     1.967865175881     1.007825032230
         H           -2.290489019394     1.886112767382     1.058089175881     1.007825032230
         H           -0.609682019394    -1.317494232618    -1.256397824119     1.007825032230
         H           -4.492978019394     0.712171767382     1.088212175881     1.007825032230
         H           -2.811224019394    -2.473944232618    -1.266192824119     1.007825032230
         H           -4.749424019394    -1.468511232618    -0.078149824119     1.007825032230

  Basis Set: AUG-CC-PVTZ
    Blend: AUG-CC-PVTZ
  Basis Set: (AUG-CC-PVTZ AUX)
    Blend: AUG-CC-PVTZ-JKFIT
	 Reference Energy          =    -592.6541596813493697 [Eh]
	 Singles Energy            =      -0.0000000000000000 [Eh]
	 Same-Spin Energy          =      -0.6441063471420838 [Eh]
	 Opposite-Spin Energy      =      -2.0557340125356647 [Eh]
	 Correlation Energy        =      -2.6998403596777485 [Eh]
	 Total Energy              =    -595.3540000410271205 [Eh]

	 ================> DF-SCS-MP2 Energies <==================
	-----------------------------------------------------------
	 SCS Same-Spin Scale       =       0.3333333333333333 [-]
	 SCS Opposite-Spin Scale   =       1.2000000000000000 [-]
	 SCS Same-Spin Energy      =      -0.2147021157140279 [Eh]
	 SCS Opposite-Spin Energy  =      -2.4668808150427974 [Eh]
	 SCS Correlation Energy    =      -2.6815829307568255 [Eh]
	 SCS Total Energy          =    -595.3357426121061735 [Eh]
	-----------------------------------------------------------

  Dipole Moment: [D]
     X:     1.6327      Y:    -3.3017      Z:     1.1336     Total:     3.8539

*** Psi4 exiting successfully. Buy a developer a beer!
