                               Psi4 1.3.2 release

  ==> Input File <==

--------------------------------------------------------------------------
#psi4
#
memory 32 gb

molecule  {
0 1
  O       -0.0931590     2.3556990    -0.4150330
  N        1.0902530     0.4589530     0.1084880
  C        3.5423410    -1.0378250     0.1583630
  C        3.3922610     0.2419230    -0.6640150
  C        2.1860550    -1.7140940     0.3593590
  C        2.3673027     1.1563945    -0.0291077
  C        1.1838660    -0.7305840     0.9537980
  C       -0.0769430     1.1544410    -0.1174940
  C       -1.3555190     0.3759530    -0.0649830
  C       -2.4581180     0.9595770     0.5701650
  C       -1.5045770    -0.8456090    -0.7357740
  C       -3.6889550     0.3043920     0.5733300
  C       -2.7428150    -1.4894620    -0.7452070
  C       -3.8339540    -0.9208060    -0.0836890
  H        4.2467360    -1.7252930    -0.3235850
  H        3.9658390    -0.7874970     1.1407660
  H        4.3526700     0.7654030    -0.7430120
  H        3.0718610    -0.0071480    -1.6828650
  H        1.8013720    -2.0729510    -0.6033450
  H        2.2806590    -2.5842610     1.0203320
  H        2.7011300     1.5279490     0.9404770
  H        2.1670460     2.0514870    -0.6632420
  H        0.1966470    -1.1794980     1.0614980
  H        1.5220510    -0.4257650     1.9581480
  H       -2.3377960     1.9283990     1.0483720
  H       -0.6569890    -1.2752080    -1.2661150
  H       -4.5402850     0.7544580     1.0784950
  H       -2.8585310    -2.4316580    -1.2759100
  H       -4.7967310    -1.4262250    -0.0878670
units angstrom
no_reorient  #important for SAPT in psi4, default
symmetry c1  #important for SAPT in psi4, default
}

set PROPERTIES_ORIGIN ["COM"]
properties('MP2/aug-cc-pvtz', properties = ['dipole'])
--------------------------------------------------------------------------

    Molecular point group: c1
  Charge       = 0
  Multiplicity = 1
  Basis Set: AUG-CC-PVTZ
    Blend: AUG-CC-PVTZ
  Basis Set: (AUG-CC-PVTZ AUX)
    Blend: AUG-CC-PVTZ-JKFIT

    Orbital Energies [Eh]
    ---------------------

    Doubly Occupied:

       1A    -20.514787     2A    -15.581569     3A    -11.350655
       4A    -11.266600     5A    -11.253498     6A    -11.251210
       7A    -11.249969     8A    -11.247917     9A    -11.245782
      10A    -11.245502    11A    -11.243429    12A    -11.230877
      13A    -11.227553    14A    -11.224705    15A     -1.368945
      16A     -1.248422    17A     -1.161173    18A     -1.084723
      19A     -1.040557    20A     -1.026279    21A     -1.023014
      22A     -0.924952    23A     -0.867432    24A     -0.845553
      25A     -0.835653    26A     -0.794155    27A     -0.748058
      28A     -0.720035    29A     -0.680842    30A     -0.651271
      31A     -0.639146    32A     -0.630536    33A     -0.625377
      34A     -0.611140    35A     -0.601105    36A     -0.593923
      37A     -0.589025    38A     -0.557975    39A     -0.551393
      40A     -0.533996    41A     -0.513573    42A     -0.504556
      43A     -0.502286    44A     -0.496128    45A     -0.479998
      46A     -0.468567    47A     -0.457175    48A     -0.422370
      49A     -0.370438    50A     -0.344964    51A     -0.342368

  @DF-RHF Final Energy:  -592.68176576015094

   => Energetics <=

    Nuclear Repulsion Energy =            877.1456845279220715
    One-Electron Energy =               -2545.6725897149349294
    Two-Electron Energy =                1075.8451394268618060
    Total Energy =                       -592.6817657601509381
  Basis Set: (AUG-CC-PVTZ AUX)
    Blend: AUG-CC-PVTZ-RI
    Molecular point group: c1

    Geometry (in Angstrom), charge = 0, multiplicity = 1:

       Center              X                  Y                   Z               Mass
    ------------   -----------------  -----------------  -----------------  -----------------
         O           -0.035579432557     2.320715814421    -0.407589794836    15.994914619570
         N            1.147832567443     0.423969814421     0.115931205164    14.003074004430
         C            3.599920567443    -1.072808185579     0.165806205164    12.000000000000
         C            3.449840567443     0.206939814421    -0.656571794836    12.000000000000
         C            2.243634567443    -1.749077185579     0.366802205164    12.000000000000
         C            2.424882267443     1.121411314421    -0.021664494836    12.000000000000
         C            1.241445567443    -0.765567185579     0.961241205164    12.000000000000
         C           -0.019363432557     1.119457814421    -0.110050794836    12.000000000000
         C           -1.297939432557     0.340969814421    -0.057539794836    12.000000000000
         C           -2.400538432557     0.924593814421     0.577608205164    12.000000000000
         C           -1.446997432557    -0.880592185579    -0.728330794836    12.000000000000
         C           -3.631375432557     0.269408814421     0.580773205164    12.000000000000
         C           -2.685235432557    -1.524445185579    -0.737763794836    12.000000000000
         C           -3.776374432557    -0.955789185579    -0.076245794836    12.000000000000
         H            4.304315567443    -1.760276185579    -0.316141794836     1.007825032230
         H            4.023418567443    -0.822480185579     1.148209205164     1.007825032230
         H            4.410249567443     0.730419814421    -0.735568794836     1.007825032230
         H            3.129440567443    -0.042131185579    -1.675421794836     1.007825032230
         H            1.858951567443    -2.107934185579    -0.595901794836     1.007825032230
         H            2.338238567443    -2.619244185579     1.027775205164     1.007825032230
         H            2.758709567443     1.492965814421     0.947920205164     1.007825032230
         H            2.224625567443     2.016503814421    -0.655798794836     1.007825032230
         H            0.254226567443    -1.214481185579     1.068941205164     1.007825032230
         H            1.579630567443    -0.460748185579     1.965591205164     1.007825032230
         H           -2.280216432557     1.893415814421     1.055815205164     1.007825032230
         H           -0.599409432557    -1.310191185579    -1.258671794836     1.007825032230
         H           -4.482705432557     0.719474814421     1.085938205164     1.007825032230
         H           -2.800951432557    -2.466641185579    -1.268466794836     1.007825032230
         H           -4.739151432557    -1.461208185579    -0.080423794836     1.007825032230

  Basis Set: AUG-CC-PVTZ
    Blend: AUG-CC-PVTZ
  Basis Set: (AUG-CC-PVTZ AUX)
    Blend: AUG-CC-PVTZ-JKFIT
	 Reference Energy          =    -592.6817657601509381 [Eh]
	 Singles Energy            =      -0.0000000000000000 [Eh]
	 Same-Spin Energy          =      -0.6436468327907779 [Eh]
	 Opposite-Spin Energy      =      -2.0535598147619836 [Eh]
	 Correlation Energy        =      -2.6972066475527616 [Eh]
	 Total Energy              =    -595.3789724077037135 [Eh]

	 ================> DF-SCS-MP2 Energies <==================
	-----------------------------------------------------------
	 SCS Same-Spin Scale       =       0.3333333333333333 [-]
	 SCS Opposite-Spin Scale   =       1.2000000000000000 [-]
	 SCS Same-Spin Energy      =      -0.2145489442635926 [Eh]
	 SCS Opposite-Spin Energy  =      -2.4642717777143801 [Eh]
	 SCS Correlation Energy    =      -2.6788207219779729 [Eh]
	 SCS Total Energy          =    -595.3605864821289515 [Eh]
	-----------------------------------------------------------

  Dipole Moment: [D]
     X:     1.0294      Y:    -3.3895      Z:     1.1305     Total:     3.7184

*** Psi4 exiting successfully. Buy a developer a beer!
