                               Psi4 1.4a3.dev225

  ==> Input File <==

--------------------------------------------------------------------------
#psi4
#
memory 32 gb

molecule  {
0 1
  O       -0.0931590     2.3556990    -0.4150330
  N        1.0902530     0.4589530     0.1084880
  C        3.5423410    -1.0378250     0.1583630
  C        3.3922610     0.2419230    -0.6640150
  C        2.1860550    -1.7140940     0.3593590
  C        2.3559930     1.1736850    -0.0440690
  C        1.1838660    -0.7305840     0.9537980
  C       -0.0769430     1.1544410    -0.1174940
  C       -1.3128387     0.4019398    -0.0667359
  C       -2.4581180     0.9595770     0.5701650
  C       -1.5045770    -0.8456090    -0.7357740
  C       -3.6889550     0.3043920     0.5733300
  C       -2.7428150    -1.4894620    -0.7452070
  C       -3.8339540    -0.9208060    -0.0836890
  H        4.2467360    -1.7252930    -0.3235850
  H        3.9658390    -0.7874970     1.1407660
  H        4.3526700     0.7654030    -0.7430120
  H        3.0718610    -0.0071480    -1.6828650
  H        1.8013720    -2.0729510    -0.6033450
  H        2.2806590    -2.5842610     1.0203320
  H        2.7011300     1.5279490     0.9404770
  H        2.1670460     2.0514870    -0.6632420
  H        0.1966470    -1.1794980     1.0614980
  H        1.5220510    -0.4257650     1.9581480
  H       -2.3377960     1.9283990     1.0483720
  H       -0.6569890    -1.2752080    -1.2661150
  H       -4.5402850     0.7544580     1.0784950
  H       -2.8585310    -2.4316580    -1.2759100
  H       -4.7967310    -1.4262250    -0.0878670
units angstrom
no_reorient  #important for SAPT in psi4, default
symmetry c1  #important for SAPT in psi4, default
}

set PROPERTIES_ORIGIN ["COM"]
properties('MP2/aug-cc-pvtz', properties = ['dipole'])
--------------------------------------------------------------------------

    Molecular point group: c1
  Charge       = 0
  Multiplicity = 1
  Basis Set: AUG-CC-PVTZ
    Blend: AUG-CC-PVTZ
  Basis Set: (AUG-CC-PVTZ AUX)
    Blend: AUG-CC-PVTZ-JKFIT

    Orbital Energies [Eh]
    ---------------------

    Doubly Occupied:

       1A    -20.513869     2A    -15.581266     3A    -11.347626
       4A    -11.266878     5A    -11.254911     6A    -11.253095
       7A    -11.252265     8A    -11.250027     9A    -11.249786
      10A    -11.246129    11A    -11.244021    12A    -11.230790
      13A    -11.227736    14A    -11.224865    15A     -1.370308
      16A     -1.248271    17A     -1.157310    18A     -1.084557
      19A     -1.042544    20A     -1.025602    21A     -1.021323
      22A     -0.926676    23A     -0.870039    24A     -0.849519
      25A     -0.833310    26A     -0.792643    27A     -0.748515
      28A     -0.720867    29A     -0.684801    30A     -0.652485
      31A     -0.638745    32A     -0.630484    33A     -0.625188
      34A     -0.609045    35A     -0.601259    36A     -0.592426
      37A     -0.588884    38A     -0.560538    39A     -0.550777
      40A     -0.534853    41A     -0.516777    42A     -0.502177
      43A     -0.499772    44A     -0.490885    45A     -0.478434
      46A     -0.468834    47A     -0.460514    48A     -0.425832
      49A     -0.369468    50A     -0.344759    51A     -0.339657

  @DF-RHF Final Energy:  -592.67824885157711

   => Energetics <=

    Nuclear Repulsion Energy =            877.1658257285007494
    One-Electron Energy =               -2545.6854619923974496
    Two-Electron Energy =                1075.8413874123195910
    Total Energy =                       -592.6782488515771092
  Basis Set: (AUG-CC-PVTZ AUX)
    Blend: AUG-CC-PVTZ-RI
    Molecular point group: c1

    Geometry (in Angstrom), charge = 0, multiplicity = 1:

       Center              X                  Y                   Z               Mass
    ------------   -----------------  -----------------  -----------------  -----------------
         O           -0.037570001657     2.317969725533    -0.406529223153    15.994914619570
         N            1.145841998343     0.421223725533     0.116991776847    14.003074004430
         C            3.597929998343    -1.075554274467     0.166866776847    12.000000000000
         C            3.447849998343     0.204193725533    -0.655511223153    12.000000000000
         C            2.241643998343    -1.751823274467     0.367862776847    12.000000000000
         C            2.411581998343     1.135955725533    -0.035565223153    12.000000000000
         C            1.239454998343    -0.768313274467     0.962301776847    12.000000000000
         C           -0.021354001657     1.116711725533    -0.108990223153    12.000000000000
         C           -1.257249701657     0.364210525533    -0.058232123153    12.000000000000
         C           -2.402529001657     0.921847725533     0.578668776847    12.000000000000
         C           -1.448988001657    -0.883338274467    -0.727270223153    12.000000000000
         C           -3.633366001657     0.266662725533     0.581833776847    12.000000000000
         C           -2.687226001657    -1.527191274467    -0.736703223153    12.000000000000
         C           -3.778365001657    -0.958535274467    -0.075185223153    12.000000000000
         H            4.302324998343    -1.763022274467    -0.315081223153     1.007825032230
         H            4.021427998343    -0.825226274467     1.149269776847     1.007825032230
         H            4.408258998343     0.727673725533    -0.734508223153     1.007825032230
         H            3.127449998343    -0.044877274467    -1.674361223153     1.007825032230
         H            1.856960998343    -2.110680274467    -0.594841223153     1.007825032230
         H            2.336247998343    -2.621990274467     1.028835776847     1.007825032230
         H            2.756718998343     1.490219725533     0.948980776847     1.007825032230
         H            2.222634998343     2.013757725533    -0.654738223153     1.007825032230
         H            0.252235998343    -1.217227274467     1.070001776847     1.007825032230
         H            1.577639998343    -0.463494274467     1.966651776847     1.007825032230
         H           -2.282207001657     1.890669725533     1.056875776847     1.007825032230
         H           -0.601400001657    -1.312937274467    -1.257611223153     1.007825032230
         H           -4.484696001657     0.716728725533     1.086998776847     1.007825032230
         H           -2.802942001657    -2.469387274467    -1.267406223153     1.007825032230
         H           -4.741142001657    -1.463954274467    -0.079363223153     1.007825032230

  Basis Set: AUG-CC-PVTZ
    Blend: AUG-CC-PVTZ
  Basis Set: (AUG-CC-PVTZ AUX)
    Blend: AUG-CC-PVTZ-JKFIT
	 Reference Energy          =    -592.6782488515771092 [Eh]
	 Singles Energy            =      -0.0000000000000000 [Eh]
	 Same-Spin Energy          =      -0.6440881991436016 [Eh]
	 Opposite-Spin Energy      =      -2.0544772973652412 [Eh]
	 Correlation Energy        =      -2.6985654965088428 [Eh]
	 Total Energy              =    -595.3768143480859862 [Eh]

	 ================> DF-SCS-MP2 Energies <==================
	-----------------------------------------------------------
	 SCS Same-Spin Scale       =       0.3333333333333333 [-]
	 SCS Opposite-Spin Scale   =       1.2000000000000000 [-]
	 SCS Same-Spin Energy      =      -0.2146960663812005 [Eh]
	 SCS Opposite-Spin Energy  =      -2.4653727568382893 [Eh]
	 SCS Correlation Energy    =      -2.6800688232194898 [Eh]
	 SCS Total Energy          =    -595.3583176747965808 [Eh]
	-----------------------------------------------------------

  Dipole Moment: [D]
     X:     0.9702      Y:    -3.4300      Z:     1.1236     Total:     3.7375

*** Psi4 exiting successfully. Buy a developer a beer!
