                               Psi4 1.4a3.dev225

  ==> Input File <==

--------------------------------------------------------------------------
#psi4
#
memory 32 gb

molecule  {
0 1
  O       -0.0931590     2.3556990    -0.4150330
  N        1.0902530     0.4589530     0.1084880
  C        3.5423410    -1.0378250     0.1583630
  C        3.3922610     0.2419230    -0.6640150
  C        2.1860550    -1.7140940     0.3593590
  C        2.3559930     1.1736850    -0.0440690
  C        1.1838660    -0.7305840     0.9537980
  C       -0.0345722     1.1291938    -0.1092905
  C       -1.3555190     0.3759530    -0.0649830
  C       -2.4581180     0.9595770     0.5701650
  C       -1.5045770    -0.8456090    -0.7357740
  C       -3.6889550     0.3043920     0.5733300
  C       -2.7428150    -1.4894620    -0.7452070
  C       -3.8339540    -0.9208060    -0.0836890
  H        4.2467360    -1.7252930    -0.3235850
  H        3.9658390    -0.7874970     1.1407660
  H        4.3526700     0.7654030    -0.7430120
  H        3.0718610    -0.0071480    -1.6828650
  H        1.8013720    -2.0729510    -0.6033450
  H        2.2806590    -2.5842610     1.0203320
  H        2.7011300     1.5279490     0.9404770
  H        2.1670460     2.0514870    -0.6632420
  H        0.1966470    -1.1794980     1.0614980
  H        1.5220510    -0.4257650     1.9581480
  H       -2.3377960     1.9283990     1.0483720
  H       -0.6569890    -1.2752080    -1.2661150
  H       -4.5402850     0.7544580     1.0784950
  H       -2.8585310    -2.4316580    -1.2759100
  H       -4.7967310    -1.4262250    -0.0878670
units angstrom
no_reorient  #important for SAPT in psi4, default
symmetry c1  #important for SAPT in psi4, default
}

set PROPERTIES_ORIGIN ["COM"]
properties('MP2/aug-cc-pvtz', properties = ['dipole'])
--------------------------------------------------------------------------

    Molecular point group: c1
  Charge       = 0
  Multiplicity = 1
  Basis Set: AUG-CC-PVTZ
    Blend: AUG-CC-PVTZ
  Basis Set: (AUG-CC-PVTZ AUX)
    Blend: AUG-CC-PVTZ-JKFIT

    Orbital Energies [Eh]
    ---------------------

    Doubly Occupied:

       1A    -20.505655     2A    -15.590199     3A    -11.348218
       4A    -11.272591     5A    -11.257829     6A    -11.250744
       7A    -11.247433     8A    -11.245428     9A    -11.243609
      10A    -11.243232    11A    -11.241543    12A    -11.234775
      13A    -11.231150    14A    -11.228596    15A     -1.356091
      16A     -1.256600    17A     -1.158280    18A     -1.090853
      19A     -1.041461    20A     -1.025585    21A     -1.021139
      22A     -0.934546    23A     -0.872067    24A     -0.843733
      25A     -0.833783    26A     -0.798428    27A     -0.749634
      28A     -0.721397    29A     -0.678009    30A     -0.653458
      31A     -0.640614    32A     -0.634040    33A     -0.624224
      34A     -0.612464    35A     -0.599333    36A     -0.593314
      37A     -0.589996    38A     -0.561406    39A     -0.551214
      40A     -0.532372    41A     -0.510689    42A     -0.504035
      43A     -0.501689    44A     -0.495280    45A     -0.478164
      46A     -0.472050    47A     -0.464589    48A     -0.416103
      49A     -0.374527    50A     -0.343131    51A     -0.338790

  @DF-RHF Final Energy:  -592.67894666273151

   => Energetics <=

    Nuclear Repulsion Energy =            877.3055152296977894
    One-Electron Energy =               -2545.9407451173660775
    Two-Electron Energy =                1075.9562832249366693
    Total Energy =                       -592.6789466627315051
  Basis Set: (AUG-CC-PVTZ AUX)
    Blend: AUG-CC-PVTZ-RI
    Molecular point group: c1

    Geometry (in Angstrom), charge = 0, multiplicity = 1:

       Center              X                  Y                   Z               Mass
    ------------   -----------------  -----------------  -----------------  -----------------
         O           -0.037550362850     2.321220693549    -0.407160989908    15.994914619570
         N            1.145861637150     0.424474693549     0.116360010092    14.003074004430
         C            3.597949637150    -1.072303306451     0.166235010092    12.000000000000
         C            3.447869637150     0.207444693549    -0.656142989908    12.000000000000
         C            2.241663637150    -1.748572306451     0.367231010092    12.000000000000
         C            2.411601637150     1.139206693549    -0.036196989908    12.000000000000
         C            1.239474637150    -0.765062306451     0.961670010092    12.000000000000
         C            0.021036437150     1.094715493549    -0.101418489908    12.000000000000
         C           -1.299910362850     0.341474693549    -0.057110989908    12.000000000000
         C           -2.402509362850     0.925098693549     0.578037010092    12.000000000000
         C           -1.448968362850    -0.880087306451    -0.727901989908    12.000000000000
         C           -3.633346362850     0.269913693549     0.581202010092    12.000000000000
         C           -2.687206362850    -1.523940306451    -0.737334989908    12.000000000000
         C           -3.778345362850    -0.955284306451    -0.075816989908    12.000000000000
         H            4.302344637150    -1.759771306451    -0.315712989908     1.007825032230
         H            4.021447637150    -0.821975306451     1.148638010092     1.007825032230
         H            4.408278637150     0.730924693549    -0.735139989908     1.007825032230
         H            3.127469637150    -0.041626306451    -1.674992989908     1.007825032230
         H            1.856980637150    -2.107429306451    -0.595472989908     1.007825032230
         H            2.336267637150    -2.618739306451     1.028204010092     1.007825032230
         H            2.756738637150     1.493470693549     0.948349010092     1.007825032230
         H            2.222654637150     2.017008693549    -0.655369989908     1.007825032230
         H            0.252255637150    -1.213976306451     1.069370010092     1.007825032230
         H            1.577659637150    -0.460243306451     1.966020010092     1.007825032230
         H           -2.282187362850     1.893920693549     1.056244010092     1.007825032230
         H           -0.601380362850    -1.309686306451    -1.258242989908     1.007825032230
         H           -4.484676362850     0.719979693549     1.086367010092     1.007825032230
         H           -2.802922362850    -2.466136306451    -1.268037989908     1.007825032230
         H           -4.741122362850    -1.460703306451    -0.079994989908     1.007825032230

  Basis Set: AUG-CC-PVTZ
    Blend: AUG-CC-PVTZ
  Basis Set: (AUG-CC-PVTZ AUX)
    Blend: AUG-CC-PVTZ-JKFIT
	 Reference Energy          =    -592.6789466627315051 [Eh]
	 Singles Energy            =      -0.0000000000000000 [Eh]
	 Same-Spin Energy          =      -0.6437578928440971 [Eh]
	 Opposite-Spin Energy      =      -2.0538874541891827 [Eh]
	 Correlation Energy        =      -2.6976453470332800 [Eh]
	 Total Energy              =    -595.3765920097647495 [Eh]

	 ================> DF-SCS-MP2 Energies <==================
	-----------------------------------------------------------
	 SCS Same-Spin Scale       =       0.3333333333333333 [-]
	 SCS Opposite-Spin Scale   =       1.2000000000000000 [-]
	 SCS Same-Spin Energy      =      -0.2145859642813657 [Eh]
	 SCS Opposite-Spin Energy  =      -2.4646649450270193 [Eh]
	 SCS Correlation Energy    =      -2.6792509093083852 [Eh]
	 SCS Total Energy          =    -595.3581975720398987 [Eh]
	-----------------------------------------------------------

  Dipole Moment: [D]
     X:     1.5059      Y:    -3.6233      Z:     1.2331     Total:     4.1130

*** Psi4 exiting successfully. Buy a developer a beer!
