                               Psi4 1.4a3.dev225

  ==> Input File <==

--------------------------------------------------------------------------
#psi4
#
memory 32 gb

molecule  {
0 1
  O       -0.0931590     2.3556990    -0.4150330
  N        1.0902530     0.4589530     0.1084880
  C        3.5423410    -1.0378250     0.1583630
  C        3.3922610     0.2419230    -0.6640150
  C        2.1860550    -1.7140940     0.3593590
  C        2.3559930     1.1736850    -0.0440690
  C        1.1838660    -0.7305840     0.9537980
  C       -0.1193138     1.1796882    -0.1256975
  C       -1.3555190     0.3759530    -0.0649830
  C       -2.4581180     0.9595770     0.5701650
  C       -1.5045770    -0.8456090    -0.7357740
  C       -3.6889550     0.3043920     0.5733300
  C       -2.7428150    -1.4894620    -0.7452070
  C       -3.8339540    -0.9208060    -0.0836890
  H        4.2467360    -1.7252930    -0.3235850
  H        3.9658390    -0.7874970     1.1407660
  H        4.3526700     0.7654030    -0.7430120
  H        3.0718610    -0.0071480    -1.6828650
  H        1.8013720    -2.0729510    -0.6033450
  H        2.2806590    -2.5842610     1.0203320
  H        2.7011300     1.5279490     0.9404770
  H        2.1670460     2.0514870    -0.6632420
  H        0.1966470    -1.1794980     1.0614980
  H        1.5220510    -0.4257650     1.9581480
  H       -2.3377960     1.9283990     1.0483720
  H       -0.6569890    -1.2752080    -1.2661150
  H       -4.5402850     0.7544580     1.0784950
  H       -2.8585310    -2.4316580    -1.2759100
  H       -4.7967310    -1.4262250    -0.0878670
units angstrom
no_reorient  #important for SAPT in psi4, default
symmetry c1  #important for SAPT in psi4, default
}

set PROPERTIES_ORIGIN ["COM"]
properties('MP2/aug-cc-pvtz', properties = ['dipole'])
--------------------------------------------------------------------------

    Molecular point group: c1
  Charge       = 0
  Multiplicity = 1
  Basis Set: AUG-CC-PVTZ
    Blend: AUG-CC-PVTZ
  Basis Set: (AUG-CC-PVTZ AUX)
    Blend: AUG-CC-PVTZ-JKFIT

    Orbital Energies [Eh]
    ---------------------

    Doubly Occupied:

       1A    -20.523478     2A    -15.572701     3A    -11.351948
       4A    -11.261740     5A    -11.253321     6A    -11.250851
       7A    -11.250369     8A    -11.248935     9A    -11.248186
      10A    -11.247393    11A    -11.245224    12A    -11.227223
      13A    -11.224727    14A    -11.221576    15A     -1.386588
      16A     -1.236927    17A     -1.164010    18A     -1.077520
      19A     -1.042233    20A     -1.026472    21A     -1.021899
      22A     -0.916271    23A     -0.864317    24A     -0.847386
      25A     -0.837306    26A     -0.788563    27A     -0.747190
      28A     -0.717678    29A     -0.684029    30A     -0.652667
      31A     -0.638612    32A     -0.628384    33A     -0.625063
      34A     -0.609474    35A     -0.602883    36A     -0.594938
      37A     -0.587259    38A     -0.558167    39A     -0.550362
      40A     -0.536188    41A     -0.516962    42A     -0.505030
      43A     -0.501038    44A     -0.495852    45A     -0.477836
      46A     -0.466374    47A     -0.456458    48A     -0.426478
      49A     -0.363516    50A     -0.346770    51A     -0.345403

  @DF-RHF Final Energy:  -592.68071201793111

   => Energetics <=

    Nuclear Repulsion Energy =            876.7863302460808654
    One-Electron Energy =               -2544.9905308203560708
    Two-Electron Energy =                1075.5234885563440912
    Total Energy =                       -592.6807120179310004
  Basis Set: (AUG-CC-PVTZ AUX)
    Blend: AUG-CC-PVTZ-RI
    Molecular point group: c1

    Geometry (in Angstrom), charge = 0, multiplicity = 1:

       Center              X                  Y                   Z               Mass
    ------------   -----------------  -----------------  -----------------  -----------------
         O           -0.032173225965     2.318016655617    -0.406119911089    15.994914619570
         N            1.151238774035     0.421270655617     0.117401088911    14.003074004430
         C            3.603326774035    -1.075507344383     0.167276088911    12.000000000000
         C            3.453246774035     0.204240655617    -0.655101911089    12.000000000000
         C            2.247040774035    -1.751776344383     0.368272088911    12.000000000000
         C            2.416978774035     1.136002655617    -0.035155911089    12.000000000000
         C            1.244851774035    -0.768266344383     0.962711088911    12.000000000000
         C           -0.058328025965     1.142005855617    -0.116784411089    12.000000000000
         C           -1.294533225965     0.338270655617    -0.056069911089    12.000000000000
         C           -2.397132225965     0.921894655617     0.579078088911    12.000000000000
         C           -1.443591225965    -0.883291344383    -0.726860911089    12.000000000000
         C           -3.627969225965     0.266709655617     0.582243088911    12.000000000000
         C           -2.681829225965    -1.527144344383    -0.736293911089    12.000000000000
         C           -3.772968225965    -0.958488344383    -0.074775911089    12.000000000000
         H            4.307721774035    -1.762975344383    -0.314671911089     1.007825032230
         H            4.026824774035    -0.825179344383     1.149679088911     1.007825032230
         H            4.413655774035     0.727720655617    -0.734098911089     1.007825032230
         H            3.132846774035    -0.044830344383    -1.673951911089     1.007825032230
         H            1.862357774035    -2.110633344383    -0.594431911089     1.007825032230
         H            2.341644774035    -2.621943344383     1.029245088911     1.007825032230
         H            2.762115774035     1.490266655617     0.949390088911     1.007825032230
         H            2.228031774035     2.013804655617    -0.654328911089     1.007825032230
         H            0.257632774035    -1.217180344383     1.070411088911     1.007825032230
         H            1.583036774035    -0.463447344383     1.967061088911     1.007825032230
         H           -2.276810225965     1.890716655617     1.057285088911     1.007825032230
         H           -0.596003225965    -1.312890344383    -1.257201911089     1.007825032230
         H           -4.479299225965     0.716775655617     1.087408088911     1.007825032230
         H           -2.797545225965    -2.469340344383    -1.266996911089     1.007825032230
         H           -4.735745225965    -1.463907344383    -0.078953911089     1.007825032230

  Basis Set: AUG-CC-PVTZ
    Blend: AUG-CC-PVTZ
  Basis Set: (AUG-CC-PVTZ AUX)
    Blend: AUG-CC-PVTZ-JKFIT
	 Reference Energy          =    -592.6807120179311141 [Eh]
	 Singles Energy            =      -0.0000000000000000 [Eh]
	 Same-Spin Energy          =      -0.6432912854599165 [Eh]
	 Opposite-Spin Energy      =      -2.0529477677548225 [Eh]
	 Correlation Energy        =      -2.6962390532147391 [Eh]
	 Total Energy              =    -595.3769510711458679 [Eh]

	 ================> DF-SCS-MP2 Energies <==================
	-----------------------------------------------------------
	 SCS Same-Spin Scale       =       0.3333333333333333 [-]
	 SCS Opposite-Spin Scale   =       1.2000000000000000 [-]
	 SCS Same-Spin Energy      =      -0.2144304284866388 [Eh]
	 SCS Opposite-Spin Energy  =      -2.4635373213057870 [Eh]
	 SCS Correlation Energy    =      -2.6779677497924257 [Eh]
	 SCS Total Energy          =    -595.3586797677235154 [Eh]
	-----------------------------------------------------------

  Dipole Moment: [D]
     X:     0.5369      Y:    -3.1672      Z:     1.0116     Total:     3.3679

*** Psi4 exiting successfully. Buy a developer a beer!
