                               Psi4 1.3.2 release

  ==> Input File <==

--------------------------------------------------------------------------
#psi4
#
memory 32 gb

molecule  {
0 1
  O       -0.0931590     2.3556990    -0.4150330
  N        1.0902530     0.4589530     0.1084880
  C        3.5423410    -1.0378250     0.1583630
  C        3.3922610     0.2419230    -0.6640150
  C        2.1860550    -1.7140940     0.3593590
  C        2.3020287     1.2567971    -0.0683103
  C        1.1838660    -0.7305840     0.9537980
  C       -0.0769430     1.1544410    -0.1174940
  C       -1.3555190     0.3759530    -0.0649830
  C       -2.4581180     0.9595770     0.5701650
  C       -1.5045770    -0.8456090    -0.7357740
  C       -3.6889550     0.3043920     0.5733300
  C       -2.7428150    -1.4894620    -0.7452070
  C       -3.8339540    -0.9208060    -0.0836890
  H        4.2467360    -1.7252930    -0.3235850
  H        3.9658390    -0.7874970     1.1407660
  H        4.3526700     0.7654030    -0.7430120
  H        3.0718610    -0.0071480    -1.6828650
  H        1.8013720    -2.0729510    -0.6033450
  H        2.2806590    -2.5842610     1.0203320
  H        2.7011300     1.5279490     0.9404770
  H        2.1670460     2.0514870    -0.6632420
  H        0.1966470    -1.1794980     1.0614980
  H        1.5220510    -0.4257650     1.9581480
  H       -2.3377960     1.9283990     1.0483720
  H       -0.6569890    -1.2752080    -1.2661150
  H       -4.5402850     0.7544580     1.0784950
  H       -2.8585310    -2.4316580    -1.2759100
  H       -4.7967310    -1.4262250    -0.0878670
units angstrom
no_reorient  #important for SAPT in psi4, default
symmetry c1  #important for SAPT in psi4, default
}

set PROPERTIES_ORIGIN ["COM"]
properties('MP2/aug-cc-pvtz', properties = ['dipole'])
--------------------------------------------------------------------------

    Molecular point group: c1
  Charge       = 0
  Multiplicity = 1
  Basis Set: AUG-CC-PVTZ
    Blend: AUG-CC-PVTZ
  Basis Set: (AUG-CC-PVTZ AUX)
    Blend: AUG-CC-PVTZ-JKFIT

    Orbital Energies [Eh]
    ---------------------

    Doubly Occupied:

       1A    -20.514756     2A    -15.582832     3A    -11.348999
       4A    -11.269620     5A    -11.252783     6A    -11.250653
       7A    -11.249491     8A    -11.247689     9A    -11.245449
      10A    -11.245356    11A    -11.243253    12A    -11.231190
      13A    -11.228812    14A    -11.226965    15A     -1.370221
      16A     -1.247148    17A     -1.160873    18A     -1.080261
      19A     -1.040830    20A     -1.023902    21A     -1.020360
      22A     -0.924010    23A     -0.869204    24A     -0.848254
      25A     -0.835807    26A     -0.790108    27A     -0.750042
      28A     -0.720486    29A     -0.682086    30A     -0.655209
      31A     -0.637866    32A     -0.631774    33A     -0.625775
      34A     -0.610811    35A     -0.600582    36A     -0.593425
      37A     -0.589362    38A     -0.570262    39A     -0.544858
      40A     -0.534307    41A     -0.511748    42A     -0.503352
      43A     -0.500349    44A     -0.496486    45A     -0.474076
      46A     -0.471234    47A     -0.462373    48A     -0.423175
      49A     -0.366058    50A     -0.344873    51A     -0.341953

  @DF-RHF Final Energy:  -592.67163377341035

   => Energetics <=

    Nuclear Repulsion Energy =            876.4109583912070320
    One-Electron Energy =               -2544.1824936187172170
    Two-Electron Energy =                1075.0999014540998360
    Total Energy =                       -592.6716337734103490
  Basis Set: (AUG-CC-PVTZ AUX)
    Blend: AUG-CC-PVTZ-RI
    Molecular point group: c1

    Geometry (in Angstrom), charge = 0, multiplicity = 1:

       Center              X                  Y                   Z               Mass
    ------------   -----------------  -----------------  -----------------  -----------------
         O           -0.031437579759     2.314344934902    -0.405102259239    15.994914619570
         N            1.151974420241     0.417598934902     0.118418740761    14.003074004430
         C            3.604062420241    -1.079179065098     0.168293740761    12.000000000000
         C            3.453982420241     0.200568934902    -0.654084259239    12.000000000000
         C            2.247776420241    -1.755448065098     0.369289740761    12.000000000000
         C            2.363750120241     1.215443034902    -0.058379559239    12.000000000000
         C            1.245587420241    -0.771938065098     0.963728740761    12.000000000000
         C           -0.015221579759     1.113086934902    -0.107563259239    12.000000000000
         C           -1.293797579759     0.334598934902    -0.055052259239    12.000000000000
         C           -2.396396579759     0.918222934902     0.580095740761    12.000000000000
         C           -1.442855579759    -0.886963065098    -0.725843259239    12.000000000000
         C           -3.627233579759     0.263037934902     0.583260740761    12.000000000000
         C           -2.681093579759    -1.530816065098    -0.735276259239    12.000000000000
         C           -3.772232579759    -0.962160065098    -0.073758259239    12.000000000000
         H            4.308457420241    -1.766647065098    -0.313654259239     1.007825032230
         H            4.027560420241    -0.828851065098     1.150696740761     1.007825032230
         H            4.414391420241     0.724048934902    -0.733081259239     1.007825032230
         H            3.133582420241    -0.048502065098    -1.672934259239     1.007825032230
         H            1.863093420241    -2.114305065098    -0.593414259239     1.007825032230
         H            2.342380420241    -2.625615065098     1.030262740761     1.007825032230
         H            2.762851420241     1.486594934902     0.950407740761     1.007825032230
         H            2.228767420241     2.010132934902    -0.653311259239     1.007825032230
         H            0.258368420241    -1.220852065098     1.071428740761     1.007825032230
         H            1.583772420241    -0.467119065098     1.968078740761     1.007825032230
         H           -2.276074579759     1.887044934902     1.058302740761     1.007825032230
         H           -0.595267579759    -1.316562065098    -1.256184259239     1.007825032230
         H           -4.478563579759     0.713103934902     1.088425740761     1.007825032230
         H           -2.796809579759    -2.473012065098    -1.265979259239     1.007825032230
         H           -4.735009579759    -1.467579065098    -0.077936259239     1.007825032230

  Basis Set: AUG-CC-PVTZ
    Blend: AUG-CC-PVTZ
  Basis Set: (AUG-CC-PVTZ AUX)
    Blend: AUG-CC-PVTZ-JKFIT
	 Reference Energy          =    -592.6716337734103490 [Eh]
	 Singles Energy            =      -0.0000000000000000 [Eh]
	 Same-Spin Energy          =      -0.6430951072040739 [Eh]
	 Opposite-Spin Energy      =      -2.0533074572309933 [Eh]
	 Correlation Energy        =      -2.6964025644350671 [Eh]
	 Total Energy              =    -595.3680363378454103 [Eh]

	 ================> DF-SCS-MP2 Energies <==================
	-----------------------------------------------------------
	 SCS Same-Spin Scale       =       0.3333333333333333 [-]
	 SCS Opposite-Spin Scale   =       1.2000000000000000 [-]
	 SCS Same-Spin Energy      =      -0.2143650357346913 [Eh]
	 SCS Opposite-Spin Energy  =      -2.4639689486771919 [Eh]
	 SCS Correlation Energy    =      -2.6783339844118830 [Eh]
	 SCS Total Energy          =    -595.3499677578222418 [Eh]
	-----------------------------------------------------------

  Dipole Moment: [D]
     X:     1.0156      Y:    -3.3996      Z:     1.1396     Total:     3.7266

*** Psi4 exiting successfully. Buy a developer a beer!
