                               Psi4 1.3.2 release

  ==> Input File <==

--------------------------------------------------------------------------
#psi4
#
memory 32 gb

molecule  {
0 1
  O       -0.0931590     2.3556990    -0.4150330
  N        1.0902530     0.4589530     0.1084880
  C        3.5423410    -1.0378250     0.1583630
  C        3.3922610     0.2419230    -0.6640150
  C        2.1860550    -1.7140940     0.3593590
  C        2.3559930     1.1736850    -0.0440690
  C        1.1838660    -0.7305840     0.9537980
  C       -0.0769430     1.1544410    -0.1174940
  C       -1.3419549     0.3952905    -0.0587350
  C       -2.4581180     0.9595770     0.5701650
  C       -1.5045770    -0.8456090    -0.7357740
  C       -3.6889550     0.3043920     0.5733300
  C       -2.7428150    -1.4894620    -0.7452070
  C       -3.8339540    -0.9208060    -0.0836890
  H        4.2467360    -1.7252930    -0.3235850
  H        3.9658390    -0.7874970     1.1407660
  H        4.3526700     0.7654030    -0.7430120
  H        3.0718610    -0.0071480    -1.6828650
  H        1.8013720    -2.0729510    -0.6033450
  H        2.2806590    -2.5842610     1.0203320
  H        2.7011300     1.5279490     0.9404770
  H        2.1670460     2.0514870    -0.6632420
  H        0.1966470    -1.1794980     1.0614980
  H        1.5220510    -0.4257650     1.9581480
  H       -2.3377960     1.9283990     1.0483720
  H       -0.6569890    -1.2752080    -1.2661150
  H       -4.5402850     0.7544580     1.0784950
  H       -2.8585310    -2.4316580    -1.2759100
  H       -4.7967310    -1.4262250    -0.0878670
units angstrom
no_reorient  #important for SAPT in psi4, default
symmetry c1  #important for SAPT in psi4, default
}

set PROPERTIES_ORIGIN ["COM"]
properties('MP2/aug-cc-pvtz', properties = ['dipole'])
--------------------------------------------------------------------------

    Molecular point group: c1
  Charge       = 0
  Multiplicity = 1
  Basis Set: AUG-CC-PVTZ
    Blend: AUG-CC-PVTZ
  Basis Set: (AUG-CC-PVTZ AUX)
    Blend: AUG-CC-PVTZ-JKFIT

    Orbital Energies [Eh]
    ---------------------

    Doubly Occupied:

       1A    -20.514179     2A    -15.581659     3A    -11.349196
       4A    -11.267088     5A    -11.253345     6A    -11.253177
       7A    -11.251170     8A    -11.248683     9A    -11.246369
      10A    -11.245748    11A    -11.243690    12A    -11.230928
      13A    -11.227873    14A    -11.225012    15A     -1.369592
      16A     -1.248171    17A     -1.159391    18A     -1.084103
      19A     -1.041341    20A     -1.026338    21A     -1.021679
      22A     -0.925454    23A     -0.868685    24A     -0.847850
      25A     -0.834571    26A     -0.792854    27A     -0.748165
      28A     -0.720530    29A     -0.682575    30A     -0.652012
      31A     -0.638597    32A     -0.630668    33A     -0.625367
      34A     -0.609839    35A     -0.601614    36A     -0.593029
      37A     -0.588899    38A     -0.560603    39A     -0.550659
      40A     -0.534428    41A     -0.514643    42A     -0.502740
      43A     -0.501142    44A     -0.494435    45A     -0.478561
      46A     -0.468962    47A     -0.460656    48A     -0.423918
      49A     -0.369554    50A     -0.344850    51A     -0.341154

  @DF-RHF Final Energy:  -592.68163262962980

   => Energetics <=

    Nuclear Repulsion Energy =            877.0445431735823831
    One-Electron Energy =               -2545.4608671119099199
    Two-Electron Energy =                1075.7346913086976201
    Total Energy =                       -592.6816326296298030
  Basis Set: (AUG-CC-PVTZ AUX)
    Blend: AUG-CC-PVTZ-RI
    Molecular point group: c1

    Geometry (in Angstrom), charge = 0, multiplicity = 1:

       Center              X                  Y                   Z               Mass
    ------------   -----------------  -----------------  -----------------  -----------------
         O           -0.035722481749     2.318391645774    -0.407036906917    15.994914619570
         N            1.147689518251     0.421645645774     0.116484093083    14.003074004430
         C            3.599777518251    -1.075132354226     0.166359093083    12.000000000000
         C            3.449697518251     0.204615645774    -0.656018906917    12.000000000000
         C            2.243491518251    -1.751401354226     0.367355093083    12.000000000000
         C            2.413429518251     1.136377645774    -0.036072906917    12.000000000000
         C            1.241302518251    -0.767891354226     0.961794093083    12.000000000000
         C           -0.019506481749     1.117133645774    -0.109497906917    12.000000000000
         C           -1.284518381749     0.357983145774    -0.050738906917    12.000000000000
         C           -2.400681481749     0.922269645774     0.578161093083    12.000000000000
         C           -1.447140481749    -0.882916354226    -0.727777906917    12.000000000000
         C           -3.631518481749     0.267084645774     0.581326093083    12.000000000000
         C           -2.685378481749    -1.526769354226    -0.737210906917    12.000000000000
         C           -3.776517481749    -0.958113354226    -0.075692906917    12.000000000000
         H            4.304172518251    -1.762600354226    -0.315588906917     1.007825032230
         H            4.023275518251    -0.824804354226     1.148762093083     1.007825032230
         H            4.410106518251     0.728095645774    -0.735015906917     1.007825032230
         H            3.129297518251    -0.044455354226    -1.674868906917     1.007825032230
         H            1.858808518251    -2.110258354226    -0.595348906917     1.007825032230
         H            2.338095518251    -2.621568354226     1.028328093083     1.007825032230
         H            2.758566518251     1.490641645774     0.948473093083     1.007825032230
         H            2.224482518251     2.014179645774    -0.655245906917     1.007825032230
         H            0.254083518251    -1.216805354226     1.069494093083     1.007825032230
         H            1.579487518251    -0.463072354226     1.966144093083     1.007825032230
         H           -2.280359481749     1.891091645774     1.056368093083     1.007825032230
         H           -0.599552481749    -1.312515354226    -1.258118906917     1.007825032230
         H           -4.482848481749     0.717150645774     1.086491093083     1.007825032230
         H           -2.801094481749    -2.468965354226    -1.267913906917     1.007825032230
         H           -4.739294481749    -1.463532354226    -0.079870906917     1.007825032230

  Basis Set: AUG-CC-PVTZ
    Blend: AUG-CC-PVTZ
  Basis Set: (AUG-CC-PVTZ AUX)
    Blend: AUG-CC-PVTZ-JKFIT
	 Reference Energy          =    -592.6816326296298030 [Eh]
	 Singles Energy            =      -0.0000000000000000 [Eh]
	 Same-Spin Energy          =      -0.6436599254809923 [Eh]
	 Opposite-Spin Energy      =      -2.0536998323186939 [Eh]
	 Correlation Energy        =      -2.6973597577996862 [Eh]
	 Total Energy              =    -595.3789923874294345 [Eh]

	 ================> DF-SCS-MP2 Energies <==================
	-----------------------------------------------------------
	 SCS Same-Spin Scale       =       0.3333333333333333 [-]
	 SCS Opposite-Spin Scale   =       1.2000000000000000 [-]
	 SCS Same-Spin Energy      =      -0.2145533084936641 [Eh]
	 SCS Opposite-Spin Energy  =      -2.4644397987824327 [Eh]
	 SCS Correlation Energy    =      -2.6789931072760966 [Eh]
	 SCS Total Energy          =    -595.3606257369059449 [Eh]
	-----------------------------------------------------------

  Dipole Moment: [D]
     X:     1.0074      Y:    -3.4107      Z:     1.1248     Total:     3.7300

*** Psi4 exiting successfully. Buy a developer a beer!
