                               Psi4 1.3.2 release

  ==> Input File <==

--------------------------------------------------------------------------
#psi4
#
memory 32 gb

molecule  {
0 1
  O       -0.0931590     2.3556990    -0.4150330
  N        1.0902530     0.4589530     0.1084880
  C        3.5423410    -1.0378250     0.1583630
  C        3.3922610     0.2419230    -0.6640150
  C        2.1860550    -1.7140940     0.3593590
  C        2.3559930     1.1736850    -0.0440690
  C        1.1838660    -0.7305840     0.9537980
  C       -0.0769430     1.1544410    -0.1174940
  C       -1.1847976     0.4799003    -0.0719945
  C       -2.4581180     0.9595770     0.5701650
  C       -1.5045770    -0.8456090    -0.7357740
  C       -3.6889550     0.3043920     0.5733300
  C       -2.7428150    -1.4894620    -0.7452070
  C       -3.8339540    -0.9208060    -0.0836890
  H        4.2467360    -1.7252930    -0.3235850
  H        3.9658390    -0.7874970     1.1407660
  H        4.3526700     0.7654030    -0.7430120
  H        3.0718610    -0.0071480    -1.6828650
  H        1.8013720    -2.0729510    -0.6033450
  H        2.2806590    -2.5842610     1.0203320
  H        2.7011300     1.5279490     0.9404770
  H        2.1670460     2.0514870    -0.6632420
  H        0.1966470    -1.1794980     1.0614980
  H        1.5220510    -0.4257650     1.9581480
  H       -2.3377960     1.9283990     1.0483720
  H       -0.6569890    -1.2752080    -1.2661150
  H       -4.5402850     0.7544580     1.0784950
  H       -2.8585310    -2.4316580    -1.2759100
  H       -4.7967310    -1.4262250    -0.0878670
units angstrom
no_reorient  #important for SAPT in psi4, default
symmetry c1  #important for SAPT in psi4, default
}

set PROPERTIES_ORIGIN ["COM"]
properties('MP2/aug-cc-pvtz', properties = ['dipole'])
--------------------------------------------------------------------------

    Molecular point group: c1
  Charge       = 0
  Multiplicity = 1
  Basis Set: AUG-CC-PVTZ
    Blend: AUG-CC-PVTZ
  Basis Set: (AUG-CC-PVTZ AUX)
    Blend: AUG-CC-PVTZ-JKFIT

    Orbital Energies [Eh]
    ---------------------

    Doubly Occupied:

       1A    -20.508924     2A    -15.578108     3A    -11.333231
       4A    -11.270572     5A    -11.265161     6A    -11.265145
       7A    -11.258426     8A    -11.256071     9A    -11.251147
      10A    -11.249305    11A    -11.247035    12A    -11.229622
      13A    -11.226548    14A    -11.223471    15A     -1.373635
      16A     -1.247477    17A     -1.150163    18A     -1.088631
      19A     -1.051122    20A     -1.024950    21A     -1.019629
      22A     -0.934024    23A     -0.880028    24A     -0.854384
      25A     -0.827354    26A     -0.789433    27A     -0.750605
      28A     -0.723553    29A     -0.694924    30A     -0.654405
      31A     -0.640206    32A     -0.629450    33A     -0.622374
      34A     -0.606117    35A     -0.600955    36A     -0.590821
      37A     -0.586144    38A     -0.559192    39A     -0.550604
      40A     -0.538462    41A     -0.526789    42A     -0.500585
      43A     -0.493839    44A     -0.478174    45A     -0.469141
      46A     -0.465187    47A     -0.459065    48A     -0.428266
      49A     -0.367723    50A     -0.346449    51A     -0.330031

  @DF-RHF Final Energy:  -592.61899090649842

   => Energetics <=

    Nuclear Repulsion Energy =            877.9182056701042711
    One-Electron Energy =               -2547.0410772985405856
    Two-Electron Energy =                1076.5038807219377759
    Total Energy =                       -592.6189909064985386
  Basis Set: (AUG-CC-PVTZ AUX)
    Blend: AUG-CC-PVTZ-RI
    Molecular point group: c1

    Geometry (in Angstrom), charge = 0, multiplicity = 1:

       Center              X                  Y                   Z               Mass
    ------------   -----------------  -----------------  -----------------  -----------------
         O           -0.045694636095     2.313022872037    -0.406195547460    15.994914619570
         N            1.137717363905     0.416276872037     0.117325452540    14.003074004430
         C            3.589805363905    -1.080501127963     0.167200452540    12.000000000000
         C            3.439725363905     0.199246872037    -0.655177547460    12.000000000000
         C            2.233519363905    -1.756770127963     0.368196452540    12.000000000000
         C            2.403457363905     1.131008872037    -0.035231547460    12.000000000000
         C            1.231330363905    -0.773260127963     0.962635452540    12.000000000000
         C           -0.029478636095     1.111764872037    -0.108656547460    12.000000000000
         C           -1.137333236095     0.437224172037    -0.063157047460    12.000000000000
         C           -2.410653636095     0.916900872037     0.579002452540    12.000000000000
         C           -1.457112636095    -0.888285127963    -0.726936547460    12.000000000000
         C           -3.641490636095     0.261715872037     0.582167452540    12.000000000000
         C           -2.695350636095    -1.532138127963    -0.736369547460    12.000000000000
         C           -3.786489636095    -0.963482127963    -0.074851547460    12.000000000000
         H            4.294200363905    -1.767969127963    -0.314747547460     1.007825032230
         H            4.013303363905    -0.830173127963     1.149603452540     1.007825032230
         H            4.400134363905     0.722726872037    -0.734174547460     1.007825032230
         H            3.119325363905    -0.049824127963    -1.674027547460     1.007825032230
         H            1.848836363905    -2.115627127963    -0.594507547460     1.007825032230
         H            2.328123363905    -2.626937127963     1.029169452540     1.007825032230
         H            2.748594363905     1.485272872037     0.949314452540     1.007825032230
         H            2.214510363905     2.008810872037    -0.654404547460     1.007825032230
         H            0.244111363905    -1.222174127963     1.070335452540     1.007825032230
         H            1.569515363905    -0.468441127963     1.966985452540     1.007825032230
         H           -2.290331636095     1.885722872037     1.057209452540     1.007825032230
         H           -0.609524636095    -1.317884127963    -1.257277547460     1.007825032230
         H           -4.492820636095     0.711781872037     1.087332452540     1.007825032230
         H           -2.811066636095    -2.474334127963    -1.267072547460     1.007825032230
         H           -4.749266636095    -1.468901127963    -0.079029547460     1.007825032230

  Basis Set: AUG-CC-PVTZ
    Blend: AUG-CC-PVTZ
  Basis Set: (AUG-CC-PVTZ AUX)
    Blend: AUG-CC-PVTZ-JKFIT
	 Reference Energy          =    -592.6189909064984249 [Eh]
	 Singles Energy            =      -0.0000000000000000 [Eh]
	 Same-Spin Energy          =      -0.6479066807669386 [Eh]
	 Opposite-Spin Energy      =      -2.0612977859430361 [Eh]
	 Correlation Energy        =      -2.7092044667099748 [Eh]
	 Total Energy              =    -595.3281953732083593 [Eh]

	 ================> DF-SCS-MP2 Energies <==================
	-----------------------------------------------------------
	 SCS Same-Spin Scale       =       0.3333333333333333 [-]
	 SCS Opposite-Spin Scale   =       1.2000000000000000 [-]
	 SCS Same-Spin Energy      =      -0.2159688935889795 [Eh]
	 SCS Opposite-Spin Energy  =      -2.4735573431316431 [Eh]
	 SCS Correlation Energy    =      -2.6895262367206225 [Eh]
	 SCS Total Energy          =    -595.3085171432190918 [Eh]
	-----------------------------------------------------------

  Dipole Moment: [D]
     X:     0.7618      Y:    -3.5374      Z:     1.1211     Total:     3.7882

*** Psi4 exiting successfully. Buy a developer a beer!
