                               Psi4 1.3.2 release

  ==> Input File <==

--------------------------------------------------------------------------
#psi4
#
memory 32 gb

molecule  {
0 1
  O       -0.0931590     2.3556990    -0.4150330
  N        1.1595138     0.5839644     0.0895062
  C        3.5423410    -1.0378250     0.1583630
  C        3.3922610     0.2419230    -0.6640150
  C        2.1860550    -1.7140940     0.3593590
  C        2.3559930     1.1736850    -0.0440690
  C        1.1838660    -0.7305840     0.9537980
  C       -0.0769430     1.1544410    -0.1174940
  C       -1.3555190     0.3759530    -0.0649830
  C       -2.4581180     0.9595770     0.5701650
  C       -1.5045770    -0.8456090    -0.7357740
  C       -3.6889550     0.3043920     0.5733300
  C       -2.7428150    -1.4894620    -0.7452070
  C       -3.8339540    -0.9208060    -0.0836890
  H        4.2467360    -1.7252930    -0.3235850
  H        3.9658390    -0.7874970     1.1407660
  H        4.3526700     0.7654030    -0.7430120
  H        3.0718610    -0.0071480    -1.6828650
  H        1.8013720    -2.0729510    -0.6033450
  H        2.2806590    -2.5842610     1.0203320
  H        2.7011300     1.5279490     0.9404770
  H        2.1670460     2.0514870    -0.6632420
  H        0.1966470    -1.1794980     1.0614980
  H        1.5220510    -0.4257650     1.9581480
  H       -2.3377960     1.9283990     1.0483720
  H       -0.6569890    -1.2752080    -1.2661150
  H       -4.5402850     0.7544580     1.0784950
  H       -2.8585310    -2.4316580    -1.2759100
  H       -4.7967310    -1.4262250    -0.0878670
units angstrom
no_reorient  #important for SAPT in psi4, default
symmetry c1  #important for SAPT in psi4, default
}

set PROPERTIES_ORIGIN ["COM"]
properties('MP2/aug-cc-pvtz', properties = ['dipole'])
--------------------------------------------------------------------------

    Molecular point group: c1
  Charge       = 0
  Multiplicity = 1
  Basis Set: AUG-CC-PVTZ
    Blend: AUG-CC-PVTZ
  Basis Set: (AUG-CC-PVTZ AUX)
    Blend: AUG-CC-PVTZ-JKFIT

    Orbital Energies [Eh]
    ---------------------

    Doubly Occupied:

       1A    -20.507908     2A    -15.578197     3A    -11.349062
       4A    -11.273425     5A    -11.256706     6A    -11.253170
       7A    -11.250362     8A    -11.248860     9A    -11.247795
      10A    -11.245766    11A    -11.242448    12A    -11.232985
      13A    -11.227472    14A    -11.222496    15A     -1.370269
      16A     -1.249863    17A     -1.164199    18A     -1.082522
      19A     -1.048266    20A     -1.026633    21A     -1.021026
      22A     -0.924582    23A     -0.874079    24A     -0.845291
      25A     -0.836390    26A     -0.795696    27A     -0.744875
      28A     -0.723427    29A     -0.683383    30A     -0.646900
      31A     -0.643552    32A     -0.636255    33A     -0.625429
      34A     -0.613684    35A     -0.603244    36A     -0.597304
      37A     -0.591048    38A     -0.554980    39A     -0.550664
      40A     -0.530311    41A     -0.516570    42A     -0.505442
      43A     -0.503229    44A     -0.495760    45A     -0.478437
      46A     -0.472690    47A     -0.448472    48A     -0.421546
      49A     -0.359348    50A     -0.347332    51A     -0.344722

  @DF-RHF Final Energy:  -592.66057042556781

   => Energetics <=

    Nuclear Repulsion Energy =            876.6467609526567912
    One-Electron Energy =               -2544.5865253220299564
    Two-Electron Energy =                1075.2791939438054669
    Total Energy =                       -592.6605704255678120
  Basis Set: (AUG-CC-PVTZ AUX)
    Blend: AUG-CC-PVTZ-RI
    Molecular point group: c1

    Geometry (in Angstrom), charge = 0, multiplicity = 1:

       Center              X                  Y                   Z               Mass
    ------------   -----------------  -----------------  -----------------  -----------------
         O           -0.039990220184     2.310362187709    -0.405234940420    15.994914619570
         N            1.212682579816     0.538627587709     0.099304259580    14.003074004430
         C            3.595509779816    -1.083161812291     0.168161059580    12.000000000000
         C            3.445429779816     0.196586187709    -0.654216940420    12.000000000000
         C            2.239223779816    -1.759430812291     0.369157059580    12.000000000000
         C            2.409161779816     1.128348187709    -0.034270940420    12.000000000000
         C            1.237034779816    -0.775920812291     0.963596059580    12.000000000000
         C           -0.023774220184     1.109104187709    -0.107695940420    12.000000000000
         C           -1.302350220184     0.330616187709    -0.055184940420    12.000000000000
         C           -2.404949220184     0.914240187709     0.579963059580    12.000000000000
         C           -1.451408220184    -0.890945812291    -0.725975940420    12.000000000000
         C           -3.635786220184     0.259055187709     0.583128059580    12.000000000000
         C           -2.689646220184    -1.534798812291    -0.735408940420    12.000000000000
         C           -3.780785220184    -0.966142812291    -0.073890940420    12.000000000000
         H            4.299904779816    -1.770629812291    -0.313786940420     1.007825032230
         H            4.019007779816    -0.832833812291     1.150564059580     1.007825032230
         H            4.405838779816     0.720066187709    -0.733213940420     1.007825032230
         H            3.125029779816    -0.052484812291    -1.673066940420     1.007825032230
         H            1.854540779816    -2.118287812291    -0.593546940420     1.007825032230
         H            2.333827779816    -2.629597812291     1.030130059580     1.007825032230
         H            2.754298779816     1.482612187709     0.950275059580     1.007825032230
         H            2.220214779816     2.006150187709    -0.653443940420     1.007825032230
         H            0.249815779816    -1.224834812291     1.071296059580     1.007825032230
         H            1.575219779816    -0.471101812291     1.967946059580     1.007825032230
         H           -2.284627220184     1.883062187709     1.058170059580     1.007825032230
         H           -0.603820220184    -1.320544812291    -1.256316940420     1.007825032230
         H           -4.487116220184     0.709121187709     1.088293059580     1.007825032230
         H           -2.805362220184    -2.476994812291    -1.266111940420     1.007825032230
         H           -4.743562220184    -1.471561812291    -0.078068940420     1.007825032230

  Basis Set: AUG-CC-PVTZ
    Blend: AUG-CC-PVTZ
  Basis Set: (AUG-CC-PVTZ AUX)
    Blend: AUG-CC-PVTZ-JKFIT
	 Reference Energy          =    -592.6605704255678120 [Eh]
	 Singles Energy            =      -0.0000000000000000 [Eh]
	 Same-Spin Energy          =      -0.6441567695833261 [Eh]
	 Opposite-Spin Energy      =      -2.0544246386469047 [Eh]
	 Correlation Energy        =      -2.6985814082302308 [Eh]
	 Total Energy              =    -595.3591518337980233 [Eh]

	 ================> DF-SCS-MP2 Energies <==================
	-----------------------------------------------------------
	 SCS Same-Spin Scale       =       0.3333333333333333 [-]
	 SCS Opposite-Spin Scale   =       1.2000000000000000 [-]
	 SCS Same-Spin Energy      =      -0.2147189231944420 [Eh]
	 SCS Opposite-Spin Energy  =      -2.4653095663762854 [Eh]
	 SCS Correlation Energy    =      -2.6800284895707276 [Eh]
	 SCS Total Energy          =    -595.3405989151385711 [Eh]
	-----------------------------------------------------------

  Dipole Moment: [D]
     X:     0.7550      Y:    -3.7052      Z:     1.1646     Total:     3.9567

*** Psi4 exiting successfully. Buy a developer a beer!
