                               Psi4 1.3.2 release

  ==> Input File <==

--------------------------------------------------------------------------
#psi4
#
memory 32 gb

molecule  {
0 1
  O       -0.0931590     2.3556990    -0.4150330
  N        1.0902530     0.4589530     0.1084880
  C        3.5423410    -1.0378250     0.1583630
  C        3.3922610     0.2419230    -0.6640150
  C        2.1860550    -1.7140940     0.3593590
  C        2.3559930     1.1736850    -0.0440690
  C        1.1838660    -0.7305840     0.9537980
  C       -0.0743226     0.9603241    -0.0694133
  C       -1.3555190     0.3759530    -0.0649830
  C       -2.4581180     0.9595770     0.5701650
  C       -1.5045770    -0.8456090    -0.7357740
  C       -3.6889550     0.3043920     0.5733300
  C       -2.7428150    -1.4894620    -0.7452070
  C       -3.8339540    -0.9208060    -0.0836890
  H        4.2467360    -1.7252930    -0.3235850
  H        3.9658390    -0.7874970     1.1407660
  H        4.3526700     0.7654030    -0.7430120
  H        3.0718610    -0.0071480    -1.6828650
  H        1.8013720    -2.0729510    -0.6033450
  H        2.2806590    -2.5842610     1.0203320
  H        2.7011300     1.5279490     0.9404770
  H        2.1670460     2.0514870    -0.6632420
  H        0.1966470    -1.1794980     1.0614980
  H        1.5220510    -0.4257650     1.9581480
  H       -2.3377960     1.9283990     1.0483720
  H       -0.6569890    -1.2752080    -1.2661150
  H       -4.5402850     0.7544580     1.0784950
  H       -2.8585310    -2.4316580    -1.2759100
  H       -4.7967310    -1.4262250    -0.0878670
units angstrom
no_reorient  #important for SAPT in psi4, default
symmetry c1  #important for SAPT in psi4, default
}

set PROPERTIES_ORIGIN ["COM"]
properties('MP2/aug-cc-pvtz', properties = ['dipole'])
--------------------------------------------------------------------------

    Molecular point group: c1
  Charge       = 0
  Multiplicity = 1
  Basis Set: AUG-CC-PVTZ
    Blend: AUG-CC-PVTZ
  Basis Set: (AUG-CC-PVTZ AUX)
    Blend: AUG-CC-PVTZ-JKFIT

    Orbital Energies [Eh]
    ---------------------

    Doubly Occupied:

       1A    -20.472994     2A    -15.608512     3A    -11.344862
       4A    -11.276439     5A    -11.264922     6A    -11.254370
       7A    -11.252929     8A    -11.251617     9A    -11.250287
      10A    -11.247755    11A    -11.245873    12A    -11.238723
      13A    -11.234968    14A    -11.233324    15A     -1.331640
      16A     -1.204436    17A     -1.163466    18A     -1.097152
      19A     -1.054622    20A     -1.034491    21A     -1.026346
      22A     -0.947468    23A     -0.881957    24A     -0.859184
      25A     -0.840386    26A     -0.806306    27A     -0.756849
      28A     -0.732510    29A     -0.683710    30A     -0.657686
      31A     -0.647660    32A     -0.641995    33A     -0.625672
      34A     -0.614832    35A     -0.600266    36A     -0.597691
      37A     -0.589650    38A     -0.561199    39A     -0.535058
      40A     -0.526348    41A     -0.515458    42A     -0.509579
      43A     -0.498684    44A     -0.488178    45A     -0.478581
      46A     -0.465834    47A     -0.454311    48A     -0.391156
      49A     -0.359227    50A     -0.347283    51A     -0.335949

  @DF-RHF Final Energy:  -592.62040932408979

   => Energetics <=

    Nuclear Repulsion Energy =            878.1922881274985002
    One-Electron Energy =               -2547.5446071805954489
    Two-Electron Energy =                1076.7319097290069294
    Total Energy =                       -592.6204093240899056
  Basis Set: (AUG-CC-PVTZ AUX)
    Blend: AUG-CC-PVTZ-RI
    Molecular point group: c1

    Geometry (in Angstrom), charge = 0, multiplicity = 1:

       Center              X                  Y                   Z               Mass
    ------------   -----------------  -----------------  -----------------  -----------------
         O           -0.035028067519     2.331936038701    -0.409691331122    15.994914619570
         N            1.148383932481     0.435190038701     0.113829668878    14.003074004430
         C            3.600471932481    -1.061587961299     0.163704668878    12.000000000000
         C            3.450391932481     0.218160038701    -0.658673331122    12.000000000000
         C            2.244185932481    -1.737856961299     0.364700668878    12.000000000000
         C            2.414123932481     1.149922038701    -0.038727331122    12.000000000000
         C            1.241996932481    -0.754346961299     0.959139668878    12.000000000000
         C           -0.016191667519     0.936561138701    -0.064071631122    12.000000000000
         C           -1.297388067519     0.352190038701    -0.059641331122    12.000000000000
         C           -2.399987067519     0.935814038701     0.575506668878    12.000000000000
         C           -1.446446067519    -0.869371961299    -0.730432331122    12.000000000000
         C           -3.630824067519     0.280629038701     0.578671668878    12.000000000000
         C           -2.684684067519    -1.513224961299    -0.739865331122    12.000000000000
         C           -3.775823067519    -0.944568961299    -0.078347331122    12.000000000000
         H            4.304866932481    -1.749055961299    -0.318243331122     1.007825032230
         H            4.023969932481    -0.811259961299     1.146107668878     1.007825032230
         H            4.410800932481     0.741640038701    -0.737670331122     1.007825032230
         H            3.129991932481    -0.030910961299    -1.677523331122     1.007825032230
         H            1.859502932481    -2.096713961299    -0.598003331122     1.007825032230
         H            2.338789932481    -2.608023961299     1.025673668878     1.007825032230
         H            2.759260932481     1.504186038701     0.945818668878     1.007825032230
         H            2.225176932481     2.027724038701    -0.657900331122     1.007825032230
         H            0.254777932481    -1.203260961299     1.066839668878     1.007825032230
         H            1.580181932481    -0.449527961299     1.963489668878     1.007825032230
         H           -2.279665067519     1.904636038701     1.053713668878     1.007825032230
         H           -0.598858067519    -1.298970961299    -1.260773331122     1.007825032230
         H           -4.482154067519     0.730695038701     1.083836668878     1.007825032230
         H           -2.800400067519    -2.455420961299    -1.270568331122     1.007825032230
         H           -4.738600067519    -1.449987961299    -0.082525331122     1.007825032230

  Basis Set: AUG-CC-PVTZ
    Blend: AUG-CC-PVTZ
  Basis Set: (AUG-CC-PVTZ AUX)
    Blend: AUG-CC-PVTZ-JKFIT
	 Reference Energy          =    -592.6204093240897919 [Eh]
	 Singles Energy            =      -0.0000000000000000 [Eh]
	 Same-Spin Energy          =      -0.6482686755573451 [Eh]
	 Opposite-Spin Energy      =      -2.0628171380221061 [Eh]
	 Correlation Energy        =      -2.7110858135794511 [Eh]
	 Total Energy              =    -595.3314951376692079 [Eh]

	 ================> DF-SCS-MP2 Energies <==================
	-----------------------------------------------------------
	 SCS Same-Spin Scale       =       0.3333333333333333 [-]
	 SCS Opposite-Spin Scale   =       1.2000000000000000 [-]
	 SCS Same-Spin Energy      =      -0.2160895585191150 [Eh]
	 SCS Opposite-Spin Energy  =      -2.4753805656265273 [Eh]
	 SCS Correlation Energy    =      -2.6914701241456425 [Eh]
	 SCS Total Energy          =    -595.3118794482354588 [Eh]
	-----------------------------------------------------------

  Dipole Moment: [D]
     X:     1.6231      Y:    -4.5579      Z:     1.4541     Total:     5.0521

*** Psi4 exiting successfully. Buy a developer a beer!
