                               Psi4 1.3.2 release

  ==> Input File <==

--------------------------------------------------------------------------
#psi4
#
memory 32 gb

molecule  {
0 1
  O       -0.0931590     2.3556990    -0.4150330
  N        1.0902530     0.4589530     0.1084880
  C        3.5423410    -1.0378250     0.1583630
  C        3.3922610     0.2419230    -0.6640150
  C        2.1860550    -1.7140940     0.3593590
  C        2.3559930     1.1736850    -0.0440690
  C        1.1838660    -0.7305840     0.9537980
  C       -0.0885537     1.1739460    -0.1045265
  C       -1.3555190     0.3759530    -0.0649830
  C       -2.4581180     0.9595770     0.5701650
  C       -1.5045770    -0.8456090    -0.7357740
  C       -3.6889550     0.3043920     0.5733300
  C       -2.7428150    -1.4894620    -0.7452070
  C       -3.8339540    -0.9208060    -0.0836890
  H        4.2467360    -1.7252930    -0.3235850
  H        3.9658390    -0.7874970     1.1407660
  H        4.3526700     0.7654030    -0.7430120
  H        3.0718610    -0.0071480    -1.6828650
  H        1.8013720    -2.0729510    -0.6033450
  H        2.2806590    -2.5842610     1.0203320
  H        2.7011300     1.5279490     0.9404770
  H        2.1670460     2.0514870    -0.6632420
  H        0.1966470    -1.1794980     1.0614980
  H        1.5220510    -0.4257650     1.9581480
  H       -2.3377960     1.9283990     1.0483720
  H       -0.6569890    -1.2752080    -1.2661150
  H       -4.5402850     0.7544580     1.0784950
  H       -2.8585310    -2.4316580    -1.2759100
  H       -4.7967310    -1.4262250    -0.0878670
units angstrom
no_reorient  #important for SAPT in psi4, default
symmetry c1  #important for SAPT in psi4, default
}

set PROPERTIES_ORIGIN ["COM"]
properties('MP2/aug-cc-pvtz', properties = ['dipole'])
--------------------------------------------------------------------------

    Molecular point group: c1
  Charge       = 0
  Multiplicity = 1
  Basis Set: AUG-CC-PVTZ
    Blend: AUG-CC-PVTZ
  Basis Set: (AUG-CC-PVTZ AUX)
    Blend: AUG-CC-PVTZ-JKFIT

    Orbital Energies [Eh]
    ---------------------

    Doubly Occupied:

       1A    -20.519249     2A    -15.578451     3A    -11.350808
       4A    -11.265205     5A    -11.251806     6A    -11.251315
       7A    -11.250146     8A    -11.248105     9A    -11.245834
      10A    -11.245739    11A    -11.243532    12A    -11.229727
      13A    -11.226835    14A    -11.223914    15A     -1.379265
      16A     -1.245119    17A     -1.161409    18A     -1.081534
      19A     -1.040150    20A     -1.025482    21A     -1.022557
      22A     -0.921078    23A     -0.866238    24A     -0.846023
      25A     -0.835663    26A     -0.791420    27A     -0.747228
      28A     -0.719221    29A     -0.681847    30A     -0.651796
      31A     -0.638250    32A     -0.629413    33A     -0.626487
      34A     -0.610608    35A     -0.601742    36A     -0.593780
      37A     -0.588859    38A     -0.560149    39A     -0.550799
      40A     -0.535619    41A     -0.514486    42A     -0.503961
      43A     -0.501246    44A     -0.496329    45A     -0.478830
      46A     -0.468038    47A     -0.459359    48A     -0.424324
      49A     -0.368531    50A     -0.345121    51A     -0.342881

  @DF-RHF Final Energy:  -592.68307663271082

   => Energetics <=

    Nuclear Repulsion Energy =            876.9038203307310368
    One-Electron Energy =               -2545.2027763875175879
    Two-Electron Energy =                1075.6158794240759562
    Total Energy =                       -592.6830766327107085
  Basis Set: (AUG-CC-PVTZ AUX)
    Blend: AUG-CC-PVTZ-RI
    Molecular point group: c1

    Geometry (in Angstrom), charge = 0, multiplicity = 1:

       Center              X                  Y                   Z               Mass
    ------------   -----------------  -----------------  -----------------  -----------------
         O           -0.034125056805     2.318381017341    -0.407463281582    15.994914619570
         N            1.149286943195     0.421635017341     0.116057718418    14.003074004430
         C            3.601374943195    -1.075142982659     0.165932718418    12.000000000000
         C            3.451294943195     0.204605017341    -0.656445281582    12.000000000000
         C            2.245088943195    -1.751411982659     0.366928718418    12.000000000000
         C            2.415026943195     1.136367017341    -0.036499281582    12.000000000000
         C            1.242899943195    -0.767901982659     0.961367718418    12.000000000000
         C           -0.029519756805     1.136628017341    -0.096956781582    12.000000000000
         C           -1.296485056805     0.338635017341    -0.057413281582    12.000000000000
         C           -2.399084056805     0.922259017341     0.577734718418    12.000000000000
         C           -1.445543056805    -0.882926982659    -0.728204281582    12.000000000000
         C           -3.629921056805     0.267074017341     0.580899718418    12.000000000000
         C           -2.683781056805    -1.526779982659    -0.737637281582    12.000000000000
         C           -3.774920056805    -0.958123982659    -0.076119281582    12.000000000000
         H            4.305769943195    -1.762610982659    -0.316015281582     1.007825032230
         H            4.024872943195    -0.824814982659     1.148335718418     1.007825032230
         H            4.411703943195     0.728085017341    -0.735442281582     1.007825032230
         H            3.130894943195    -0.044465982659    -1.675295281582     1.007825032230
         H            1.860405943195    -2.110268982659    -0.595775281582     1.007825032230
         H            2.339692943195    -2.621578982659     1.027901718418     1.007825032230
         H            2.760163943195     1.490631017341     0.948046718418     1.007825032230
         H            2.226079943195     2.014169017341    -0.655672281582     1.007825032230
         H            0.255680943195    -1.216815982659     1.069067718418     1.007825032230
         H            1.581084943195    -0.463082982659     1.965717718418     1.007825032230
         H           -2.278762056805     1.891081017341     1.055941718418     1.007825032230
         H           -0.597955056805    -1.312525982659    -1.258545281582     1.007825032230
         H           -4.481251056805     0.717140017341     1.086064718418     1.007825032230
         H           -2.799497056805    -2.468975982659    -1.268340281582     1.007825032230
         H           -4.737697056805    -1.463542982659    -0.080297281582     1.007825032230

  Basis Set: AUG-CC-PVTZ
    Blend: AUG-CC-PVTZ
  Basis Set: (AUG-CC-PVTZ AUX)
    Blend: AUG-CC-PVTZ-JKFIT
	 Reference Energy          =    -592.6830766327108222 [Eh]
	 Singles Energy            =      -0.0000000000000000 [Eh]
	 Same-Spin Energy          =      -0.6432174507737707 [Eh]
	 Opposite-Spin Energy      =      -2.0528491679392036 [Eh]
	 Correlation Energy        =      -2.6960666187129743 [Eh]
	 Total Energy              =    -595.3791432514237840 [Eh]

	 ================> DF-SCS-MP2 Energies <==================
	-----------------------------------------------------------
	 SCS Same-Spin Scale       =       0.3333333333333333 [-]
	 SCS Opposite-Spin Scale   =       1.2000000000000000 [-]
	 SCS Same-Spin Energy      =      -0.2144058169245902 [Eh]
	 SCS Opposite-Spin Energy  =      -2.4634190015270443 [Eh]
	 SCS Correlation Energy    =      -2.6778248184516347 [Eh]
	 SCS Total Energy          =    -595.3609014511624764 [Eh]
	-----------------------------------------------------------

  Dipole Moment: [D]
     X:     0.8939      Y:    -3.2667      Z:     1.0872     Total:     3.5571

*** Psi4 exiting successfully. Buy a developer a beer!
