                               Psi4 1.3.2 release

  ==> Input File <==

--------------------------------------------------------------------------
#psi4
#
memory 32 gb

molecule  {
0 1
  O       -0.0931590     2.3556990    -0.4150330
  N        1.0902530     0.4589530     0.1084880
  C        3.5423410    -1.0378250     0.1583630
  C        3.3922610     0.2419230    -0.6640150
  C        2.1860550    -1.7140940     0.3593590
  C        2.3685302     1.1523467    -0.0378878
  C        1.1838660    -0.7305840     0.9537980
  C       -0.0769430     1.1544410    -0.1174940
  C       -1.3555190     0.3759530    -0.0649830
  C       -2.4581180     0.9595770     0.5701650
  C       -1.5045770    -0.8456090    -0.7357740
  C       -3.6889550     0.3043920     0.5733300
  C       -2.7428150    -1.4894620    -0.7452070
  C       -3.8339540    -0.9208060    -0.0836890
  H        4.2467360    -1.7252930    -0.3235850
  H        3.9658390    -0.7874970     1.1407660
  H        4.3526700     0.7654030    -0.7430120
  H        3.0718610    -0.0071480    -1.6828650
  H        1.8013720    -2.0729510    -0.6033450
  H        2.2806590    -2.5842610     1.0203320
  H        2.7011300     1.5279490     0.9404770
  H        2.1670460     2.0514870    -0.6632420
  H        0.1966470    -1.1794980     1.0614980
  H        1.5220510    -0.4257650     1.9581480
  H       -2.3377960     1.9283990     1.0483720
  H       -0.6569890    -1.2752080    -1.2661150
  H       -4.5402850     0.7544580     1.0784950
  H       -2.8585310    -2.4316580    -1.2759100
  H       -4.7967310    -1.4262250    -0.0878670
units angstrom
no_reorient  #important for SAPT in psi4, default
symmetry c1  #important for SAPT in psi4, default
}

set PROPERTIES_ORIGIN ["COM"]
properties('MP2/aug-cc-pvtz', properties = ['dipole'])
--------------------------------------------------------------------------

    Molecular point group: c1
  Charge       = 0
  Multiplicity = 1
  Basis Set: AUG-CC-PVTZ
    Blend: AUG-CC-PVTZ
  Basis Set: (AUG-CC-PVTZ AUX)
    Blend: AUG-CC-PVTZ-JKFIT

    Orbital Energies [Eh]
    ---------------------

    Doubly Occupied:

       1A    -20.514818     2A    -15.581556     3A    -11.350700
       4A    -11.266616     5A    -11.253899     6A    -11.251217
       7A    -11.249979     8A    -11.247929     9A    -11.245783
      10A    -11.245508    11A    -11.243430    12A    -11.230971
      13A    -11.227710    14A    -11.224542    15A     -1.368951
      16A     -1.248486    17A     -1.161185    18A     -1.085186
      19A     -1.040691    20A     -1.026751    21A     -1.023111
      22A     -0.924927    23A     -0.867659    24A     -0.845471
      25A     -0.835682    26A     -0.794253    27A     -0.747585
      28A     -0.720176    29A     -0.680921    30A     -0.651014
      31A     -0.638998    32A     -0.630688    33A     -0.625443
      34A     -0.610919    35A     -0.601159    36A     -0.593934
      37A     -0.589101    38A     -0.558473    39A     -0.552331
      40A     -0.534050    41A     -0.513770    42A     -0.504176
      43A     -0.501918    44A     -0.495714    45A     -0.480261
      46A     -0.468823    47A     -0.457213    48A     -0.422374
      49A     -0.370291    50A     -0.344968    51A     -0.342382

  @DF-RHF Final Energy:  -592.68172529946128

   => Energetics <=

    Nuclear Repulsion Energy =            877.2006278838762228
    One-Electron Energy =               -2545.7773209986394249
    Two-Electron Energy =                1075.8949678153019249
    Total Energy =                       -592.6817252994612772
  Basis Set: (AUG-CC-PVTZ AUX)
    Blend: AUG-CC-PVTZ-RI
    Molecular point group: c1

    Geometry (in Angstrom), charge = 0, multiplicity = 1:

       Center              X                  Y                   Z               Mass
    ------------   -----------------  -----------------  -----------------  -----------------
         O           -0.035657321523     2.320972660819    -0.407032668235    15.994914619570
         N            1.147754678477     0.424226660819     0.116488331765    14.003074004430
         C            3.599842678477    -1.072551339181     0.166363331765    12.000000000000
         C            3.449762678477     0.207196660819    -0.656014668235    12.000000000000
         C            2.243556678477    -1.748820339181     0.367359331765    12.000000000000
         C            2.426031878477     1.117620360819    -0.029887468235    12.000000000000
         C            1.241367678477    -0.765310339181     0.961798331765    12.000000000000
         C           -0.019441321523     1.119714660819    -0.109493668235    12.000000000000
         C           -1.298017321523     0.341226660819    -0.056982668235    12.000000000000
         C           -2.400616321523     0.924850660819     0.578165331765    12.000000000000
         C           -1.447075321523    -0.880335339181    -0.727773668235    12.000000000000
         C           -3.631453321523     0.269665660819     0.581330331765    12.000000000000
         C           -2.685313321523    -1.524188339181    -0.737206668235    12.000000000000
         C           -3.776452321523    -0.955532339181    -0.075688668235    12.000000000000
         H            4.304237678477    -1.760019339181    -0.315584668235     1.007825032230
         H            4.023340678477    -0.822223339181     1.148766331765     1.007825032230
         H            4.410171678477     0.730676660819    -0.735011668235     1.007825032230
         H            3.129362678477    -0.041874339181    -1.674864668235     1.007825032230
         H            1.858873678477    -2.107677339181    -0.595344668235     1.007825032230
         H            2.338160678477    -2.618987339181     1.028332331765     1.007825032230
         H            2.758631678477     1.493222660819     0.948477331765     1.007825032230
         H            2.224547678477     2.016760660819    -0.655241668235     1.007825032230
         H            0.254148678477    -1.214224339181     1.069498331765     1.007825032230
         H            1.579552678477    -0.460491339181     1.966148331765     1.007825032230
         H           -2.280294321523     1.893672660819     1.056372331765     1.007825032230
         H           -0.599487321523    -1.309934339181    -1.258114668235     1.007825032230
         H           -4.482783321523     0.719731660819     1.086495331765     1.007825032230
         H           -2.801029321523    -2.466384339181    -1.267909668235     1.007825032230
         H           -4.739229321523    -1.460951339181    -0.079866668235     1.007825032230

  Basis Set: AUG-CC-PVTZ
    Blend: AUG-CC-PVTZ
  Basis Set: (AUG-CC-PVTZ AUX)
    Blend: AUG-CC-PVTZ-JKFIT
	 Reference Energy          =    -592.6817252994612772 [Eh]
	 Singles Energy            =      -0.0000000000000000 [Eh]
	 Same-Spin Energy          =      -0.6436969323905120 [Eh]
	 Opposite-Spin Energy      =      -2.0535871123767113 [Eh]
	 Correlation Energy        =      -2.6972840447672235 [Eh]
	 Total Energy              =    -595.3790093442285070 [Eh]

	 ================> DF-SCS-MP2 Energies <==================
	-----------------------------------------------------------
	 SCS Same-Spin Scale       =       0.3333333333333333 [-]
	 SCS Opposite-Spin Scale   =       1.2000000000000000 [-]
	 SCS Same-Spin Energy      =      -0.2145656441301707 [Eh]
	 SCS Opposite-Spin Energy  =      -2.4643045348520536 [Eh]
	 SCS Correlation Energy    =      -2.6788701789822245 [Eh]
	 SCS Total Energy          =    -595.3605954784435426 [Eh]
	-----------------------------------------------------------

  Dipole Moment: [D]
     X:     1.0309      Y:    -3.3970      Z:     1.1194     Total:     3.7223

*** Psi4 exiting successfully. Buy a developer a beer!
