                               Psi4 1.3.2 release

  ==> Input File <==

--------------------------------------------------------------------------
#psi4
#
memory 32 gb

molecule  {
0 1
  O       -0.0931590     2.3556990    -0.4150330
  N        1.0902530     0.4589530     0.1084880
  C        3.5423410    -1.0378250     0.1583630
  C        3.3922610     0.2419230    -0.6640150
  C        2.1860550    -1.7140940     0.3593590
  C        2.3559930     1.1736850    -0.0440690
  C        1.1838660    -0.7305840     0.9537980
  C       -0.0769430     1.1544410    -0.1174940
  C       -1.3555190     0.3759530    -0.0649830
  C       -2.4581180     0.9595770     0.5701650
  C       -1.5045770    -0.8456090    -0.7357740
  C       -3.6889550     0.3043920     0.5733300
  C       -2.7428150    -1.4894620    -0.7452070
  C       -3.8339540    -0.9208060    -0.0836890
  H        4.2467360    -1.7252930    -0.3235850
  H        3.9658390    -0.7874970     1.1407660
  H        4.3526700     0.7654030    -0.7430120
  H        3.0718610    -0.0071480    -1.6828650
  H        1.8013720    -2.0729510    -0.6033450
  H        2.2806590    -2.5842610     1.0203320
  H        2.7011300     1.5279490     0.9404770
  H        2.1670460     2.0514870    -0.6632420
  H        0.1966470    -1.1794980     1.0614980
  H        1.5220510    -0.4257650     1.9581480
  H       -2.3377960     1.9283990     1.0483720
  H       -0.6569890    -1.2752080    -1.2661150
  H       -4.5402850     0.7544580     1.0784950
  H       -2.8585310    -2.4316580    -1.2759100
  H       -4.7967310    -1.4262250    -0.0878670
units angstrom
no_reorient  #important for SAPT in psi4, default
symmetry c1  #important for SAPT in psi4, default
}

set PROPERTIES_ORIGIN ["COM"]
properties('MP2/aug-cc-pvtz', properties = ['dipole'])
--------------------------------------------------------------------------

    Molecular point group: c1
  Charge       = 0
  Multiplicity = 1
  Basis Set: AUG-CC-PVTZ
    Blend: AUG-CC-PVTZ
  Basis Set: (AUG-CC-PVTZ AUX)
    Blend: AUG-CC-PVTZ-JKFIT

    Orbital Energies [Eh]
    ---------------------

    Doubly Occupied:

       1A    -20.514755     2A    -15.581678     3A    -11.350309
       4A    -11.267150     5A    -11.253344     6A    -11.251075
       7A    -11.249871     8A    -11.247865     9A    -11.245693
      10A    -11.245468    11A    -11.243379    12A    -11.230976
      13A    -11.227916    14A    -11.225051    15A     -1.369127
      16A     -1.248097    17A     -1.161100    18A     -1.083863
      19A     -1.040686    20A     -1.025802    21A     -1.022855
      22A     -0.924659    23A     -0.867801    24A     -0.846031
      25A     -0.835704    26A     -0.793371    27A     -0.747813
      28A     -0.720115    29A     -0.681039    30A     -0.651418
      31A     -0.638724    32A     -0.630642    33A     -0.625719
      34A     -0.610741    35A     -0.600980    36A     -0.593792
      37A     -0.588948    38A     -0.560606    39A     -0.550733
      40A     -0.534169    41A     -0.513178    42A     -0.503976
      43A     -0.501683    44A     -0.495891    45A     -0.478651
      46A     -0.468969    47A     -0.460685    48A     -0.422601
      49A     -0.369620    50A     -0.344933    51A     -0.342294

  @DF-RHF Final Energy:  -592.68288637014007

   => Energetics <=

    Nuclear Repulsion Energy =            877.0234956024503390
    One-Electron Energy =               -2545.4296738154685045
    Two-Electron Energy =                1075.7232918428780977
    Total Energy =                       -592.6828863701400678
  Basis Set: (AUG-CC-PVTZ AUX)
    Blend: AUG-CC-PVTZ-RI
    Molecular point group: c1

    Geometry (in Angstrom), charge = 0, multiplicity = 1:

       Center              X                  Y                   Z               Mass
    ------------   -----------------  -----------------  -----------------  -----------------
         O           -0.034861794408     2.319618674583    -0.406640450498    15.994914619570
         N            1.148550205592     0.422872674583     0.116880549502    14.003074004430
         C            3.600638205592    -1.073905325417     0.166755549502    12.000000000000
         C            3.450558205592     0.205842674583    -0.655622450498    12.000000000000
         C            2.244352205592    -1.750174325417     0.367751549502    12.000000000000
         C            2.414290205592     1.137604674583    -0.035676450498    12.000000000000
         C            1.242163205592    -0.766664325417     0.962190549502    12.000000000000
         C           -0.018645794408     1.118360674583    -0.109101450498    12.000000000000
         C           -1.297221794408     0.339872674583    -0.056590450498    12.000000000000
         C           -2.399820794408     0.923496674583     0.578557549502    12.000000000000
         C           -1.446279794408    -0.881689325417    -0.727381450498    12.000000000000
         C           -3.630657794408     0.268311674583     0.581722549502    12.000000000000
         C           -2.684517794408    -1.525542325417    -0.736814450498    12.000000000000
         C           -3.775656794408    -0.956886325417    -0.075296450498    12.000000000000
         H            4.305033205592    -1.761373325417    -0.315192450498     1.007825032230
         H            4.024136205592    -0.823577325417     1.149158549502     1.007825032230
         H            4.410967205592     0.729322674583    -0.734619450498     1.007825032230
         H            3.130158205592    -0.043228325417    -1.674472450498     1.007825032230
         H            1.859669205592    -2.109031325417    -0.594952450498     1.007825032230
         H            2.338956205592    -2.620341325417     1.028724549502     1.007825032230
         H            2.759427205592     1.491868674583     0.948869549502     1.007825032230
         H            2.225343205592     2.015406674583    -0.654849450498     1.007825032230
         H            0.254944205592    -1.215578325417     1.069890549502     1.007825032230
         H            1.580348205592    -0.461845325417     1.966540549502     1.007825032230
         H           -2.279498794408     1.892318674583     1.056764549502     1.007825032230
         H           -0.598691794408    -1.311288325417    -1.257722450498     1.007825032230
         H           -4.481987794408     0.718377674583     1.086887549502     1.007825032230
         H           -2.800233794408    -2.467738325417    -1.267517450498     1.007825032230
         H           -4.738433794408    -1.462305325417    -0.079474450498     1.007825032230

  Basis Set: AUG-CC-PVTZ
    Blend: AUG-CC-PVTZ
  Basis Set: (AUG-CC-PVTZ AUX)
    Blend: AUG-CC-PVTZ-JKFIT
	 Reference Energy          =    -592.6828863701400678 [Eh]
	 Singles Energy            =      -0.0000000000000000 [Eh]
	 Same-Spin Energy          =      -0.6434689264594136 [Eh]
	 Opposite-Spin Energy      =      -2.0533094853353764 [Eh]
	 Correlation Energy        =      -2.6967784117947899 [Eh]
	 Total Energy              =    -595.3796647819348209 [Eh]

	 ================> DF-SCS-MP2 Energies <==================
	-----------------------------------------------------------
	 SCS Same-Spin Scale       =       0.3333333333333333 [-]
	 SCS Opposite-Spin Scale   =       1.2000000000000000 [-]
	 SCS Same-Spin Energy      =      -0.2144896421531378 [Eh]
	 SCS Opposite-Spin Energy  =      -2.4639713824024514 [Eh]
	 SCS Correlation Energy    =      -2.6784610245555891 [Eh]
	 SCS Total Energy          =    -595.3613473946957129 [Eh]
	-----------------------------------------------------------

  Dipole Moment: [D]
     X:     1.0304      Y:    -3.3940      Z:     1.1231     Total:     3.7205

*** Psi4 exiting successfully. Buy a developer a beer!
