                               Psi4 1.3.2 release

  ==> Input File <==

--------------------------------------------------------------------------
#psi4
#
memory 32 gb

molecule  {
0 1
  O       -0.0931590     2.3556990    -0.4150330
  N        1.0902530     0.4589530     0.1084880
  C        3.5423410    -1.0378250     0.1583630
  C        3.3922610     0.2419230    -0.6640150
  C        2.1860550    -1.7140940     0.3593590
  C        2.4425939     1.2225864    -0.0545068
  C        1.1838660    -0.7305840     0.9537980
  C       -0.0769430     1.1544410    -0.1174940
  C       -1.3555190     0.3759530    -0.0649830
  C       -2.4581180     0.9595770     0.5701650
  C       -1.5045770    -0.8456090    -0.7357740
  C       -3.6889550     0.3043920     0.5733300
  C       -2.7428150    -1.4894620    -0.7452070
  C       -3.8339540    -0.9208060    -0.0836890
  H        4.2467360    -1.7252930    -0.3235850
  H        3.9658390    -0.7874970     1.1407660
  H        4.3526700     0.7654030    -0.7430120
  H        3.0718610    -0.0071480    -1.6828650
  H        1.8013720    -2.0729510    -0.6033450
  H        2.2806590    -2.5842610     1.0203320
  H        2.7011300     1.5279490     0.9404770
  H        2.1670460     2.0514870    -0.6632420
  H        0.1966470    -1.1794980     1.0614980
  H        1.5220510    -0.4257650     1.9581480
  H       -2.3377960     1.9283990     1.0483720
  H       -0.6569890    -1.2752080    -1.2661150
  H       -4.5402850     0.7544580     1.0784950
  H       -2.8585310    -2.4316580    -1.2759100
  H       -4.7967310    -1.4262250    -0.0878670
units angstrom
no_reorient  #important for SAPT in psi4, default
symmetry c1  #important for SAPT in psi4, default
}

set PROPERTIES_ORIGIN ["COM"]
properties('MP2/aug-cc-pvtz', properties = ['dipole'])
--------------------------------------------------------------------------

    Molecular point group: c1
  Charge       = 0
  Multiplicity = 1
  Basis Set: AUG-CC-PVTZ
    Blend: AUG-CC-PVTZ
  Basis Set: (AUG-CC-PVTZ AUX)
    Blend: AUG-CC-PVTZ-JKFIT

    Orbital Energies [Eh]
    ---------------------

    Doubly Occupied:

       1A    -20.510932     2A    -15.577210     3A    -11.346735
       4A    -11.264836     5A    -11.257839     6A    -11.249121
       7A    -11.247959     8A    -11.246286     9A    -11.243988
      10A    -11.243890    11A    -11.241867    12A    -11.230629
      13A    -11.230019    14A    -11.227233    15A     -1.363836
      16A     -1.231680    17A     -1.159099    18A     -1.085482
      19A     -1.037757    20A     -1.028155    21A     -1.021688
      22A     -0.924549    23A     -0.862890    24A     -0.847445
      25A     -0.834212    26A     -0.791993    27A     -0.747045
      28A     -0.714518    29A     -0.679176    30A     -0.648808
      31A     -0.636672    32A     -0.635002    33A     -0.623722
      34A     -0.609474    35A     -0.601170    36A     -0.591928
      37A     -0.585357    38A     -0.556443    39A     -0.551936
      40A     -0.533447    41A     -0.514256    42A     -0.506339
      43A     -0.500983    44A     -0.495826    45A     -0.482594
      46A     -0.472637    47A     -0.456366    48A     -0.417506
      49A     -0.368452    50A     -0.343346    51A     -0.340552

  @DF-RHF Final Energy:  -592.67472406846809

   => Energetics <=

    Nuclear Repulsion Energy =            875.1065780013465201
    One-Electron Energy =               -2541.7208340114284510
    Two-Electron Energy =                1073.9395319416139500
    Total Energy =                       -592.6747240684680946
  Basis Set: (AUG-CC-PVTZ AUX)
    Blend: AUG-CC-PVTZ-RI
    Molecular point group: c1

    Geometry (in Angstrom), charge = 0, multiplicity = 1:

       Center              X                  Y                   Z               Mass
    ------------   -----------------  -----------------  -----------------  -----------------
         O           -0.040356910074     2.316515717810    -0.405978137309    15.994914619570
         N            1.143055089926     0.419769717810     0.117542862691    14.003074004430
         C            3.595143089926    -1.077008282190     0.167417862691    12.000000000000
         C            3.445063089926     0.202739717810    -0.654960137309    12.000000000000
         C            2.238857089926    -1.753277282190     0.368413862691    12.000000000000
         C            2.495395989926     1.183403117810    -0.045451937309    12.000000000000
         C            1.236668089926    -0.769767282190     0.962852862691    12.000000000000
         C           -0.024140910074     1.115257717810    -0.108439137309    12.000000000000
         C           -1.302716910074     0.336769717810    -0.055928137309    12.000000000000
         C           -2.405315910074     0.920393717810     0.579219862691    12.000000000000
         C           -1.451774910074    -0.884792282190    -0.726719137309    12.000000000000
         C           -3.636152910074     0.265208717810     0.582384862691    12.000000000000
         C           -2.690012910074    -1.528645282190    -0.736152137309    12.000000000000
         C           -3.781151910074    -0.959989282190    -0.074634137309    12.000000000000
         H            4.299538089926    -1.764476282190    -0.314530137309     1.007825032230
         H            4.018641089926    -0.826680282190     1.149820862691     1.007825032230
         H            4.405472089926     0.726219717810    -0.733957137309     1.007825032230
         H            3.124663089926    -0.046331282190    -1.673810137309     1.007825032230
         H            1.854174089926    -2.112134282190    -0.594290137309     1.007825032230
         H            2.333461089926    -2.623444282190     1.029386862691     1.007825032230
         H            2.753932089926     1.488765717810     0.949531862691     1.007825032230
         H            2.219848089926     2.012303717810    -0.654187137309     1.007825032230
         H            0.249449089926    -1.218681282190     1.070552862691     1.007825032230
         H            1.574853089926    -0.464948282190     1.967202862691     1.007825032230
         H           -2.284993910074     1.889215717810     1.057426862691     1.007825032230
         H           -0.604186910074    -1.314391282190    -1.257060137309     1.007825032230
         H           -4.487482910074     0.715274717810     1.087549862691     1.007825032230
         H           -2.805728910074    -2.470841282190    -1.266855137309     1.007825032230
         H           -4.743928910074    -1.465408282190    -0.078812137309     1.007825032230

  Basis Set: AUG-CC-PVTZ
    Blend: AUG-CC-PVTZ
  Basis Set: (AUG-CC-PVTZ AUX)
    Blend: AUG-CC-PVTZ-JKFIT
	 Reference Energy          =    -592.6747240684680946 [Eh]
	 Singles Energy            =      -0.0000000000000000 [Eh]
	 Same-Spin Energy          =      -0.6434289455115133 [Eh]
	 Opposite-Spin Energy      =      -2.0539605860385657 [Eh]
	 Correlation Energy        =      -2.6973895315500789 [Eh]
	 Total Energy              =    -595.3721136000182241 [Eh]

	 ================> DF-SCS-MP2 Energies <==================
	-----------------------------------------------------------
	 SCS Same-Spin Scale       =       0.3333333333333333 [-]
	 SCS Opposite-Spin Scale   =       1.2000000000000000 [-]
	 SCS Same-Spin Energy      =      -0.2144763151705044 [Eh]
	 SCS Opposite-Spin Energy  =      -2.4647527032462788 [Eh]
	 SCS Correlation Energy    =      -2.6792290184167831 [Eh]
	 SCS Total Energy          =    -595.3539530868848715 [Eh]
	-----------------------------------------------------------

  Dipole Moment: [D]
     X:     1.3376      Y:    -3.3429      Z:     1.1353     Total:     3.7753

*** Psi4 exiting successfully. Buy a developer a beer!
