                               Psi4 1.4a3.dev225

  ==> Input File <==

--------------------------------------------------------------------------
#psi4
#
memory 32 gb

molecule  {
0 1
  O       -0.0931590     2.3556990    -0.4150330
  N        1.0902530     0.4589530     0.1084880
  C        3.5423410    -1.0378250     0.1583630
  C        3.3922610     0.2419230    -0.6640150
  C        2.1860550    -1.7140940     0.3593590
  C        2.3559930     1.1736850    -0.0440690
  C        1.1838660    -0.7305840     0.9537980
  C       -0.0775981     1.2029702    -0.1295142
  C       -1.3555190     0.3759530    -0.0649830
  C       -2.4581180     0.9595770     0.5701650
  C       -1.5045770    -0.8456090    -0.7357740
  C       -3.6889550     0.3043920     0.5733300
  C       -2.7428150    -1.4894620    -0.7452070
  C       -3.8339540    -0.9208060    -0.0836890
  H        4.2467360    -1.7252930    -0.3235850
  H        3.9658390    -0.7874970     1.1407660
  H        4.3526700     0.7654030    -0.7430120
  H        3.0718610    -0.0071480    -1.6828650
  H        1.8013720    -2.0729510    -0.6033450
  H        2.2806590    -2.5842610     1.0203320
  H        2.7011300     1.5279490     0.9404770
  H        2.1670460     2.0514870    -0.6632420
  H        0.1966470    -1.1794980     1.0614980
  H        1.5220510    -0.4257650     1.9581480
  H       -2.3377960     1.9283990     1.0483720
  H       -0.6569890    -1.2752080    -1.2661150
  H       -4.5402850     0.7544580     1.0784950
  H       -2.8585310    -2.4316580    -1.2759100
  H       -4.7967310    -1.4262250    -0.0878670
units angstrom
no_reorient  #important for SAPT in psi4, default
symmetry c1  #important for SAPT in psi4, default
}

set PROPERTIES_ORIGIN ["COM"]
properties('MP2/aug-cc-pvtz', properties = ['dipole'])
--------------------------------------------------------------------------

    Molecular point group: c1
  Charge       = 0
  Multiplicity = 1
  Basis Set: AUG-CC-PVTZ
    Blend: AUG-CC-PVTZ
  Basis Set: (AUG-CC-PVTZ AUX)
    Blend: AUG-CC-PVTZ-JKFIT

    Orbital Energies [Eh]
    ---------------------

    Doubly Occupied:

       1A    -20.525512     2A    -15.574777     3A    -11.350237
       4A    -11.264550     5A    -11.250548     6A    -11.249900
       7A    -11.248598     8A    -11.246610     9A    -11.244635
      10A    -11.244269    11A    -11.242499    12A    -11.228901
      13A    -11.226107    14A    -11.222988    15A     -1.402920
      16A     -1.244543    17A     -1.159461    18A     -1.079856
      19A     -1.037198    20A     -1.023976    21A     -1.021136
      22A     -0.917954    23A     -0.864495    24A     -0.843123
      25A     -0.834041    26A     -0.790068    27A     -0.745512
      28A     -0.718358    29A     -0.682922    30A     -0.654185
      31A     -0.637946    32A     -0.628637    33A     -0.627975
      34A     -0.612193    35A     -0.602231    36A     -0.592835
      37A     -0.589717    38A     -0.560190    39A     -0.553037
      40A     -0.538742    41A     -0.516567    42A     -0.503268
      43A     -0.501183    44A     -0.496874    45A     -0.480007
      46A     -0.467983    47A     -0.458922    48A     -0.423243
      49A     -0.368430    50A     -0.343938    51A     -0.341934

  @DF-RHF Final Energy:  -592.68269933856595

   => Energetics <=

    Nuclear Repulsion Energy =            876.8515868609198378
    One-Electron Energy =               -2545.0971136955690781
    Two-Electron Energy =                1075.5628274960834005
    Total Energy =                       -592.6826993385659534
  Basis Set: (AUG-CC-PVTZ AUX)
    Blend: AUG-CC-PVTZ-RI
    Molecular point group: c1

    Geometry (in Angstrom), charge = 0, multiplicity = 1:

       Center              X                  Y                   Z               Mass
    ------------   -----------------  -----------------  -----------------  -----------------
         O           -0.034820226130     2.316539335140    -0.405877728756    15.994914619570
         N            1.148591773870     0.419793335140     0.117643271244    14.003074004430
         C            3.600679773870    -1.076984664860     0.167518271244    12.000000000000
         C            3.450599773870     0.202763335140    -0.654859728756    12.000000000000
         C            2.244393773870    -1.753253664860     0.368514271244    12.000000000000
         C            2.414331773870     1.134525335140    -0.034913728756    12.000000000000
         C            1.242204773870    -0.769743664860     0.962953271244    12.000000000000
         C           -0.019259326130     1.163810535140    -0.120358928756    12.000000000000
         C           -1.297180226130     0.336793335140    -0.055827728756    12.000000000000
         C           -2.399779226130     0.920417335140     0.579320271244    12.000000000000
         C           -1.446238226130    -0.884768664860    -0.726618728756    12.000000000000
         C           -3.630616226130     0.265232335140     0.582485271244    12.000000000000
         C           -2.684476226130    -1.528621664860    -0.736051728756    12.000000000000
         C           -3.775615226130    -0.959965664860    -0.074533728756    12.000000000000
         H            4.305074773870    -1.764452664860    -0.314429728756     1.007825032230
         H            4.024177773870    -0.826656664860     1.149921271244     1.007825032230
         H            4.411008773870     0.726243335140    -0.733856728756     1.007825032230
         H            3.130199773870    -0.046307664860    -1.673709728756     1.007825032230
         H            1.859710773870    -2.112110664860    -0.594189728756     1.007825032230
         H            2.338997773870    -2.623420664860     1.029487271244     1.007825032230
         H            2.759468773870     1.488789335140     0.949632271244     1.007825032230
         H            2.225384773870     2.012327335140    -0.654086728756     1.007825032230
         H            0.254985773870    -1.218657664860     1.070653271244     1.007825032230
         H            1.580389773870    -0.464924664860     1.967303271244     1.007825032230
         H           -2.279457226130     1.889239335140     1.057527271244     1.007825032230
         H           -0.598650226130    -1.314367664860    -1.256959728756     1.007825032230
         H           -4.481946226130     0.715298335140     1.087650271244     1.007825032230
         H           -2.800192226130    -2.470817664860    -1.266754728756     1.007825032230
         H           -4.738392226130    -1.465384664860    -0.078711728756     1.007825032230

  Basis Set: AUG-CC-PVTZ
    Blend: AUG-CC-PVTZ
  Basis Set: (AUG-CC-PVTZ AUX)
    Blend: AUG-CC-PVTZ-JKFIT
	 Reference Energy          =    -592.6826993385659534 [Eh]
	 Singles Energy            =      -0.0000000000000000 [Eh]
	 Same-Spin Energy          =      -0.6423670680810690 [Eh]
	 Opposite-Spin Energy      =      -2.0511613929892749 [Eh]
	 Correlation Energy        =      -2.6935284610703438 [Eh]
	 Total Energy              =    -595.3762277996363537 [Eh]

	 ================> DF-SCS-MP2 Energies <==================
	-----------------------------------------------------------
	 SCS Same-Spin Scale       =       0.3333333333333333 [-]
	 SCS Opposite-Spin Scale   =       1.2000000000000000 [-]
	 SCS Same-Spin Energy      =      -0.2141223560270230 [Eh]
	 SCS Opposite-Spin Energy  =      -2.4613936715871296 [Eh]
	 SCS Correlation Energy    =      -2.6755160276141527 [Eh]
	 SCS Total Energy          =    -595.3582153661801613 [Eh]
	-----------------------------------------------------------

  Dipole Moment: [D]
     X:     0.8802      Y:    -3.0479      Z:     1.0261     Total:     3.3343

*** Psi4 exiting successfully. Buy a developer a beer!
