                               Psi4 1.3.2 release

  ==> Input File <==

--------------------------------------------------------------------------
#psi4
#
memory 32 gb

molecule  {
0 1
  O       -0.0716778     2.3563351    -0.4128515
  N        1.0902530     0.4589530     0.1084880
  C        3.5423410    -1.0378250     0.1583630
  C        3.3922610     0.2419230    -0.6640150
  C        2.1860550    -1.7140940     0.3593590
  C        2.3559930     1.1736850    -0.0440690
  C        1.1838660    -0.7305840     0.9537980
  C       -0.0769430     1.1544410    -0.1174940
  C       -1.3555190     0.3759530    -0.0649830
  C       -2.4581180     0.9595770     0.5701650
  C       -1.5045770    -0.8456090    -0.7357740
  C       -3.6889550     0.3043920     0.5733300
  C       -2.7428150    -1.4894620    -0.7452070
  C       -3.8339540    -0.9208060    -0.0836890
  H        4.2467360    -1.7252930    -0.3235850
  H        3.9658390    -0.7874970     1.1407660
  H        4.3526700     0.7654030    -0.7430120
  H        3.0718610    -0.0071480    -1.6828650
  H        1.8013720    -2.0729510    -0.6033450
  H        2.2806590    -2.5842610     1.0203320
  H        2.7011300     1.5279490     0.9404770
  H        2.1670460     2.0514870    -0.6632420
  H        0.1966470    -1.1794980     1.0614980
  H        1.5220510    -0.4257650     1.9581480
  H       -2.3377960     1.9283990     1.0483720
  H       -0.6569890    -1.2752080    -1.2661150
  H       -4.5402850     0.7544580     1.0784950
  H       -2.8585310    -2.4316580    -1.2759100
  H       -4.7967310    -1.4262250    -0.0878670
units angstrom
no_reorient  #important for SAPT in psi4, default
symmetry c1  #important for SAPT in psi4, default
}

set PROPERTIES_ORIGIN ["COM"]
properties('MP2/aug-cc-pvtz', properties = ['dipole'])
--------------------------------------------------------------------------

    Molecular point group: c1
  Charge       = 0
  Multiplicity = 1
  Basis Set: AUG-CC-PVTZ
    Blend: AUG-CC-PVTZ
  Basis Set: (AUG-CC-PVTZ AUX)
    Blend: AUG-CC-PVTZ-JKFIT

    Orbital Energies [Eh]
    ---------------------

    Doubly Occupied:

       1A    -20.514330     2A    -15.580628     3A    -11.350180
       4A    -11.266587     5A    -11.252477     6A    -11.251870
       7A    -11.250624     8A    -11.248495     9A    -11.246408
      10A    -11.246003    11A    -11.243923    12A    -11.230573
      13A    -11.227495    14A    -11.224532    15A     -1.369257
      16A     -1.246858    17A     -1.161765    18A     -1.083369
      19A     -1.040939    20A     -1.025858    21A     -1.023194
      22A     -0.924291    23A     -0.867520    24A     -0.846139
      25A     -0.836181    26A     -0.793116    27A     -0.747581
      28A     -0.720137    29A     -0.681358    30A     -0.651483
      31A     -0.638770    32A     -0.630335    33A     -0.625660
      34A     -0.610580    35A     -0.601084    36A     -0.594159
      37A     -0.588603    38A     -0.560045    39A     -0.550521
      40A     -0.534103    41A     -0.513516    42A     -0.504273
      43A     -0.501634    44A     -0.495955    45A     -0.478173
      46A     -0.468369    47A     -0.460152    48A     -0.422564
      49A     -0.368739    50A     -0.345458    51A     -0.343164

  @DF-RHF Final Energy:  -592.68278730664520

   => Energetics <=

    Nuclear Repulsion Energy =            877.0660068898059762
    One-Electron Energy =               -2545.5195307573762875
    Two-Electron Energy =                1075.7707365609251156
    Total Energy =                       -592.6827873066451957
  Basis Set: (AUG-CC-PVTZ AUX)
    Blend: AUG-CC-PVTZ-RI
    Molecular point group: c1

    Geometry (in Angstrom), charge = 0, multiplicity = 1:

       Center              X                  Y                   Z               Mass
    ------------   -----------------  -----------------  -----------------  -----------------
         O           -0.015197421726     2.320200974802    -0.404643456429    15.994914619570
         N            1.146733378274     0.422818874802     0.116696043571    14.003074004430
         C            3.598821378274    -1.073959125198     0.166571043571    12.000000000000
         C            3.448741378274     0.205788874802    -0.655806956429    12.000000000000
         C            2.242535378274    -1.750228125198     0.367567043571    12.000000000000
         C            2.412473378274     1.137550874802    -0.035860956429    12.000000000000
         C            1.240346378274    -0.766718125198     0.962006043571    12.000000000000
         C           -0.020462621726     1.118306874802    -0.109285956429    12.000000000000
         C           -1.299038621726     0.339818874802    -0.056774956429    12.000000000000
         C           -2.401637621726     0.923442874802     0.578373043571    12.000000000000
         C           -1.448096621726    -0.881743125198    -0.727565956429    12.000000000000
         C           -3.632474621726     0.268257874802     0.581538043571    12.000000000000
         C           -2.686334621726    -1.525596125198    -0.736998956429    12.000000000000
         C           -3.777473621726    -0.956940125198    -0.075480956429    12.000000000000
         H            4.303216378274    -1.761427125198    -0.315376956429     1.007825032230
         H            4.022319378274    -0.823631125198     1.148974043571     1.007825032230
         H            4.409150378274     0.729268874802    -0.734803956429     1.007825032230
         H            3.128341378274    -0.043282125198    -1.674656956429     1.007825032230
         H            1.857852378274    -2.109085125198    -0.595136956429     1.007825032230
         H            2.337139378274    -2.620395125198     1.028540043571     1.007825032230
         H            2.757610378274     1.491814874802     0.948685043571     1.007825032230
         H            2.223526378274     2.015352874802    -0.655033956429     1.007825032230
         H            0.253127378274    -1.215632125198     1.069706043571     1.007825032230
         H            1.578531378274    -0.461899125198     1.966356043571     1.007825032230
         H           -2.281315621726     1.892264874802     1.056580043571     1.007825032230
         H           -0.600508621726    -1.311342125198    -1.257906956429     1.007825032230
         H           -4.483804621726     0.718323874802     1.086703043571     1.007825032230
         H           -2.802050621726    -2.467792125198    -1.267701956429     1.007825032230
         H           -4.740250621726    -1.462359125198    -0.079658956429     1.007825032230

  Basis Set: AUG-CC-PVTZ
    Blend: AUG-CC-PVTZ
  Basis Set: (AUG-CC-PVTZ AUX)
    Blend: AUG-CC-PVTZ-JKFIT
	 Reference Energy          =    -592.6827873066451957 [Eh]
	 Singles Energy            =      -0.0000000000000000 [Eh]
	 Same-Spin Energy          =      -0.6434901115859211 [Eh]
	 Opposite-Spin Energy      =      -2.0533068755416362 [Eh]
	 Correlation Energy        =      -2.6967969871275574 [Eh]
	 Total Energy              =    -595.3795842937727230 [Eh]

	 ================> DF-SCS-MP2 Energies <==================
	-----------------------------------------------------------
	 SCS Same-Spin Scale       =       0.3333333333333333 [-]
	 SCS Opposite-Spin Scale   =       1.2000000000000000 [-]
	 SCS Same-Spin Energy      =      -0.2144967038619737 [Eh]
	 SCS Opposite-Spin Energy  =      -2.4639682506499634 [Eh]
	 SCS Correlation Energy    =      -2.6784649545119370 [Eh]
	 SCS Total Energy          =    -595.3612522611571194 [Eh]
	-----------------------------------------------------------

  Dipole Moment: [D]
     X:     0.9443      Y:    -3.4026      Z:     1.1151     Total:     3.7031

*** Psi4 exiting successfully. Buy a developer a beer!
