                               Psi4 1.4a3.dev225

  ==> Input File <==

--------------------------------------------------------------------------
#psi4
#
memory 32 gb

molecule  {
0 1
  O       -0.0931590     2.3556990    -0.4150330
  N        1.0902530     0.4589530     0.1084880
  C        3.5423410    -1.0378250     0.1583630
  C        3.3922610     0.2419230    -0.6640150
  C        2.1860550    -1.7140940     0.3593590
  C        2.3992934     1.1981357    -0.0492879
  C        1.1838660    -0.7305840     0.9537980
  C       -0.0769430     1.1544410    -0.1174940
  C       -1.3555190     0.3759530    -0.0649830
  C       -2.4581180     0.9595770     0.5701650
  C       -1.5045770    -0.8456090    -0.7357740
  C       -3.6889550     0.3043920     0.5733300
  C       -2.7428150    -1.4894620    -0.7452070
  C       -3.8339540    -0.9208060    -0.0836890
  H        4.2467360    -1.7252930    -0.3235850
  H        3.9658390    -0.7874970     1.1407660
  H        4.3526700     0.7654030    -0.7430120
  H        3.0718610    -0.0071480    -1.6828650
  H        1.8013720    -2.0729510    -0.6033450
  H        2.2806590    -2.5842610     1.0203320
  H        2.7011300     1.5279490     0.9404770
  H        2.1670460     2.0514870    -0.6632420
  H        0.1966470    -1.1794980     1.0614980
  H        1.5220510    -0.4257650     1.9581480
  H       -2.3377960     1.9283990     1.0483720
  H       -0.6569890    -1.2752080    -1.2661150
  H       -4.5402850     0.7544580     1.0784950
  H       -2.8585310    -2.4316580    -1.2759100
  H       -4.7967310    -1.4262250    -0.0878670
units angstrom
no_reorient  #important for SAPT in psi4, default
symmetry c1  #important for SAPT in psi4, default
}

set PROPERTIES_ORIGIN ["COM"]
properties('MP2/aug-cc-pvtz', properties = ['dipole'])
--------------------------------------------------------------------------

    Molecular point group: c1
  Charge       = 0
  Multiplicity = 1
  Basis Set: AUG-CC-PVTZ
    Blend: AUG-CC-PVTZ
  Basis Set: (AUG-CC-PVTZ AUX)
    Blend: AUG-CC-PVTZ-JKFIT

    Orbital Energies [Eh]
    ---------------------

    Doubly Occupied:

       1A    -20.512821     2A    -15.579712     3A    -11.348555
       4A    -11.266006     5A    -11.255168     6A    -11.250113
       7A    -11.248934     8A    -11.247089     9A    -11.244840
      10A    -11.244708    11A    -11.242637    12A    -11.230676
      13A    -11.229053    14A    -11.226007    15A     -1.366367
      16A     -1.239379    17A     -1.160110    18A     -1.084536
      19A     -1.039038    20A     -1.026998    21A     -1.022398
      22A     -0.924488    23A     -0.865147    24A     -0.846772
      25A     -0.835004    26A     -0.792432    27A     -0.747566
      28A     -0.717283    29A     -0.680079    30A     -0.649979
      31A     -0.637573    32A     -0.632391    33A     -0.624682
      34A     -0.609829    35A     -0.601182    36A     -0.592825
      37A     -0.586845    38A     -0.557940    39A     -0.551849
      40A     -0.534204    41A     -0.512980    42A     -0.505362
      43A     -0.501718    44A     -0.496074    45A     -0.480802
      46A     -0.470287    47A     -0.459959    48A     -0.420174
      49A     -0.369440    50A     -0.344152    51A     -0.341446

  @DF-RHF Final Energy:  -592.68072487660424

   => Energetics <=

    Nuclear Repulsion Energy =            876.0546653699797162
    One-Electron Energy =               -2543.5595541827128727
    Two-Electron Energy =                1074.8241639361287980
    Total Energy =                       -592.6807248766042449
  Basis Set: (AUG-CC-PVTZ AUX)
    Blend: AUG-CC-PVTZ-RI
    Molecular point group: c1

    Geometry (in Angstrom), charge = 0, multiplicity = 1:

       Center              X                  Y                   Z               Mass
    ------------   -----------------  -----------------  -----------------  -----------------
         O           -0.037609349068     2.318067196196    -0.406309293904    15.994914619570
         N            1.145802650932     0.421321196196     0.117211706096    14.003074004430
         C            3.597890650932    -1.075456803804     0.167086706096    12.000000000000
         C            3.447810650932     0.204291196196    -0.655291293904    12.000000000000
         C            2.241604650932    -1.751725803804     0.368082706096    12.000000000000
         C            2.454843050932     1.160503896196    -0.040564193904    12.000000000000
         C            1.239415650932    -0.768215803804     0.962521706096    12.000000000000
         C           -0.021393349068     1.116809196196    -0.108770293904    12.000000000000
         C           -1.299969349068     0.338321196196    -0.056259293904    12.000000000000
         C           -2.402568349068     0.921945196196     0.578888706096    12.000000000000
         C           -1.449027349068    -0.883240803804    -0.727050293904    12.000000000000
         C           -3.633405349068     0.266760196196     0.582053706096    12.000000000000
         C           -2.687265349068    -1.527093803804    -0.736483293904    12.000000000000
         C           -3.778404349068    -0.958437803804    -0.074965293904    12.000000000000
         H            4.302285650932    -1.762924803804    -0.314861293904     1.007825032230
         H            4.021388650932    -0.825128803804     1.149489706096     1.007825032230
         H            4.408219650932     0.727771196196    -0.734288293904     1.007825032230
         H            3.127410650932    -0.044779803804    -1.674141293904     1.007825032230
         H            1.856921650932    -2.110582803804    -0.594621293904     1.007825032230
         H            2.336208650932    -2.621892803804     1.029055706096     1.007825032230
         H            2.756679650932     1.490317196196     0.949200706096     1.007825032230
         H            2.222595650932     2.013855196196    -0.654518293904     1.007825032230
         H            0.252196650932    -1.217129803804     1.070221706096     1.007825032230
         H            1.577600650932    -0.463396803804     1.966871706096     1.007825032230
         H           -2.282246349068     1.890767196196     1.057095706096     1.007825032230
         H           -0.601439349068    -1.312839803804    -1.257391293904     1.007825032230
         H           -4.484735349068     0.716826196196     1.087218706096     1.007825032230
         H           -2.802981349068    -2.469289803804    -1.267186293904     1.007825032230
         H           -4.741181349068    -1.463856803804    -0.079143293904     1.007825032230

  Basis Set: AUG-CC-PVTZ
    Blend: AUG-CC-PVTZ
  Basis Set: (AUG-CC-PVTZ AUX)
    Blend: AUG-CC-PVTZ-JKFIT
	 Reference Energy          =    -592.6807248766042449 [Eh]
	 Singles Energy            =      -0.0000000000000000 [Eh]
	 Same-Spin Energy          =      -0.6433470852157018 [Eh]
	 Opposite-Spin Energy      =      -2.0534735040008956 [Eh]
	 Correlation Energy        =      -2.6968205892165975 [Eh]
	 Total Energy              =    -595.3775454658208446 [Eh]

	 ================> DF-SCS-MP2 Energies <==================
	-----------------------------------------------------------
	 SCS Same-Spin Scale       =       0.3333333333333333 [-]
	 SCS Opposite-Spin Scale   =       1.2000000000000000 [-]
	 SCS Same-Spin Energy      =      -0.2144490284052339 [Eh]
	 SCS Opposite-Spin Energy  =      -2.4641682048010747 [Eh]
	 SCS Correlation Energy    =      -2.6786172332063085 [Eh]
	 SCS Total Energy          =    -595.3593421098105409 [Eh]
	-----------------------------------------------------------

  Dipole Moment: [D]
     X:     1.1855      Y:    -3.3671      Z:     1.1312     Total:     3.7447

*** Psi4 exiting successfully. Buy a developer a beer!
