                               Psi4 1.3.2 release

  ==> Input File <==

--------------------------------------------------------------------------
#psi4
#
memory 32 gb

molecule  {
0 1
  O       -0.1146352     2.3546970    -0.4171239
  N        1.0902530     0.4589530     0.1084880
  C        3.5423410    -1.0378250     0.1583630
  C        3.3922610     0.2419230    -0.6640150
  C        2.1860550    -1.7140940     0.3593590
  C        2.3559930     1.1736850    -0.0440690
  C        1.1838660    -0.7305840     0.9537980
  C       -0.0769430     1.1544410    -0.1174940
  C       -1.3555190     0.3759530    -0.0649830
  C       -2.4581180     0.9595770     0.5701650
  C       -1.5045770    -0.8456090    -0.7357740
  C       -3.6889550     0.3043920     0.5733300
  C       -2.7428150    -1.4894620    -0.7452070
  C       -3.8339540    -0.9208060    -0.0836890
  H        4.2467360    -1.7252930    -0.3235850
  H        3.9658390    -0.7874970     1.1407660
  H        4.3526700     0.7654030    -0.7430120
  H        3.0718610    -0.0071480    -1.6828650
  H        1.8013720    -2.0729510    -0.6033450
  H        2.2806590    -2.5842610     1.0203320
  H        2.7011300     1.5279490     0.9404770
  H        2.1670460     2.0514870    -0.6632420
  H        0.1966470    -1.1794980     1.0614980
  H        1.5220510    -0.4257650     1.9581480
  H       -2.3377960     1.9283990     1.0483720
  H       -0.6569890    -1.2752080    -1.2661150
  H       -4.5402850     0.7544580     1.0784950
  H       -2.8585310    -2.4316580    -1.2759100
  H       -4.7967310    -1.4262250    -0.0878670
units angstrom
no_reorient  #important for SAPT in psi4, default
symmetry c1  #important for SAPT in psi4, default
}

set PROPERTIES_ORIGIN ["COM"]
properties('MP2/aug-cc-pvtz', properties = ['dipole'])
--------------------------------------------------------------------------

    Molecular point group: c1
  Charge       = 0
  Multiplicity = 1
  Basis Set: AUG-CC-PVTZ
    Blend: AUG-CC-PVTZ
  Basis Set: (AUG-CC-PVTZ AUX)
    Blend: AUG-CC-PVTZ-JKFIT

    Orbital Energies [Eh]
    ---------------------

    Doubly Occupied:

       1A    -20.515168     2A    -15.582725     3A    -11.350451
       4A    -11.267703     5A    -11.254199     6A    -11.250284
       7A    -11.249107     8A    -11.247226     9A    -11.244998
      10A    -11.244900    11A    -11.242827    12A    -11.231374
      13A    -11.228331    14A    -11.225565    15A     -1.369044
      16A     -1.249319    17A     -1.160427    18A     -1.084352
      19A     -1.040467    20A     -1.025781    21A     -1.022421
      22A     -0.925030    23A     -0.868092    24A     -0.845909
      25A     -0.835215    26A     -0.793622    27A     -0.748050
      28A     -0.720078    29A     -0.680731    30A     -0.651371
      31A     -0.638681    32A     -0.631010    33A     -0.625706
      34A     -0.610893    35A     -0.600883    36A     -0.593436
      37A     -0.589260    38A     -0.561162    39A     -0.550957
      40A     -0.534235    41A     -0.512834    42A     -0.503783
      43A     -0.501656    44A     -0.495775    45A     -0.479118
      46A     -0.469559    47A     -0.461210    48A     -0.422577
      49A     -0.370495    50A     -0.344401    51A     -0.341399

  @DF-RHF Final Energy:  -592.68279030553447

   => Energetics <=

    Nuclear Repulsion Energy =            876.9907624425802624
    One-Electron Energy =               -2545.3595133645721944
    Two-Electron Energy =                1075.6859606164575780
    Total Energy =                       -592.6827903055343540
  Basis Set: (AUG-CC-PVTZ AUX)
    Blend: AUG-CC-PVTZ-RI
    Molecular point group: c1

    Geometry (in Angstrom), charge = 0, multiplicity = 1:

       Center              X                  Y                   Z               Mass
    ------------   -----------------  -----------------  -----------------  -----------------
         O           -0.054521589976     2.318701421290    -0.408554507294    15.994914619570
         N            1.150366610024     0.422957421290     0.117057392706    14.003074004430
         C            3.602454610024    -1.073820578710     0.166932392706    12.000000000000
         C            3.452374610024     0.205927421290    -0.655445607294    12.000000000000
         C            2.246168610024    -1.750089578710     0.367928392706    12.000000000000
         C            2.416106610024     1.137689421290    -0.035499607294    12.000000000000
         C            1.243979610024    -0.766579578710     0.962367392706    12.000000000000
         C           -0.016829389976     1.118445421290    -0.108924607294    12.000000000000
         C           -1.295405389976     0.339957421290    -0.056413607294    12.000000000000
         C           -2.398004389976     0.923581421290     0.578734392706    12.000000000000
         C           -1.444463389976    -0.881604578710    -0.727204607294    12.000000000000
         C           -3.628841389976     0.268396421290     0.581899392706    12.000000000000
         C           -2.682701389976    -1.525457578710    -0.736637607294    12.000000000000
         C           -3.773840389976    -0.956801578710    -0.075119607294    12.000000000000
         H            4.306849610024    -1.761288578710    -0.315015607294     1.007825032230
         H            4.025952610024    -0.823492578710     1.149335392706     1.007825032230
         H            4.412783610024     0.729407421290    -0.734442607294     1.007825032230
         H            3.131974610024    -0.043143578710    -1.674295607294     1.007825032230
         H            1.861485610024    -2.108946578710    -0.594775607294     1.007825032230
         H            2.340772610024    -2.620256578710     1.028901392706     1.007825032230
         H            2.761243610024     1.491953421290     0.949046392706     1.007825032230
         H            2.227159610024     2.015491421290    -0.654672607294     1.007825032230
         H            0.256760610024    -1.215493578710     1.070067392706     1.007825032230
         H            1.582164610024    -0.461760578710     1.966717392706     1.007825032230
         H           -2.277682389976     1.892403421290     1.056941392706     1.007825032230
         H           -0.596875389976    -1.311203578710    -1.257545607294     1.007825032230
         H           -4.480171389976     0.718462421290     1.087064392706     1.007825032230
         H           -2.798417389976    -2.467653578710    -1.267340607294     1.007825032230
         H           -4.736617389976    -1.462220578710    -0.079297607294     1.007825032230

  Basis Set: AUG-CC-PVTZ
    Blend: AUG-CC-PVTZ
  Basis Set: (AUG-CC-PVTZ AUX)
    Blend: AUG-CC-PVTZ-JKFIT
	 Reference Energy          =    -592.6827903055344677 [Eh]
	 Singles Energy            =      -0.0000000000000000 [Eh]
	 Same-Spin Energy          =      -0.6434577374058643 [Eh]
	 Opposite-Spin Energy      =      -2.0533291631918829 [Eh]
	 Correlation Energy        =      -2.6967869005977469 [Eh]
	 Total Energy              =    -595.3795772061322396 [Eh]

	 ================> DF-SCS-MP2 Energies <==================
	-----------------------------------------------------------
	 SCS Same-Spin Scale       =       0.3333333333333333 [-]
	 SCS Opposite-Spin Scale   =       1.2000000000000000 [-]
	 SCS Same-Spin Energy      =      -0.2144859124686214 [Eh]
	 SCS Opposite-Spin Energy  =      -2.4639949958302592 [Eh]
	 SCS Correlation Energy    =      -2.6784809082988805 [Eh]
	 SCS Total Energy          =    -595.3612712138333336 [Eh]
	-----------------------------------------------------------

  Dipole Moment: [D]
     X:     1.1166      Y:    -3.3840      Z:     1.1308     Total:     3.7386

*** Psi4 exiting successfully. Buy a developer a beer!
