                               Psi4 1.3.2 release

  ==> Input File <==

--------------------------------------------------------------------------
#psi4
#
memory 32 gb

molecule  {
0 1
  O       -0.0501982     2.3566051    -0.4105800
  N        1.0902530     0.4589530     0.1084880
  C        3.5423410    -1.0378250     0.1583630
  C        3.3922610     0.2419230    -0.6640150
  C        2.1860550    -1.7140940     0.3593590
  C        2.3559930     1.1736850    -0.0440690
  C        1.1838660    -0.7305840     0.9537980
  C       -0.0769430     1.1544410    -0.1174940
  C       -1.3555190     0.3759530    -0.0649830
  C       -2.4581180     0.9595770     0.5701650
  C       -1.5045770    -0.8456090    -0.7357740
  C       -3.6889550     0.3043920     0.5733300
  C       -2.7428150    -1.4894620    -0.7452070
  C       -3.8339540    -0.9208060    -0.0836890
  H        4.2467360    -1.7252930    -0.3235850
  H        3.9658390    -0.7874970     1.1407660
  H        4.3526700     0.7654030    -0.7430120
  H        3.0718610    -0.0071480    -1.6828650
  H        1.8013720    -2.0729510    -0.6033450
  H        2.2806590    -2.5842610     1.0203320
  H        2.7011300     1.5279490     0.9404770
  H        2.1670460     2.0514870    -0.6632420
  H        0.1966470    -1.1794980     1.0614980
  H        1.5220510    -0.4257650     1.9581480
  H       -2.3377960     1.9283990     1.0483720
  H       -0.6569890    -1.2752080    -1.2661150
  H       -4.5402850     0.7544580     1.0784950
  H       -2.8585310    -2.4316580    -1.2759100
  H       -4.7967310    -1.4262250    -0.0878670
units angstrom
no_reorient  #important for SAPT in psi4, default
symmetry c1  #important for SAPT in psi4, default
}

set PROPERTIES_ORIGIN ["COM"]
properties('MP2/aug-cc-pvtz', properties = ['dipole'])
--------------------------------------------------------------------------

    Molecular point group: c1
  Charge       = 0
  Multiplicity = 1
  Basis Set: AUG-CC-PVTZ
    Blend: AUG-CC-PVTZ
  Basis Set: (AUG-CC-PVTZ AUX)
    Blend: AUG-CC-PVTZ-JKFIT

    Orbital Energies [Eh]
    ---------------------

    Doubly Occupied:

       1A    -20.513892     2A    -15.579575     3A    -11.350064
       4A    -11.266015     5A    -11.252671     6A    -11.251599
       7A    -11.251366     8A    -11.249117     9A    -11.247120
      10A    -11.246528    11A    -11.244459    12A    -11.230163
      13A    -11.227068    14A    -11.224005    15A     -1.369433
      16A     -1.245602    17A     -1.162422    18A     -1.082872
      19A     -1.041223    20A     -1.025995    21A     -1.023396
      22A     -0.923929    23A     -0.867248    24A     -0.846232
      25A     -0.836647    26A     -0.792858    27A     -0.747355
      28A     -0.720140    29A     -0.681686    30A     -0.651569
      31A     -0.638820    32A     -0.630105    33A     -0.625517
      34A     -0.610410    35A     -0.601195    36A     -0.594524
      37A     -0.588236    38A     -0.559480    39A     -0.550321
      40A     -0.534035    41A     -0.513849    42A     -0.504637
      43A     -0.501552    44A     -0.495962    45A     -0.477686
      46A     -0.467760    47A     -0.459609    48A     -0.422461
      49A     -0.367853    50A     -0.345978    51A     -0.344008

  @DF-RHF Final Energy:  -592.68249064150780

   => Energetics <=

    Nuclear Repulsion Energy =            877.1183196524087862
    One-Electron Energy =               -2545.6291283548744104
    Two-Electron Energy =                1075.8283180609575993
    Total Energy =                       -592.6824906415079113
  Basis Set: (AUG-CC-PVTZ AUX)
    Blend: AUG-CC-PVTZ-RI
    Molecular point group: c1

    Geometry (in Angstrom), charge = 0, multiplicity = 1:

       Center              X                  Y                   Z               Mass
    ------------   -----------------  -----------------  -----------------  -----------------
         O            0.004465486279     2.320448138863    -0.402564074339    15.994914619570
         N            1.144916686279     0.422796038863     0.116503925661    14.003074004430
         C            3.597004686279    -1.073981961137     0.166378925661    12.000000000000
         C            3.446924686279     0.205766038863    -0.655999074339    12.000000000000
         C            2.240718686279    -1.750250961137     0.367374925661    12.000000000000
         C            2.410656686279     1.137528038863    -0.036053074339    12.000000000000
         C            1.238529686279    -0.766740961137     0.961813925661    12.000000000000
         C           -0.022279313721     1.118284038863    -0.109478074339    12.000000000000
         C           -1.300855313721     0.339796038863    -0.056967074339    12.000000000000
         C           -2.403454313721     0.923420038863     0.578180925661    12.000000000000
         C           -1.449913313721    -0.881765961137    -0.727758074339    12.000000000000
         C           -3.634291313721     0.268235038863     0.581345925661    12.000000000000
         C           -2.688151313721    -1.525618961137    -0.737191074339    12.000000000000
         C           -3.779290313721    -0.956962961137    -0.075673074339    12.000000000000
         H            4.301399686279    -1.761449961137    -0.315569074339     1.007825032230
         H            4.020502686279    -0.823653961137     1.148781925661     1.007825032230
         H            4.407333686279     0.729246038863    -0.734996074339     1.007825032230
         H            3.126524686279    -0.043304961137    -1.674849074339     1.007825032230
         H            1.856035686279    -2.109107961137    -0.595329074339     1.007825032230
         H            2.335322686279    -2.620417961137     1.028347925661     1.007825032230
         H            2.755793686279     1.491792038863     0.948492925661     1.007825032230
         H            2.221709686279     2.015330038863    -0.655226074339     1.007825032230
         H            0.251310686279    -1.215654961137     1.069513925661     1.007825032230
         H            1.576714686279    -0.461921961137     1.966163925661     1.007825032230
         H           -2.283132313721     1.892242038863     1.056387925661     1.007825032230
         H           -0.602325313721    -1.311364961137    -1.258099074339     1.007825032230
         H           -4.485621313721     0.718301038863     1.086510925661     1.007825032230
         H           -2.803867313721    -2.467814961137    -1.267894074339     1.007825032230
         H           -4.742067313721    -1.462381961137    -0.079851074339     1.007825032230

  Basis Set: AUG-CC-PVTZ
    Blend: AUG-CC-PVTZ
  Basis Set: (AUG-CC-PVTZ AUX)
    Blend: AUG-CC-PVTZ-JKFIT
	 Reference Energy          =    -592.6824906415077976 [Eh]
	 Singles Energy            =      -0.0000000000000000 [Eh]
	 Same-Spin Energy          =      -0.6435213600538616 [Eh]
	 Opposite-Spin Energy      =      -2.0533214470136691 [Eh]
	 Correlation Energy        =      -2.6968428070675308 [Eh]
	 Total Energy              =    -595.3793334485753803 [Eh]

	 ================> DF-SCS-MP2 Energies <==================
	-----------------------------------------------------------
	 SCS Same-Spin Scale       =       0.3333333333333333 [-]
	 SCS Opposite-Spin Scale   =       1.2000000000000000 [-]
	 SCS Same-Spin Energy      =      -0.2145071200179539 [Eh]
	 SCS Opposite-Spin Energy  =      -2.4639857364164031 [Eh]
	 SCS Correlation Energy    =      -2.6784928564343571 [Eh]
	 SCS Total Energy          =    -595.3609834979421294 [Eh]
	-----------------------------------------------------------

  Dipole Moment: [D]
     X:     0.8585      Y:    -3.4099      Z:     1.1069     Total:     3.6864

*** Psi4 exiting successfully. Buy a developer a beer!
