                               Psi4 1.3.2 release

  ==> Input File <==

--------------------------------------------------------------------------
#psi4
#
memory 32 gb

molecule  {
0 1
  O       -0.0931590     2.3556990    -0.4150330
  N        1.0902530     0.4589530     0.1084880
  C        3.5423410    -1.0378250     0.1583630
  C        3.3922610     0.2419230    -0.6640150
  C        2.1860550    -1.7140940     0.3593590
  C        2.3559930     1.1736850    -0.0440690
  C        1.1838660    -0.7305840     0.9537980
  C       -0.0756328     1.0573825    -0.0934536
  C       -1.3555190     0.3759530    -0.0649830
  C       -2.4581180     0.9595770     0.5701650
  C       -1.5045770    -0.8456090    -0.7357740
  C       -3.6889550     0.3043920     0.5733300
  C       -2.7428150    -1.4894620    -0.7452070
  C       -3.8339540    -0.9208060    -0.0836890
  H        4.2467360    -1.7252930    -0.3235850
  H        3.9658390    -0.7874970     1.1407660
  H        4.3526700     0.7654030    -0.7430120
  H        3.0718610    -0.0071480    -1.6828650
  H        1.8013720    -2.0729510    -0.6033450
  H        2.2806590    -2.5842610     1.0203320
  H        2.7011300     1.5279490     0.9404770
  H        2.1670460     2.0514870    -0.6632420
  H        0.1966470    -1.1794980     1.0614980
  H        1.5220510    -0.4257650     1.9581480
  H       -2.3377960     1.9283990     1.0483720
  H       -0.6569890    -1.2752080    -1.2661150
  H       -4.5402850     0.7544580     1.0784950
  H       -2.8585310    -2.4316580    -1.2759100
  H       -4.7967310    -1.4262250    -0.0878670
units angstrom
no_reorient  #important for SAPT in psi4, default
symmetry c1  #important for SAPT in psi4, default
}

set PROPERTIES_ORIGIN ["COM"]
properties('MP2/aug-cc-pvtz', properties = ['dipole'])
--------------------------------------------------------------------------

    Molecular point group: c1
  Charge       = 0
  Multiplicity = 1
  Basis Set: AUG-CC-PVTZ
    Blend: AUG-CC-PVTZ
  Basis Set: (AUG-CC-PVTZ AUX)
    Blend: AUG-CC-PVTZ-JKFIT

    Orbital Energies [Eh]
    ---------------------

    Doubly Occupied:

       1A    -20.493362     2A    -15.595271     3A    -11.348767
       4A    -11.272050     5A    -11.259133     6A    -11.252946
       7A    -11.251703     8A    -11.250040     9A    -11.248236
      10A    -11.246827    11A    -11.244808    12A    -11.234995
      13A    -11.231510    14A    -11.229229    15A     -1.330928
      16A     -1.237234    17A     -1.163672    18A     -1.091261
      19A     -1.047733    20A     -1.030128    21A     -1.025081
      22A     -0.936921    23A     -0.874801    24A     -0.852416
      25A     -0.838388    26A     -0.799932    27A     -0.752504
      28A     -0.725749    29A     -0.681591    30A     -0.653097
      31A     -0.642421    32A     -0.636319    33A     -0.624097
      34A     -0.611683    35A     -0.598051    36A     -0.595978
      37A     -0.586973    38A     -0.558644    39A     -0.544927
      40A     -0.527984    41A     -0.513458    42A     -0.505662
      43A     -0.502152    44A     -0.494907    45A     -0.474167
      46A     -0.468355    47A     -0.461947    48A     -0.409695
      49A     -0.367115    50A     -0.346512    51A     -0.340978

  @DF-RHF Final Energy:  -592.66173795725103

   => Energetics <=

    Nuclear Repulsion Energy =            877.5324946335947516
    One-Electron Energy =               -2546.3637809947827009
    Two-Electron Energy =                1076.1695484039369148
    Total Energy =                       -592.6617379572510345
  Basis Set: (AUG-CC-PVTZ AUX)
    Blend: AUG-CC-PVTZ-RI
    Molecular point group: c1

    Geometry (in Angstrom), charge = 0, multiplicity = 1:

       Center              X                  Y                   Z               Mass
    ------------   -----------------  -----------------  -----------------  -----------------
         O           -0.034944930963     2.325777359815    -0.408165893983    15.994914619570
         N            1.148467069037     0.429031359815     0.115355106017    14.003074004430
         C            3.600555069037    -1.067746640185     0.165230106017    12.000000000000
         C            3.450475069037     0.212001359815    -0.657147893983    12.000000000000
         C            2.244269069037    -1.744015640185     0.366226106017    12.000000000000
         C            2.414207069037     1.143763359815    -0.037201893983    12.000000000000
         C            1.242080069037    -0.760505640185     0.960665106017    12.000000000000
         C           -0.017418730963     1.027460859815    -0.086586493983    12.000000000000
         C           -1.297304930963     0.346031359815    -0.058115893983    12.000000000000
         C           -2.399903930963     0.929655359815     0.577032106017    12.000000000000
         C           -1.446362930963    -0.875530640185    -0.728906893983    12.000000000000
         C           -3.630740930963     0.274470359815     0.580197106017    12.000000000000
         C           -2.684600930963    -1.519383640185    -0.738339893983    12.000000000000
         C           -3.775739930963    -0.950727640185    -0.076821893983    12.000000000000
         H            4.304950069037    -1.755214640185    -0.316717893983     1.007825032230
         H            4.024053069037    -0.817418640185     1.147633106017     1.007825032230
         H            4.410884069037     0.735481359815    -0.736144893983     1.007825032230
         H            3.130075069037    -0.037069640185    -1.675997893983     1.007825032230
         H            1.859586069037    -2.102872640185    -0.596477893983     1.007825032230
         H            2.338873069037    -2.614182640185     1.027199106017     1.007825032230
         H            2.759344069037     1.498027359815     0.947344106017     1.007825032230
         H            2.225260069037     2.021565359815    -0.656374893983     1.007825032230
         H            0.254861069037    -1.209419640185     1.068365106017     1.007825032230
         H            1.580265069037    -0.455686640185     1.965015106017     1.007825032230
         H           -2.279581930963     1.898477359815     1.055239106017     1.007825032230
         H           -0.598774930963    -1.305129640185    -1.259247893983     1.007825032230
         H           -4.482070930963     0.724536359815     1.085362106017     1.007825032230
         H           -2.800316930963    -2.461579640185    -1.269042893983     1.007825032230
         H           -4.738516930963    -1.456146640185    -0.080999893983     1.007825032230

  Basis Set: AUG-CC-PVTZ
    Blend: AUG-CC-PVTZ
  Basis Set: (AUG-CC-PVTZ AUX)
    Blend: AUG-CC-PVTZ-JKFIT
	 Reference Energy          =    -592.6617379572510345 [Eh]
	 Singles Energy            =      -0.0000000000000000 [Eh]
	 Same-Spin Energy          =      -0.6458822344625146 [Eh]
	 Opposite-Spin Energy      =      -2.0580206829345089 [Eh]
	 Correlation Energy        =      -2.7039029173970235 [Eh]
	 Total Energy              =    -595.3656408746480793 [Eh]

	 ================> DF-SCS-MP2 Energies <==================
	-----------------------------------------------------------
	 SCS Same-Spin Scale       =       0.3333333333333333 [-]
	 SCS Opposite-Spin Scale   =       1.2000000000000000 [-]
	 SCS Same-Spin Energy      =      -0.2152940781541715 [Eh]
	 SCS Opposite-Spin Energy  =      -2.4696248195214108 [Eh]
	 SCS Correlation Energy    =      -2.6849188976755824 [Eh]
	 SCS Total Energy          =    -595.3466568549266640 [Eh]
	-----------------------------------------------------------

  Dipole Moment: [D]
     X:     1.3305      Y:    -4.0025      Z:     1.2954     Total:     4.4123

*** Psi4 exiting successfully. Buy a developer a beer!
