                               Psi4 1.4a3.dev225

  ==> Input File <==

--------------------------------------------------------------------------
#psi4
#
memory 32 gb

molecule  {
0 1
  O       -0.0931590     2.3556990    -0.4150330
  N        1.0902530     0.4589530     0.1084880
  C        3.5423410    -1.0378250     0.1583630
  C        3.3922610     0.2419230    -0.6640150
  C        2.1860550    -1.7140940     0.3593590
  C        2.3126926     1.1492343    -0.0388501
  C        1.1838660    -0.7305840     0.9537980
  C       -0.0769430     1.1544410    -0.1174940
  C       -1.3555190     0.3759530    -0.0649830
  C       -2.4581180     0.9595770     0.5701650
  C       -1.5045770    -0.8456090    -0.7357740
  C       -3.6889550     0.3043920     0.5733300
  C       -2.7428150    -1.4894620    -0.7452070
  C       -3.8339540    -0.9208060    -0.0836890
  H        4.2467360    -1.7252930    -0.3235850
  H        3.9658390    -0.7874970     1.1407660
  H        4.3526700     0.7654030    -0.7430120
  H        3.0718610    -0.0071480    -1.6828650
  H        1.8013720    -2.0729510    -0.6033450
  H        2.2806590    -2.5842610     1.0203320
  H        2.7011300     1.5279490     0.9404770
  H        2.1670460     2.0514870    -0.6632420
  H        0.1966470    -1.1794980     1.0614980
  H        1.5220510    -0.4257650     1.9581480
  H       -2.3377960     1.9283990     1.0483720
  H       -0.6569890    -1.2752080    -1.2661150
  H       -4.5402850     0.7544580     1.0784950
  H       -2.8585310    -2.4316580    -1.2759100
  H       -4.7967310    -1.4262250    -0.0878670
units angstrom
no_reorient  #important for SAPT in psi4, default
symmetry c1  #important for SAPT in psi4, default
}

set PROPERTIES_ORIGIN ["COM"]
properties('MP2/aug-cc-pvtz', properties = ['dipole'])
--------------------------------------------------------------------------

    Molecular point group: c1
  Charge       = 0
  Multiplicity = 1
  Basis Set: AUG-CC-PVTZ
    Blend: AUG-CC-PVTZ
  Basis Set: (AUG-CC-PVTZ AUX)
    Blend: AUG-CC-PVTZ-JKFIT

    Orbital Energies [Eh]
    ---------------------

    Doubly Occupied:

       1A    -20.516782     2A    -15.583155     3A    -11.352037
       4A    -11.268299     5A    -11.252319     6A    -11.252029
       7A    -11.250795     8A    -11.248632     9A    -11.246540
      10A    -11.246217    11A    -11.244112    12A    -11.231327
      13A    -11.226817    14A    -11.224314    15A     -1.372248
      16A     -1.258012    17A     -1.162086    18A     -1.083480
      19A     -1.042606    20A     -1.025273    21A     -1.022530
      22A     -0.925169    23A     -0.870835    24A     -0.845314
      25A     -0.836281    26A     -0.794837    27A     -0.747758
      28A     -0.723006    29A     -0.682060    30A     -0.653179
      31A     -0.640210    32A     -0.629933    33A     -0.626797
      34A     -0.612105    35A     -0.600869    36A     -0.595078
      37A     -0.591248    38A     -0.563180    39A     -0.549448
      40A     -0.533455    41A     -0.513889    42A     -0.504184
      43A     -0.500787    44A     -0.494634    45A     -0.476278
      46A     -0.469832    47A     -0.457311    48A     -0.424896
      49A     -0.368759    50A     -0.345707    51A     -0.343109

  @DF-RHF Final Energy:  -592.68035436566709

   => Energetics <=

    Nuclear Repulsion Energy =            878.0189667651046648
    One-Electron Energy =               -2547.3391272071908134
    Two-Electron Energy =                1076.6398060764190632
    Total Energy =                       -592.6803543656669717
  Basis Set: (AUG-CC-PVTZ AUX)
    Blend: AUG-CC-PVTZ-RI
    Molecular point group: c1

    Geometry (in Angstrom), charge = 0, multiplicity = 1:

       Center              X                  Y                   Z               Mass
    ------------   -----------------  -----------------  -----------------  -----------------
         O           -0.032114239747     2.321170152970    -0.406971607093    15.994914619570
         N            1.151297760253     0.424424152970     0.116549392907    14.003074004430
         C            3.603385760253    -1.072353847030     0.166424392907    12.000000000000
         C            3.453305760253     0.207394152970    -0.655953607093    12.000000000000
         C            2.247099760253    -1.748622847030     0.367420392907    12.000000000000
         C            2.373737360253     1.114705452970    -0.030788707093    12.000000000000
         C            1.244910760253    -0.765112847030     0.961859392907    12.000000000000
         C           -0.015898239747     1.119912152970    -0.109432607093    12.000000000000
         C           -1.294474239747     0.341424152970    -0.056921607093    12.000000000000
         C           -2.397073239747     0.925048152970     0.578226392907    12.000000000000
         C           -1.443532239747    -0.880137847030    -0.727712607093    12.000000000000
         C           -3.627910239747     0.269863152970     0.581391392907    12.000000000000
         C           -2.681770239747    -1.523990847030    -0.737145607093    12.000000000000
         C           -3.772909239747    -0.955334847030    -0.075627607093    12.000000000000
         H            4.307780760253    -1.759821847030    -0.315523607093     1.007825032230
         H            4.026883760253    -0.822025847030     1.148827392907     1.007825032230
         H            4.413714760253     0.730874152970    -0.734950607093     1.007825032230
         H            3.132905760253    -0.041676847030    -1.674803607093     1.007825032230
         H            1.862416760253    -2.107479847030    -0.595283607093     1.007825032230
         H            2.341703760253    -2.618789847030     1.028393392907     1.007825032230
         H            2.762174760253     1.493420152970     0.948538392907     1.007825032230
         H            2.228090760253     2.016958152970    -0.655180607093     1.007825032230
         H            0.257691760253    -1.214026847030     1.069559392907     1.007825032230
         H            1.583095760253    -0.460293847030     1.966209392907     1.007825032230
         H           -2.276751239747     1.893870152970     1.056433392907     1.007825032230
         H           -0.595944239747    -1.309736847030    -1.258053607093     1.007825032230
         H           -4.479240239747     0.719929152970     1.086556392907     1.007825032230
         H           -2.797486239747    -2.466186847030    -1.267848607093     1.007825032230
         H           -4.735686239747    -1.460753847030    -0.079805607093     1.007825032230

  Basis Set: AUG-CC-PVTZ
    Blend: AUG-CC-PVTZ
  Basis Set: (AUG-CC-PVTZ AUX)
    Blend: AUG-CC-PVTZ-JKFIT
	 Reference Energy          =    -592.6803543656670854 [Eh]
	 Singles Energy            =      -0.0000000000000000 [Eh]
	 Same-Spin Energy          =      -0.6438172025245477 [Eh]
	 Opposite-Spin Energy      =      -2.0535082006172027 [Eh]
	 Correlation Energy        =      -2.6973254031417504 [Eh]
	 Total Energy              =    -595.3776797688088891 [Eh]

	 ================> DF-SCS-MP2 Energies <==================
	-----------------------------------------------------------
	 SCS Same-Spin Scale       =       0.3333333333333333 [-]
	 SCS Opposite-Spin Scale   =       1.2000000000000000 [-]
	 SCS Same-Spin Energy      =      -0.2146057341748492 [Eh]
	 SCS Opposite-Spin Energy  =      -2.4642098407406432 [Eh]
	 SCS Correlation Energy    =      -2.6788155749154923 [Eh]
	 SCS Total Energy          =    -595.3591699405825466 [Eh]
	-----------------------------------------------------------

  Dipole Moment: [D]
     X:     0.8704      Y:    -3.4243      Z:     1.1104     Total:     3.7036

*** Psi4 exiting successfully. Buy a developer a beer!
