                               Psi4 1.3.2 release

  ==> Input File <==

--------------------------------------------------------------------------
#psi4
#
memory 32 gb

molecule  {
0 1
  O       -0.1362955     2.3539511    -0.4166025
  N        1.0902530     0.4589530     0.1084880
  C        3.5423410    -1.0378250     0.1583630
  C        3.3922610     0.2419230    -0.6640150
  C        2.1860550    -1.7140940     0.3593590
  C        2.3559930     1.1736850    -0.0440690
  C        1.1838660    -0.7305840     0.9537980
  C       -0.0769430     1.1544410    -0.1174940
  C       -1.3555190     0.3759530    -0.0649830
  C       -2.4581180     0.9595770     0.5701650
  C       -1.5045770    -0.8456090    -0.7357740
  C       -3.6889550     0.3043920     0.5733300
  C       -2.7428150    -1.4894620    -0.7452070
  C       -3.8339540    -0.9208060    -0.0836890
  H        4.2467360    -1.7252930    -0.3235850
  H        3.9658390    -0.7874970     1.1407660
  H        4.3526700     0.7654030    -0.7430120
  H        3.0718610    -0.0071480    -1.6828650
  H        1.8013720    -2.0729510    -0.6033450
  H        2.2806590    -2.5842610     1.0203320
  H        2.7011300     1.5279490     0.9404770
  H        2.1670460     2.0514870    -0.6632420
  H        0.1966470    -1.1794980     1.0614980
  H        1.5220510    -0.4257650     1.9581480
  H       -2.3377960     1.9283990     1.0483720
  H       -0.6569890    -1.2752080    -1.2661150
  H       -4.5402850     0.7544580     1.0784950
  H       -2.8585310    -2.4316580    -1.2759100
  H       -4.7967310    -1.4262250    -0.0878670
units angstrom
no_reorient  #important for SAPT in psi4, default
symmetry c1  #important for SAPT in psi4, default
}

set PROPERTIES_ORIGIN ["COM"]
properties('MP2/aug-cc-pvtz', properties = ['dipole'])
--------------------------------------------------------------------------

    Molecular point group: c1
  Charge       = 0
  Multiplicity = 1
  Basis Set: AUG-CC-PVTZ
    Blend: AUG-CC-PVTZ
  Basis Set: (AUG-CC-PVTZ AUX)
    Blend: AUG-CC-PVTZ-JKFIT

    Orbital Energies [Eh]
    ---------------------

    Doubly Occupied:

       1A    -20.515574     2A    -15.583741     3A    -11.350605
       4A    -11.268247     5A    -11.255042     6A    -11.249492
       7A    -11.248332     8A    -11.246592     9A    -11.244410
      10A    -11.244214    11A    -11.242264    12A    -11.231759
      13A    -11.228738    14A    -11.226069    15A     -1.369006
      16A     -1.250515    17A     -1.159748    18A     -1.084834
      19A     -1.040285    20A     -1.025758    21A     -1.021927
      22A     -0.925402    23A     -0.868386    24A     -0.845772
      25A     -0.834717    26A     -0.793864    27A     -0.748286
      28A     -0.720024    29A     -0.680432    30A     -0.651337
      31A     -0.638638    32A     -0.631427    33A     -0.625634
      34A     -0.611038    35A     -0.600796    36A     -0.593109
      37A     -0.589510    38A     -0.561712    39A     -0.551210
      40A     -0.534298    41A     -0.512471    42A     -0.503715
      43A     -0.501515    44A     -0.495607    45A     -0.479578
      46A     -0.470140    47A     -0.461722    48A     -0.422499
      49A     -0.371351    50A     -0.343866    51A     -0.340493

  @DF-RHF Final Energy:  -592.68250632904073

   => Energetics <=

    Nuclear Repulsion Energy =            876.9670111366881429
    One-Electron Energy =               -2545.3076267491046565
    Two-Electron Energy =                1075.6581092833757793
    Total Energy =                       -592.6825063290407343
  Basis Set: (AUG-CC-PVTZ AUX)
    Blend: AUG-CC-PVTZ-RI
    Molecular point group: c1

    Geometry (in Angstrom), charge = 0, multiplicity = 1:

       Center              X                  Y                   Z               Mass
    ------------   -----------------  -----------------  -----------------  -----------------
         O           -0.074349914818     2.318018607687    -0.408077206030    15.994914619570
         N            1.152198585182     0.423020507687     0.117013293970    14.003074004430
         C            3.604286585182    -1.073757492313     0.166888293970    12.000000000000
         C            3.454206585182     0.205990507687    -0.655489706030    12.000000000000
         C            2.248000585182    -1.750026492313     0.367884293970    12.000000000000
         C            2.417938585182     1.137752507687    -0.035543706030    12.000000000000
         C            1.245811585182    -0.766516492313     0.962323293970    12.000000000000
         C           -0.014997414818     1.118508507687    -0.108968706030    12.000000000000
         C           -1.293573414818     0.340020507687    -0.056457706030    12.000000000000
         C           -2.396172414818     0.923644507687     0.578690293970    12.000000000000
         C           -1.442631414818    -0.881541492313    -0.727248706030    12.000000000000
         C           -3.627009414818     0.268459507687     0.581855293970    12.000000000000
         C           -2.680869414818    -1.525394492313    -0.736681706030    12.000000000000
         C           -3.772008414818    -0.956738492313    -0.075163706030    12.000000000000
         H            4.308681585182    -1.761225492313    -0.315059706030     1.007825032230
         H            4.027784585182    -0.823429492313     1.149291293970     1.007825032230
         H            4.414615585182     0.729470507687    -0.734486706030     1.007825032230
         H            3.133806585182    -0.043080492313    -1.674339706030     1.007825032230
         H            1.863317585182    -2.108883492313    -0.594819706030     1.007825032230
         H            2.342604585182    -2.620193492313     1.028857293970     1.007825032230
         H            2.763075585182     1.492016507687     0.949002293970     1.007825032230
         H            2.228991585182     2.015554507687    -0.654716706030     1.007825032230
         H            0.258592585182    -1.215430492313     1.070023293970     1.007825032230
         H            1.583996585182    -0.461697492313     1.966673293970     1.007825032230
         H           -2.275850414818     1.892466507687     1.056897293970     1.007825032230
         H           -0.595043414818    -1.311140492313    -1.257589706030     1.007825032230
         H           -4.478339414818     0.718525507687     1.087020293970     1.007825032230
         H           -2.796585414818    -2.467590492313    -1.267384706030     1.007825032230
         H           -4.734785414818    -1.462157492313    -0.079341706030     1.007825032230

  Basis Set: AUG-CC-PVTZ
    Blend: AUG-CC-PVTZ
  Basis Set: (AUG-CC-PVTZ AUX)
    Blend: AUG-CC-PVTZ-JKFIT
	 Reference Energy          =    -592.6825063290407343 [Eh]
	 Singles Energy            =      -0.0000000000000000 [Eh]
	 Same-Spin Energy          =      -0.6434545574381034 [Eh]
	 Opposite-Spin Energy      =      -2.0533613136131446 [Eh]
	 Correlation Energy        =      -2.6968158710512480 [Eh]
	 Total Energy              =    -595.3793222000920196 [Eh]

	 ================> DF-SCS-MP2 Energies <==================
	-----------------------------------------------------------
	 SCS Same-Spin Scale       =       0.3333333333333333 [-]
	 SCS Opposite-Spin Scale   =       1.2000000000000000 [-]
	 SCS Same-Spin Energy      =      -0.2144848524793678 [Eh]
	 SCS Opposite-Spin Energy  =      -2.4640335763357735 [Eh]
	 SCS Correlation Energy    =      -2.6785184288151411 [Eh]
	 SCS Total Energy          =    -595.3610247578558301 [Eh]
	-----------------------------------------------------------

  Dipole Moment: [D]
     X:     1.2021      Y:    -3.3735      Z:     1.1344     Total:     3.7567

*** Psi4 exiting successfully. Buy a developer a beer!
