                               Psi4 1.3.2 release

  ==> Input File <==

--------------------------------------------------------------------------
#psi4
#
memory 32 gb

molecule  {
0 1
  O       -0.0931590     2.3556990    -0.4150330
  N        1.0902530     0.4589530     0.1084880
  C        3.5423410    -1.0378250     0.1583630
  C        3.3922610     0.2419230    -0.6640150
  C        2.1860550    -1.7140940     0.3593590
  C        2.3559930     1.1736850    -0.0440690
  C        1.1838660    -0.7305840     0.9537980
  C       -0.0769430     1.1544410    -0.1174940
  C       -1.3694749     0.3568956    -0.0712287
  C       -2.4581180     0.9595770     0.5701650
  C       -1.5045770    -0.8456090    -0.7357740
  C       -3.6889550     0.3043920     0.5733300
  C       -2.7428150    -1.4894620    -0.7452070
  C       -3.8339540    -0.9208060    -0.0836890
  H        4.2467360    -1.7252930    -0.3235850
  H        3.9658390    -0.7874970     1.1407660
  H        4.3526700     0.7654030    -0.7430120
  H        3.0718610    -0.0071480    -1.6828650
  H        1.8013720    -2.0729510    -0.6033450
  H        2.2806590    -2.5842610     1.0203320
  H        2.7011300     1.5279490     0.9404770
  H        2.1670460     2.0514870    -0.6632420
  H        0.1966470    -1.1794980     1.0614980
  H        1.5220510    -0.4257650     1.9581480
  H       -2.3377960     1.9283990     1.0483720
  H       -0.6569890    -1.2752080    -1.2661150
  H       -4.5402850     0.7544580     1.0784950
  H       -2.8585310    -2.4316580    -1.2759100
  H       -4.7967310    -1.4262250    -0.0878670
units angstrom
no_reorient  #important for SAPT in psi4, default
symmetry c1  #important for SAPT in psi4, default
}

set PROPERTIES_ORIGIN ["COM"]
properties('MP2/aug-cc-pvtz', properties = ['dipole'])
--------------------------------------------------------------------------

    Molecular point group: c1
  Charge       = 0
  Multiplicity = 1
  Basis Set: AUG-CC-PVTZ
    Blend: AUG-CC-PVTZ
  Basis Set: (AUG-CC-PVTZ AUX)
    Blend: AUG-CC-PVTZ-JKFIT

    Orbital Energies [Eh]
    ---------------------

    Doubly Occupied:

       1A    -20.515285     2A    -15.581665     3A    -11.351269
       4A    -11.267196     5A    -11.253324     6A    -11.250085
       7A    -11.247517     8A    -11.247029     9A    -11.245184
      10A    -11.245058    11A    -11.243092    12A    -11.231013
      13A    -11.227947    14A    -11.225076    15A     -1.368672
      16A     -1.247989    17A     -1.162983    18A     -1.083629
      19A     -1.040275    20A     -1.025282    21A     -1.023973
      22A     -0.923890    23A     -0.867045    24A     -0.844071
      25A     -0.836937    26A     -0.793823    27A     -0.747482
      28A     -0.719772    29A     -0.679543    30A     -0.650771
      31A     -0.638970    32A     -0.630609    33A     -0.626039
      34A     -0.611692    35A     -0.600299    36A     -0.594543
      37A     -0.588909    38A     -0.560584    39A     -0.550800
      40A     -0.533962    41A     -0.512052    42A     -0.505327
      43A     -0.502283    44A     -0.496665    45A     -0.478713
      46A     -0.468961    47A     -0.460697    48A     -0.420951
      49A     -0.369659    50A     -0.346498    51A     -0.342041

  @DF-RHF Final Energy:  -592.68264903746012

   => Energetics <=

    Nuclear Repulsion Energy =            877.0090830955497267
    One-Electron Energy =               -2545.4092050788808592
    Two-Electron Energy =                1075.7174729458711226
    Total Energy =                       -592.6826490374601235
  Basis Set: (AUG-CC-PVTZ AUX)
    Blend: AUG-CC-PVTZ-RI
    Molecular point group: c1

    Geometry (in Angstrom), charge = 0, multiplicity = 1:

       Center              X                  Y                   Z               Mass
    ------------   -----------------  -----------------  -----------------  -----------------
         O           -0.033976246050     2.320827930114    -0.406244140022    15.994914619570
         N            1.149435753950     0.424081930114     0.117276859978    14.003074004430
         C            3.601523753950    -1.072696069886     0.167151859978    12.000000000000
         C            3.451443753950     0.207051930114    -0.655226140022    12.000000000000
         C            2.245237753950    -1.748965069886     0.368147859978    12.000000000000
         C            2.415175753950     1.138813930114    -0.035280140022    12.000000000000
         C            1.243048753950    -0.765455069886     0.962586859978    12.000000000000
         C           -0.017760246050     1.119569930114    -0.108705140022    12.000000000000
         C           -1.310292146050     0.322024530114    -0.062439840022    12.000000000000
         C           -2.398935246050     0.924705930114     0.578953859978    12.000000000000
         C           -1.445394246050    -0.880480069886    -0.726985140022    12.000000000000
         C           -3.629772246050     0.269520930114     0.582118859978    12.000000000000
         C           -2.683632246050    -1.524333069886    -0.736418140022    12.000000000000
         C           -3.774771246050    -0.955677069886    -0.074900140022    12.000000000000
         H            4.305918753950    -1.760164069886    -0.314796140022     1.007825032230
         H            4.025021753950    -0.822368069886     1.149554859978     1.007825032230
         H            4.411852753950     0.730531930114    -0.734223140022     1.007825032230
         H            3.131043753950    -0.042019069886    -1.674076140022     1.007825032230
         H            1.860554753950    -2.107822069886    -0.594556140022     1.007825032230
         H            2.339841753950    -2.619132069886     1.029120859978     1.007825032230
         H            2.760312753950     1.493077930114     0.949265859978     1.007825032230
         H            2.226228753950     2.016615930114    -0.654453140022     1.007825032230
         H            0.255829753950    -1.214369069886     1.070286859978     1.007825032230
         H            1.581233753950    -0.460636069886     1.966936859978     1.007825032230
         H           -2.278613246050     1.893527930114     1.057160859978     1.007825032230
         H           -0.597806246050    -1.310079069886    -1.257326140022     1.007825032230
         H           -4.481102246050     0.719586930114     1.087283859978     1.007825032230
         H           -2.799348246050    -2.466529069886    -1.267121140022     1.007825032230
         H           -4.737548246050    -1.461096069886    -0.079078140022     1.007825032230

  Basis Set: AUG-CC-PVTZ
    Blend: AUG-CC-PVTZ
  Basis Set: (AUG-CC-PVTZ AUX)
    Blend: AUG-CC-PVTZ-JKFIT
	 Reference Energy          =    -592.6826490374601235 [Eh]
	 Singles Energy            =      -0.0000000000000000 [Eh]
	 Same-Spin Energy          =      -0.6433180443091178 [Eh]
	 Opposite-Spin Energy      =      -2.0530237780334839 [Eh]
	 Correlation Energy        =      -2.6963418223426014 [Eh]
	 Total Energy              =    -595.3789908598026841 [Eh]

	 ================> DF-SCS-MP2 Energies <==================
	-----------------------------------------------------------
	 SCS Same-Spin Scale       =       0.3333333333333333 [-]
	 SCS Opposite-Spin Scale   =       1.2000000000000000 [-]
	 SCS Same-Spin Energy      =      -0.2144393481030392 [Eh]
	 SCS Opposite-Spin Energy  =      -2.4636285336401804 [Eh]
	 SCS Correlation Energy    =      -2.6780678817432197 [Eh]
	 SCS Total Energy          =    -595.3607169192033552 [Eh]
	-----------------------------------------------------------

  Dipole Moment: [D]
     X:     1.0527      Y:    -3.3771      Z:     1.1213     Total:     3.7108

*** Psi4 exiting successfully. Buy a developer a beer!
