                               Psi4 1.3.2 release

  ==> Input File <==

--------------------------------------------------------------------------
#psi4
#
memory 32 gb

molecule  {
0 1
  O       -0.0931590     2.3556990    -0.4150330
  N        1.0082042     0.3415615     0.1249939
  C        3.5423410    -1.0378250     0.1583630
  C        3.3922610     0.2419230    -0.6640150
  C        2.1860550    -1.7140940     0.3593590
  C        2.3559930     1.1736850    -0.0440690
  C        1.1838660    -0.7305840     0.9537980
  C       -0.0769430     1.1544410    -0.1174940
  C       -1.3555190     0.3759530    -0.0649830
  C       -2.4581180     0.9595770     0.5701650
  C       -1.5045770    -0.8456090    -0.7357740
  C       -3.6889550     0.3043920     0.5733300
  C       -2.7428150    -1.4894620    -0.7452070
  C       -3.8339540    -0.9208060    -0.0836890
  H        4.2467360    -1.7252930    -0.3235850
  H        3.9658390    -0.7874970     1.1407660
  H        4.3526700     0.7654030    -0.7430120
  H        3.0718610    -0.0071480    -1.6828650
  H        1.8013720    -2.0729510    -0.6033450
  H        2.2806590    -2.5842610     1.0203320
  H        2.7011300     1.5279490     0.9404770
  H        2.1670460     2.0514870    -0.6632420
  H        0.1966470    -1.1794980     1.0614980
  H        1.5220510    -0.4257650     1.9581480
  H       -2.3377960     1.9283990     1.0483720
  H       -0.6569890    -1.2752080    -1.2661150
  H       -4.5402850     0.7544580     1.0784950
  H       -2.8585310    -2.4316580    -1.2759100
  H       -4.7967310    -1.4262250    -0.0878670
units angstrom
no_reorient  #important for SAPT in psi4, default
symmetry c1  #important for SAPT in psi4, default
}

set PROPERTIES_ORIGIN ["COM"]
properties('MP2/aug-cc-pvtz', properties = ['dipole'])
--------------------------------------------------------------------------

    Molecular point group: c1
  Charge       = 0
  Multiplicity = 1
  Basis Set: AUG-CC-PVTZ
    Blend: AUG-CC-PVTZ
  Basis Set: (AUG-CC-PVTZ AUX)
    Blend: AUG-CC-PVTZ-JKFIT

    Orbital Energies [Eh]
    ---------------------

    Doubly Occupied:

       1A    -20.522541     2A    -15.584367     3A    -11.354922
       4A    -11.263851     5A    -11.260480     6A    -11.247734
       7A    -11.245626     8A    -11.245093     9A    -11.243350
      10A    -11.242793    11A    -11.241181    12A    -11.229122
      13A    -11.228262    14A    -11.227558    15A     -1.370925
      16A     -1.258147    17A     -1.158430    18A     -1.086569
      19A     -1.032745    20A     -1.028514    21A     -1.021122
      22A     -0.928867    23A     -0.863683    24A     -0.848544
      25A     -0.834069    26A     -0.790910    27A     -0.749951
      28A     -0.717475    29A     -0.680461    30A     -0.659269
      31A     -0.638953    32A     -0.627928    33A     -0.625535
      34A     -0.609914    35A     -0.600731    36A     -0.593000
      37A     -0.591432    38A     -0.557167    39A     -0.548961
      40A     -0.532742    41A     -0.511162    42A     -0.504932
      43A     -0.500275    44A     -0.494747    45A     -0.479647
      46A     -0.470361    47A     -0.456171    48A     -0.417248
      49A     -0.375546    50A     -0.342749    51A     -0.340141

  @DF-RHF Final Energy:  -592.65933416970802

   => Energetics <=

    Nuclear Repulsion Energy =            877.5289144761306943
    One-Electron Energy =               -2546.4046974794127891
    Two-Electron Energy =                1076.2164488335740771
    Total Energy =                       -592.6593341697080177
  Basis Set: (AUG-CC-PVTZ AUX)
    Blend: AUG-CC-PVTZ-RI
    Molecular point group: c1

    Geometry (in Angstrom), charge = 0, multiplicity = 1:

       Center              X                  Y                   Z               Mass
    ------------   -----------------  -----------------  -----------------  -----------------
         O           -0.028786479354     2.328310944879    -0.407862632209    15.994914619570
         N            1.072576720646     0.314173444879     0.132164267791    14.003074004430
         C            3.606713520646    -1.065213055121     0.165533367791    12.000000000000
         C            3.456633520646     0.214534944879    -0.656844632209    12.000000000000
         C            2.250427520646    -1.741482055121     0.366529367791    12.000000000000
         C            2.420365520646     1.146296944879    -0.036898632209    12.000000000000
         C            1.248238520646    -0.757972055121     0.960968367791    12.000000000000
         C           -0.012570479354     1.127052944879    -0.110323632209    12.000000000000
         C           -1.291146479354     0.348564944879    -0.057812632209    12.000000000000
         C           -2.393745479354     0.932188944879     0.577335367791    12.000000000000
         C           -1.440204479354    -0.872997055121    -0.728603632209    12.000000000000
         C           -3.624582479354     0.277003944879     0.580500367791    12.000000000000
         C           -2.678442479354    -1.516850055121    -0.738036632209    12.000000000000
         C           -3.769581479354    -0.948194055121    -0.076518632209    12.000000000000
         H            4.311108520646    -1.752681055121    -0.316414632209     1.007825032230
         H            4.030211520646    -0.814885055121     1.147936367791     1.007825032230
         H            4.417042520646     0.738014944879    -0.735841632209     1.007825032230
         H            3.136233520646    -0.034536055121    -1.675694632209     1.007825032230
         H            1.865744520646    -2.100339055121    -0.596174632209     1.007825032230
         H            2.345031520646    -2.611649055121     1.027502367791     1.007825032230
         H            2.765502520646     1.500560944879     0.947647367791     1.007825032230
         H            2.231418520646     2.024098944879    -0.656071632209     1.007825032230
         H            0.261019520646    -1.206886055121     1.068668367791     1.007825032230
         H            1.586423520646    -0.453153055121     1.965318367791     1.007825032230
         H           -2.273423479354     1.901010944879     1.055542367791     1.007825032230
         H           -0.592616479354    -1.302596055121    -1.258944632209     1.007825032230
         H           -4.475912479354     0.727069944879     1.085665367791     1.007825032230
         H           -2.794158479354    -2.459046055121    -1.268739632209     1.007825032230
         H           -4.732358479354    -1.453613055121    -0.080696632209     1.007825032230

  Basis Set: AUG-CC-PVTZ
    Blend: AUG-CC-PVTZ
  Basis Set: (AUG-CC-PVTZ AUX)
    Blend: AUG-CC-PVTZ-JKFIT
	 Reference Energy          =    -592.6593341697080177 [Eh]
	 Singles Energy            =      -0.0000000000000000 [Eh]
	 Same-Spin Energy          =      -0.6449128671596878 [Eh]
	 Opposite-Spin Energy      =      -2.0563082059450424 [Eh]
	 Correlation Energy        =      -2.7012210731047301 [Eh]
	 Total Energy              =    -595.3605552428127794 [Eh]

	 ================> DF-SCS-MP2 Energies <==================
	-----------------------------------------------------------
	 SCS Same-Spin Scale       =       0.3333333333333333 [-]
	 SCS Opposite-Spin Scale   =       1.2000000000000000 [-]
	 SCS Same-Spin Energy      =      -0.2149709557198959 [Eh]
	 SCS Opposite-Spin Energy  =      -2.4675698471340506 [Eh]
	 SCS Correlation Energy    =      -2.6825408028539464 [Eh]
	 SCS Total Energy          =    -595.3418749725619818 [Eh]
	-----------------------------------------------------------

  Dipole Moment: [D]
     X:     1.2600      Y:    -3.0777      Z:     1.0486     Total:     3.4870

*** Psi4 exiting successfully. Buy a developer a beer!
