                               Psi4 1.3.2 release

  ==> Input File <==

--------------------------------------------------------------------------
#psi4
#
memory 32 gb

molecule  {
0 1
  O       -0.0931590     2.3556990    -0.4150330
  N        1.0902530     0.4589530     0.1084880
  C        3.5423410    -1.0378250     0.1583630
  C        3.3922610     0.2419230    -0.6640150
  C        2.1860550    -1.7140940     0.3593590
  C        2.3559930     1.1736850    -0.0440690
  C        1.1838660    -0.7305840     0.9537980
  C       -0.0769430     1.1544410    -0.1174940
  C       -1.4438048     0.2638636    -0.0983454
  C       -2.4581180     0.9595770     0.5701650
  C       -1.5045770    -0.8456090    -0.7357740
  C       -3.6889550     0.3043920     0.5733300
  C       -2.7428150    -1.4894620    -0.7452070
  C       -3.8339540    -0.9208060    -0.0836890
  H        4.2467360    -1.7252930    -0.3235850
  H        3.9658390    -0.7874970     1.1407660
  H        4.3526700     0.7654030    -0.7430120
  H        3.0718610    -0.0071480    -1.6828650
  H        1.8013720    -2.0729510    -0.6033450
  H        2.2806590    -2.5842610     1.0203320
  H        2.7011300     1.5279490     0.9404770
  H        2.1670460     2.0514870    -0.6632420
  H        0.1966470    -1.1794980     1.0614980
  H        1.5220510    -0.4257650     1.9581480
  H       -2.3377960     1.9283990     1.0483720
  H       -0.6569890    -1.2752080    -1.2661150
  H       -4.5402850     0.7544580     1.0784950
  H       -2.8585310    -2.4316580    -1.2759100
  H       -4.7967310    -1.4262250    -0.0878670
units angstrom
no_reorient  #important for SAPT in psi4, default
symmetry c1  #important for SAPT in psi4, default
}

set PROPERTIES_ORIGIN ["COM"]
properties('MP2/aug-cc-pvtz', properties = ['dipole'])
--------------------------------------------------------------------------

    Molecular point group: c1
  Charge       = 0
  Multiplicity = 1
  Basis Set: AUG-CC-PVTZ
    Blend: AUG-CC-PVTZ
  Basis Set: (AUG-CC-PVTZ AUX)
    Blend: AUG-CC-PVTZ-JKFIT

    Orbital Energies [Eh]
    ---------------------

    Doubly Occupied:

       1A    -20.517078     2A    -15.580952     3A    -11.353338
       4A    -11.267136     5A    -11.252823     6A    -11.246473
       7A    -11.245559     8A    -11.243763     9A    -11.243058
      10A    -11.242053    11A    -11.233402    12A    -11.230985
      13A    -11.227877    14A    -11.224903    15A     -1.366195
      16A     -1.246856    17A     -1.175291    18A     -1.082429
      19A     -1.043265    20A     -1.028973    21A     -1.021036
      22A     -0.920311    23A     -0.864455    24A     -0.843974
      25A     -0.833320    26A     -0.795124    27A     -0.746082
      28A     -0.719250    29A     -0.672991    30A     -0.647101
      31A     -0.642999    32A     -0.630318    33A     -0.626633
      34A     -0.616142    35A     -0.598580    36A     -0.595131
      37A     -0.588020    38A     -0.560109    39A     -0.551148
      40A     -0.533910    41A     -0.515702    42A     -0.509493
      43A     -0.504031    44A     -0.493232    45A     -0.478623
      46A     -0.468624    47A     -0.460443    48A     -0.406935
      49A     -0.369308    50A     -0.358027    51A     -0.338478

  @DF-RHF Final Energy:  -592.65840493931375

   => Energetics <=

    Nuclear Repulsion Energy =            877.0492654745610253
    One-Electron Energy =               -2545.4914673239150034
    Two-Electron Energy =                1075.7837969100401097
    Total Energy =                       -592.6584049393138685
  Basis Set: (AUG-CC-PVTZ AUX)
    Blend: AUG-CC-PVTZ-RI
    Molecular point group: c1

    Geometry (in Angstrom), charge = 0, multiplicity = 1:

       Center              X                  Y                   Z               Mass
    ------------   -----------------  -----------------  -----------------  -----------------
         O           -0.029259766222     2.326731120504    -0.404523495052    15.994914619570
         N            1.154152233778     0.429985120504     0.118997504948    14.003074004430
         C            3.606240233778    -1.066792879496     0.168872504948    12.000000000000
         C            3.456160233778     0.212955120504    -0.653505495052    12.000000000000
         C            2.249954233778    -1.743061879496     0.369868504948    12.000000000000
         C            2.419892233778     1.144717120504    -0.033559495052    12.000000000000
         C            1.247765233778    -0.759551879496     0.964307504948    12.000000000000
         C           -0.013043766222     1.125473120504    -0.106984495052    12.000000000000
         C           -1.379905566222     0.234895720504    -0.087835895052    12.000000000000
         C           -2.394218766222     0.930609120504     0.580674504948    12.000000000000
         C           -1.440677766222    -0.874576879496    -0.725264495052    12.000000000000
         C           -3.625055766222     0.275424120504     0.583839504948    12.000000000000
         C           -2.678915766222    -1.518429879496    -0.734697495052    12.000000000000
         C           -3.770054766222    -0.949773879496    -0.073179495052    12.000000000000
         H            4.310635233778    -1.754260879496    -0.313075495052     1.007825032230
         H            4.029738233778    -0.816464879496     1.151275504948     1.007825032230
         H            4.416569233778     0.736435120504    -0.732502495052     1.007825032230
         H            3.135760233778    -0.036115879496    -1.672355495052     1.007825032230
         H            1.865271233778    -2.101918879496    -0.592835495052     1.007825032230
         H            2.344558233778    -2.613228879496     1.030841504948     1.007825032230
         H            2.765029233778     1.498981120504     0.950986504948     1.007825032230
         H            2.230945233778     2.022519120504    -0.652732495052     1.007825032230
         H            0.260546233778    -1.208465879496     1.072007504948     1.007825032230
         H            1.585950233778    -0.454732879496     1.968657504948     1.007825032230
         H           -2.273896766222     1.899431120504     1.058881504948     1.007825032230
         H           -0.593089766222    -1.304175879496    -1.255605495052     1.007825032230
         H           -4.476385766222     0.725490120504     1.089004504948     1.007825032230
         H           -2.794631766222    -2.460625879496    -1.265400495052     1.007825032230
         H           -4.732831766222    -1.455192879496    -0.077357495052     1.007825032230

  Basis Set: AUG-CC-PVTZ
    Blend: AUG-CC-PVTZ
  Basis Set: (AUG-CC-PVTZ AUX)
    Blend: AUG-CC-PVTZ-JKFIT
	 Reference Energy          =    -592.6584049393137548 [Eh]
	 Singles Energy            =      -0.0000000000000000 [Eh]
	 Same-Spin Energy          =      -0.6432006307091221 [Eh]
	 Opposite-Spin Energy      =      -2.0531766672425547 [Eh]
	 Correlation Energy        =      -2.6963772979516767 [Eh]
	 Total Energy              =    -595.3547822372654537 [Eh]

	 ================> DF-SCS-MP2 Energies <==================
	-----------------------------------------------------------
	 SCS Same-Spin Scale       =       0.3333333333333333 [-]
	 SCS Opposite-Spin Scale   =       1.2000000000000000 [-]
	 SCS Same-Spin Energy      =      -0.2144002102363740 [Eh]
	 SCS Opposite-Spin Energy  =      -2.4638120006910653 [Eh]
	 SCS Correlation Energy    =      -2.6782122109274393 [Eh]
	 SCS Total Energy          =    -595.3366171502411817 [Eh]
	-----------------------------------------------------------

  Dipole Moment: [D]
     X:     1.1399      Y:    -3.2962      Z:     1.1110     Total:     3.6604

*** Psi4 exiting successfully. Buy a developer a beer!
