                               Psi4 1.3.2 release

  ==> Input File <==

--------------------------------------------------------------------------
#psi4
#
memory 32 gb

molecule  {
0 1
  O       -0.1789690     2.3494990    -0.4228466
  N        1.0902530     0.4589530     0.1084880
  C        3.5423410    -1.0378250     0.1583630
  C        3.3922610     0.2419230    -0.6640150
  C        2.1860550    -1.7140940     0.3593590
  C        2.3559930     1.1736850    -0.0440690
  C        1.1838660    -0.7305840     0.9537980
  C       -0.0769430     1.1544410    -0.1174940
  C       -1.3555190     0.3759530    -0.0649830
  C       -2.4581180     0.9595770     0.5701650
  C       -1.5045770    -0.8456090    -0.7357740
  C       -3.6889550     0.3043920     0.5733300
  C       -2.7428150    -1.4894620    -0.7452070
  C       -3.8339540    -0.9208060    -0.0836890
  H        4.2467360    -1.7252930    -0.3235850
  H        3.9658390    -0.7874970     1.1407660
  H        4.3526700     0.7654030    -0.7430120
  H        3.0718610    -0.0071480    -1.6828650
  H        1.8013720    -2.0729510    -0.6033450
  H        2.2806590    -2.5842610     1.0203320
  H        2.7011300     1.5279490     0.9404770
  H        2.1670460     2.0514870    -0.6632420
  H        0.1966470    -1.1794980     1.0614980
  H        1.5220510    -0.4257650     1.9581480
  H       -2.3377960     1.9283990     1.0483720
  H       -0.6569890    -1.2752080    -1.2661150
  H       -4.5402850     0.7544580     1.0784950
  H       -2.8585310    -2.4316580    -1.2759100
  H       -4.7967310    -1.4262250    -0.0878670
units angstrom
no_reorient  #important for SAPT in psi4, default
symmetry c1  #important for SAPT in psi4, default
}

set PROPERTIES_ORIGIN ["COM"]
properties('MP2/aug-cc-pvtz', properties = ['dipole'])
--------------------------------------------------------------------------

    Molecular point group: c1
  Charge       = 0
  Multiplicity = 1
  Basis Set: AUG-CC-PVTZ
    Blend: AUG-CC-PVTZ
  Basis Set: (AUG-CC-PVTZ AUX)
    Blend: AUG-CC-PVTZ-JKFIT

    Orbital Energies [Eh]
    ---------------------

    Doubly Occupied:

       1A    -20.516339     2A    -15.585845     3A    -11.350953
       4A    -11.269307     5A    -11.256692     6A    -11.247925
       7A    -11.246771     8A    -11.245257     9A    -11.243288
      10A    -11.242750    11A    -11.241107    12A    -11.232532
      13A    -11.229544    14A    -11.227065    15A     -1.369075
      16A     -1.252887    17A     -1.158360    18A     -1.085794
      19A     -1.040053    20A     -1.025623    21A     -1.020824
      22A     -0.926164    23A     -0.869010    24A     -0.845454
      25A     -0.833697    26A     -0.794346    27A     -0.748791
      28A     -0.719870    29A     -0.679869    30A     -0.651336
      31A     -0.638590    32A     -0.632326    33A     -0.625384
      34A     -0.611289    35A     -0.600606    36A     -0.592695
      37A     -0.589754    38A     -0.562791    39A     -0.551700
      40A     -0.534444    41A     -0.511794    42A     -0.503935
      43A     -0.500951    44A     -0.495165    45A     -0.480454
      46A     -0.471266    47A     -0.462734    48A     -0.422159
      49A     -0.373086    50A     -0.342773    51A     -0.338554

  @DF-RHF Final Energy:  -592.68134937282059

   => Energetics <=

    Nuclear Repulsion Energy =            876.9510648240034243
    One-Electron Energy =               -2545.2668680931169547
    Two-Electron Energy =                1075.6344538962930528
    Total Energy =                       -592.6813493728204776
  Basis Set: (AUG-CC-PVTZ AUX)
    Blend: AUG-CC-PVTZ-RI
    Molecular point group: c1

    Geometry (in Angstrom), charge = 0, multiplicity = 1:

       Center              X                  Y                   Z               Mass
    ------------   -----------------  -----------------  -----------------  -----------------
         O           -0.113414194635     2.313943055408    -0.413793195335    15.994914619570
         N            1.155807805365     0.423397055408     0.117541404665    14.003074004430
         C            3.607895805365    -1.073380944592     0.167416404665    12.000000000000
         C            3.457815805365     0.206367055408    -0.654961595335    12.000000000000
         C            2.251609805365    -1.749649944592     0.368412404665    12.000000000000
         C            2.421547805365     1.138129055408    -0.035015595335    12.000000000000
         C            1.249420805365    -0.766139944592     0.962851404665    12.000000000000
         C           -0.011388194635     1.118885055408    -0.108440595335    12.000000000000
         C           -1.289964194635     0.340397055408    -0.055929595335    12.000000000000
         C           -2.392563194635     0.924021055408     0.579218404665    12.000000000000
         C           -1.439022194635    -0.881164944592    -0.726720595335    12.000000000000
         C           -3.623400194635     0.268836055408     0.582383404665    12.000000000000
         C           -2.677260194635    -1.525017944592    -0.736153595335    12.000000000000
         C           -3.768399194635    -0.956361944592    -0.074635595335    12.000000000000
         H            4.312290805365    -1.760848944592    -0.314531595335     1.007825032230
         H            4.031393805365    -0.823052944592     1.149819404665     1.007825032230
         H            4.418224805365     0.729847055408    -0.733958595335     1.007825032230
         H            3.137415805365    -0.042703944592    -1.673811595335     1.007825032230
         H            1.866926805365    -2.108506944592    -0.594291595335     1.007825032230
         H            2.346213805365    -2.619816944592     1.029385404665     1.007825032230
         H            2.766684805365     1.492393055408     0.949530404665     1.007825032230
         H            2.232600805365     2.015931055408    -0.654188595335     1.007825032230
         H            0.262201805365    -1.215053944592     1.070551404665     1.007825032230
         H            1.587605805365    -0.461320944592     1.967201404665     1.007825032230
         H           -2.272241194635     1.892843055408     1.057425404665     1.007825032230
         H           -0.591434194635    -1.310763944592    -1.257061595335     1.007825032230
         H           -4.474730194635     0.718902055408     1.087548404665     1.007825032230
         H           -2.792976194635    -2.467213944592    -1.266856595335     1.007825032230
         H           -4.731176194635    -1.461780944592    -0.078813595335     1.007825032230

  Basis Set: AUG-CC-PVTZ
    Blend: AUG-CC-PVTZ
  Basis Set: (AUG-CC-PVTZ AUX)
    Blend: AUG-CC-PVTZ-JKFIT
	 Reference Energy          =    -592.6813493728205913 [Eh]
	 Singles Energy            =      -0.0000000000000000 [Eh]
	 Same-Spin Energy          =      -0.6434837923733370 [Eh]
	 Opposite-Spin Energy      =      -2.0534895558298687 [Eh]
	 Correlation Energy        =      -2.6969733482032057 [Eh]
	 Total Energy              =    -595.3783227210237783 [Eh]

	 ================> DF-SCS-MP2 Energies <==================
	-----------------------------------------------------------
	 SCS Same-Spin Scale       =       0.3333333333333333 [-]
	 SCS Opposite-Spin Scale   =       1.2000000000000000 [-]
	 SCS Same-Spin Energy      =      -0.2144945974577790 [Eh]
	 SCS Opposite-Spin Energy  =      -2.4641874669958423 [Eh]
	 SCS Correlation Energy    =      -2.6786820644536213 [Eh]
	 SCS Total Energy          =    -595.3600314372741877 [Eh]
	-----------------------------------------------------------

  Dipole Moment: [D]
     X:     1.3764      Y:    -3.3456      Z:     1.1524     Total:     3.7968

*** Psi4 exiting successfully. Buy a developer a beer!
