                               Psi4 1.3.2 release

  ==> Input File <==

--------------------------------------------------------------------------
#psi4
#
memory 32 gb

molecule  {
0 1
  O       -0.0931590     2.3556990    -0.4150330
  N        1.0369220     0.3797641     0.1197788
  C        3.5423410    -1.0378250     0.1583630
  C        3.3922610     0.2419230    -0.6640150
  C        2.1860550    -1.7140940     0.3593590
  C        2.3559930     1.1736850    -0.0440690
  C        1.1838660    -0.7305840     0.9537980
  C       -0.0769430     1.1544410    -0.1174940
  C       -1.3555190     0.3759530    -0.0649830
  C       -2.4581180     0.9595770     0.5701650
  C       -1.5045770    -0.8456090    -0.7357740
  C       -3.6889550     0.3043920     0.5733300
  C       -2.7428150    -1.4894620    -0.7452070
  C       -3.8339540    -0.9208060    -0.0836890
  H        4.2467360    -1.7252930    -0.3235850
  H        3.9658390    -0.7874970     1.1407660
  H        4.3526700     0.7654030    -0.7430120
  H        3.0718610    -0.0071480    -1.6828650
  H        1.8013720    -2.0729510    -0.6033450
  H        2.2806590    -2.5842610     1.0203320
  H        2.7011300     1.5279490     0.9404770
  H        2.1670460     2.0514870    -0.6632420
  H        0.1966470    -1.1794980     1.0614980
  H        1.5220510    -0.4257650     1.9581480
  H       -2.3377960     1.9283990     1.0483720
  H       -0.6569890    -1.2752080    -1.2661150
  H       -4.5402850     0.7544580     1.0784950
  H       -2.8585310    -2.4316580    -1.2759100
  H       -4.7967310    -1.4262250    -0.0878670
units angstrom
no_reorient  #important for SAPT in psi4, default
symmetry c1  #important for SAPT in psi4, default
}

set PROPERTIES_ORIGIN ["COM"]
properties('MP2/aug-cc-pvtz', properties = ['dipole'])
--------------------------------------------------------------------------

    Molecular point group: c1
  Charge       = 0
  Multiplicity = 1
  Basis Set: AUG-CC-PVTZ
    Blend: AUG-CC-PVTZ
  Basis Set: (AUG-CC-PVTZ AUX)
    Blend: AUG-CC-PVTZ-JKFIT

    Orbital Energies [Eh]
    ---------------------

    Doubly Occupied:

       1A    -20.519878     2A    -15.583557     3A    -11.353049
       4A    -11.262575     5A    -11.260559     6A    -11.248665
       7A    -11.246752     8A    -11.246335     9A    -11.244038
      10A    -11.243719    11A    -11.241890    12A    -11.229683
      13A    -11.228133    14A    -11.226766    15A     -1.370074
      16A     -1.253741    17A     -1.159248    18A     -1.085602
      19A     -1.034908    20A     -1.027824    21A     -1.021789
      22A     -0.927055    23A     -0.864464    24A     -0.848006
      25A     -0.834680    26A     -0.791676    27A     -0.749396
      28A     -0.718243    29A     -0.680392    30A     -0.656603
      31A     -0.638720    32A     -0.626924    33A     -0.626693
      34A     -0.610074    35A     -0.600544    36A     -0.592220
      37A     -0.591173    38A     -0.557513    39A     -0.551104
      40A     -0.533674    41A     -0.511637    42A     -0.504354
      43A     -0.500774    44A     -0.495215    45A     -0.479262
      46A     -0.469108    47A     -0.459439    48A     -0.420098
      49A     -0.374006    50A     -0.343445    51A     -0.340825

  @DF-RHF Final Energy:  -592.67181792204906

   => Energetics <=

    Nuclear Repulsion Energy =            877.3492514225581544
    One-Electron Energy =               -2546.0699386762244103
    Two-Electron Energy =                1076.0488693316171975
    Total Energy =                       -592.6718179220490583
  Basis Set: (AUG-CC-PVTZ AUX)
    Blend: AUG-CC-PVTZ-RI
    Molecular point group: c1

    Geometry (in Angstrom), charge = 0, multiplicity = 1:

       Center              X                  Y                   Z               Mass
    ------------   -----------------  -----------------  -----------------  -----------------
         O           -0.030912892935     2.325482227934    -0.407476479388    15.994914619570
         N            1.099168107065     0.349547327934     0.127335320612    14.003074004430
         C            3.604587107065    -1.068041772066     0.165919520612    12.000000000000
         C            3.454507107065     0.211706227934    -0.656458479388    12.000000000000
         C            2.248301107065    -1.744310772066     0.366915520612    12.000000000000
         C            2.418239107065     1.143468227934    -0.036512479388    12.000000000000
         C            1.246112107065    -0.760800772066     0.961354520612    12.000000000000
         C           -0.014696892935     1.124224227934    -0.109937479388    12.000000000000
         C           -1.293272892935     0.345736227934    -0.057426479388    12.000000000000
         C           -2.395871892935     0.929360227934     0.577721520612    12.000000000000
         C           -1.442330892935    -0.875825772066    -0.728217479388    12.000000000000
         C           -3.626708892935     0.274175227934     0.580886520612    12.000000000000
         C           -2.680568892935    -1.519678772066    -0.737650479388    12.000000000000
         C           -3.771707892935    -0.951022772066    -0.076132479388    12.000000000000
         H            4.308982107065    -1.755509772066    -0.316028479388     1.007825032230
         H            4.028085107065    -0.817713772066     1.148322520612     1.007825032230
         H            4.414916107065     0.735186227934    -0.735455479388     1.007825032230
         H            3.134107107065    -0.037364772066    -1.675308479388     1.007825032230
         H            1.863618107065    -2.103167772066    -0.595788479388     1.007825032230
         H            2.342905107065    -2.614477772066     1.027888520612     1.007825032230
         H            2.763376107065     1.497732227934     0.948033520612     1.007825032230
         H            2.229292107065     2.021270227934    -0.655685479388     1.007825032230
         H            0.258893107065    -1.209714772066     1.069054520612     1.007825032230
         H            1.584297107065    -0.455981772066     1.965704520612     1.007825032230
         H           -2.275549892935     1.898182227934     1.055928520612     1.007825032230
         H           -0.594742892935    -1.305424772066    -1.258558479388     1.007825032230
         H           -4.478038892935     0.724241227934     1.086051520612     1.007825032230
         H           -2.796284892935    -2.461874772066    -1.268353479388     1.007825032230
         H           -4.734484892935    -1.456441772066    -0.080310479388     1.007825032230

  Basis Set: AUG-CC-PVTZ
    Blend: AUG-CC-PVTZ
  Basis Set: (AUG-CC-PVTZ AUX)
    Blend: AUG-CC-PVTZ-JKFIT
	 Reference Energy          =    -592.6718179220490583 [Eh]
	 Singles Energy            =      -0.0000000000000000 [Eh]
	 Same-Spin Energy          =      -0.6442038927381801 [Eh]
	 Opposite-Spin Energy      =      -2.0548800512269776 [Eh]
	 Correlation Energy        =      -2.6990839439651575 [Eh]
	 Total Energy              =    -595.3709018660142647 [Eh]

	 ================> DF-SCS-MP2 Energies <==================
	-----------------------------------------------------------
	 SCS Same-Spin Scale       =       0.3333333333333333 [-]
	 SCS Opposite-Spin Scale   =       1.2000000000000000 [-]
	 SCS Same-Spin Energy      =      -0.2147346309127267 [Eh]
	 SCS Opposite-Spin Energy  =      -2.4658560614723730 [Eh]
	 SCS Correlation Energy    =      -2.6805906923850999 [Eh]
	 SCS Total Energy          =    -595.3524086144341254 [Eh]
	-----------------------------------------------------------

  Dipole Moment: [D]
     X:     1.1907      Y:    -3.1801      Z:     1.0754     Total:     3.5619

*** Psi4 exiting successfully. Buy a developer a beer!
