                               Psi4 1.3.2 release

  ==> Input File <==

--------------------------------------------------------------------------
#psi4
#
memory 32 gb

molecule  {
0 1
  O       -0.0931590     2.3556990    -0.4150330
  N        1.0902530     0.4589530     0.1084880
  C        3.5423410    -1.0378250     0.1583630
  C        3.3922610     0.2419230    -0.6640150
  C        2.1860550    -1.7140940     0.3593590
  C        2.1827913     1.0758823    -0.0231934
  C        1.1838660    -0.7305840     0.9537980
  C       -0.0769430     1.1544410    -0.1174940
  C       -1.3555190     0.3759530    -0.0649830
  C       -2.4581180     0.9595770     0.5701650
  C       -1.5045770    -0.8456090    -0.7357740
  C       -3.6889550     0.3043920     0.5733300
  C       -2.7428150    -1.4894620    -0.7452070
  C       -3.8339540    -0.9208060    -0.0836890
  H        4.2467360    -1.7252930    -0.3235850
  H        3.9658390    -0.7874970     1.1407660
  H        4.3526700     0.7654030    -0.7430120
  H        3.0718610    -0.0071480    -1.6828650
  H        1.8013720    -2.0729510    -0.6033450
  H        2.2806590    -2.5842610     1.0203320
  H        2.7011300     1.5279490     0.9404770
  H        2.1670460     2.0514870    -0.6632420
  H        0.1966470    -1.1794980     1.0614980
  H        1.5220510    -0.4257650     1.9581480
  H       -2.3377960     1.9283990     1.0483720
  H       -0.6569890    -1.2752080    -1.2661150
  H       -4.5402850     0.7544580     1.0784950
  H       -2.8585310    -2.4316580    -1.2759100
  H       -4.7967310    -1.4262250    -0.0878670
units angstrom
no_reorient  #important for SAPT in psi4, default
symmetry c1  #important for SAPT in psi4, default
}

set PROPERTIES_ORIGIN ["COM"]
properties('MP2/aug-cc-pvtz', properties = ['dipole'])
--------------------------------------------------------------------------

    Molecular point group: c1
  Charge       = 0
  Multiplicity = 1
  Basis Set: AUG-CC-PVTZ
    Blend: AUG-CC-PVTZ
  Basis Set: (AUG-CC-PVTZ AUX)
    Blend: AUG-CC-PVTZ-JKFIT

    Orbital Energies [Eh]
    ---------------------

    Doubly Occupied:

       1A    -20.524104     2A    -15.585548     3A    -11.357624
       4A    -11.272223     5A    -11.255177     6A    -11.253808
       7A    -11.253261     8A    -11.251127     9A    -11.249294
      10A    -11.248671    11A    -11.246495    12A    -11.232734
      13A    -11.223770    14A    -11.222649    15A     -1.386320
      16A     -1.295960    17A     -1.165293    18A     -1.084361
      19A     -1.049674    20A     -1.027209    21A     -1.018470
      22A     -0.930211    23A     -0.881492    24A     -0.844666
      25A     -0.836796    26A     -0.801710    27A     -0.746116
      28A     -0.731910    29A     -0.685701    30A     -0.661054
      31A     -0.648444    32A     -0.633665    33A     -0.629673
      34A     -0.617942    35A     -0.605259    36A     -0.599064
      37A     -0.594087    38A     -0.568675    39A     -0.546715
      40A     -0.529803    41A     -0.515567    42A     -0.506645
      43A     -0.502152    44A     -0.488510    45A     -0.474403
      46A     -0.469684    47A     -0.436238    48A     -0.430855
      49A     -0.357410    50A     -0.348239    51A     -0.345246

  @DF-RHF Final Energy:  -592.63405966267499

   => Energetics <=

    Nuclear Repulsion Energy =            881.2323884646422130
    One-Electron Energy =               -2553.3894832006085380
    Two-Electron Energy =                1079.5230350732915667
    Total Energy =                       -592.6340596626748720
  Basis Set: (AUG-CC-PVTZ AUX)
    Blend: AUG-CC-PVTZ-RI
    Molecular point group: c1

    Geometry (in Angstrom), charge = 0, multiplicity = 1:

       Center              X                  Y                   Z               Mass
    ------------   -----------------  -----------------  -----------------  -----------------
         O           -0.023871569421     2.325824581784    -0.407965076877    15.994914619570
         N            1.159540430579     0.429078581784     0.115555923123    14.003074004430
         C            3.611628430579    -1.067699418216     0.165430923123    12.000000000000
         C            3.461548430579     0.212048581784    -0.656947076877    12.000000000000
         C            2.255342430579    -1.743968418216     0.366426923123    12.000000000000
         C            2.252078730579     1.046007881784    -0.016125476877    12.000000000000
         C            1.253153430579    -0.760458418216     0.960865923123    12.000000000000
         C           -0.007655569421     1.124566581784    -0.110426076877    12.000000000000
         C           -1.286231569421     0.346078581784    -0.057915076877    12.000000000000
         C           -2.388830569421     0.929702581784     0.577232923123    12.000000000000
         C           -1.435289569421    -0.875483418216    -0.728706076877    12.000000000000
         C           -3.619667569421     0.274517581784     0.580397923123    12.000000000000
         C           -2.673527569421    -1.519336418216    -0.738139076877    12.000000000000
         C           -3.764666569421    -0.950680418216    -0.076621076877    12.000000000000
         H            4.316023430579    -1.755167418216    -0.316517076877     1.007825032230
         H            4.035126430579    -0.817371418216     1.147833923123     1.007825032230
         H            4.421957430579     0.735528581784    -0.735944076877     1.007825032230
         H            3.141148430579    -0.037022418216    -1.675797076877     1.007825032230
         H            1.870659430579    -2.102825418216    -0.596277076877     1.007825032230
         H            2.349946430579    -2.614135418216     1.027399923123     1.007825032230
         H            2.770417430579     1.498074581784     0.947544923123     1.007825032230
         H            2.236333430579     2.021612581784    -0.656174076877     1.007825032230
         H            0.265934430579    -1.209372418216     1.068565923123     1.007825032230
         H            1.591338430579    -0.455639418216     1.965215923123     1.007825032230
         H           -2.268508569421     1.898524581784     1.055439923123     1.007825032230
         H           -0.587701569421    -1.305082418216    -1.259047076877     1.007825032230
         H           -4.470997569421     0.724583581784     1.085562923123     1.007825032230
         H           -2.789243569421    -2.461532418216    -1.268842076877     1.007825032230
         H           -4.727443569421    -1.456099418216    -0.080799076877     1.007825032230

  Basis Set: AUG-CC-PVTZ
    Blend: AUG-CC-PVTZ
  Basis Set: (AUG-CC-PVTZ AUX)
    Blend: AUG-CC-PVTZ-JKFIT
	 Reference Energy          =    -592.6340596626749857 [Eh]
	 Singles Energy            =      -0.0000000000000000 [Eh]
	 Same-Spin Energy          =      -0.6464148608935751 [Eh]
	 Opposite-Spin Energy      =      -2.0565908528461452 [Eh]
	 Correlation Energy        =      -2.7030057137397203 [Eh]
	 Total Energy              =    -595.3370653764146709 [Eh]

	 ================> DF-SCS-MP2 Energies <==================
	-----------------------------------------------------------
	 SCS Same-Spin Scale       =       0.3333333333333333 [-]
	 SCS Opposite-Spin Scale   =       1.2000000000000000 [-]
	 SCS Same-Spin Energy      =      -0.2154716202978584 [Eh]
	 SCS Opposite-Spin Energy  =      -2.4679090234153742 [Eh]
	 SCS Correlation Energy    =      -2.6833806437132326 [Eh]
	 SCS Total Energy          =    -595.3174403063882210 [Eh]
	-----------------------------------------------------------

  Dipole Moment: [D]
     X:     0.3263      Y:    -3.5501      Z:     1.0405     Total:     3.7138

*** Psi4 exiting successfully. Buy a developer a beer!
