                               Psi4 1.3.2 release

  ==> Input File <==

--------------------------------------------------------------------------
#psi4
#
memory 32 gb

molecule  {
0 1
  O       -0.0931590     2.3556990    -0.4150330
  N        1.0902530     0.4589530     0.1084880
  C        3.5423410    -1.0378250     0.1583630
  C        3.3922610     0.2419230    -0.6640150
  C        2.1860550    -1.7140940     0.3593590
  C        2.3782234     1.1388915    -0.0141045
  C        1.1838660    -0.7305840     0.9537980
  C       -0.0769430     1.1544410    -0.1174940
  C       -1.3555190     0.3759530    -0.0649830
  C       -2.4581180     0.9595770     0.5701650
  C       -1.5045770    -0.8456090    -0.7357740
  C       -3.6889550     0.3043920     0.5733300
  C       -2.7428150    -1.4894620    -0.7452070
  C       -3.8339540    -0.9208060    -0.0836890
  H        4.2467360    -1.7252930    -0.3235850
  H        3.9658390    -0.7874970     1.1407660
  H        4.3526700     0.7654030    -0.7430120
  H        3.0718610    -0.0071480    -1.6828650
  H        1.8013720    -2.0729510    -0.6033450
  H        2.2806590    -2.5842610     1.0203320
  H        2.7011300     1.5279490     0.9404770
  H        2.1670460     2.0514870    -0.6632420
  H        0.1966470    -1.1794980     1.0614980
  H        1.5220510    -0.4257650     1.9581480
  H       -2.3377960     1.9283990     1.0483720
  H       -0.6569890    -1.2752080    -1.2661150
  H       -4.5402850     0.7544580     1.0784950
  H       -2.8585310    -2.4316580    -1.2759100
  H       -4.7967310    -1.4262250    -0.0878670
units angstrom
no_reorient  #important for SAPT in psi4, default
symmetry c1  #important for SAPT in psi4, default
}

set PROPERTIES_ORIGIN ["COM"]
properties('MP2/aug-cc-pvtz', properties = ['dipole'])
--------------------------------------------------------------------------

    Molecular point group: c1
  Charge       = 0
  Multiplicity = 1
  Basis Set: AUG-CC-PVTZ
    Blend: AUG-CC-PVTZ
  Basis Set: (AUG-CC-PVTZ AUX)
    Blend: AUG-CC-PVTZ-JKFIT

    Orbital Energies [Eh]
    ---------------------

    Doubly Occupied:

       1A    -20.514842     2A    -15.581533     3A    -11.351021
       4A    -11.266096     5A    -11.253823     6A    -11.251362
       7A    -11.250073     8A    -11.247977     9A    -11.245882
      10A    -11.245543    11A    -11.243488    12A    -11.230803
      13A    -11.227209    14A    -11.224421    15A     -1.368798
      16A     -1.248807    17A     -1.161258    18A     -1.085682
      19A     -1.040438    20A     -1.026789    21A     -1.023158
      22A     -0.925286    23A     -0.867128    24A     -0.845131
      25A     -0.835605    26A     -0.794954    27A     -0.748512
      28A     -0.720050    29A     -0.680694    30A     -0.651359
      31A     -0.639591    32A     -0.630533    33A     -0.624905
      34A     -0.611585    35A     -0.601245    36A     -0.594077
      37A     -0.589170    38A     -0.555904    39A     -0.551820
      40A     -0.533701    41A     -0.514084    42A     -0.505328
      43A     -0.502669    44A     -0.496286    45A     -0.481138
      46A     -0.468368    47A     -0.452994    48A     -0.422020
      49A     -0.371201    50A     -0.345004    51A     -0.342448

  @DF-RHF Final Energy:  -592.67915150460249

   => Energetics <=

    Nuclear Repulsion Energy =            877.2732697950231113
    One-Electron Energy =               -2545.9212558278754841
    Two-Electron Energy =                1075.9688345282497721
    Total Energy =                       -592.6791515046024870
  Basis Set: (AUG-CC-PVTZ AUX)
    Blend: AUG-CC-PVTZ-RI
    Molecular point group: c1

    Geometry (in Angstrom), charge = 0, multiplicity = 1:

       Center              X                  Y                   Z               Mass
    ------------   -----------------  -----------------  -----------------  -----------------
         O           -0.036272387361     2.321826438093    -0.408541797867    15.994914619570
         N            1.147139612639     0.425080438093     0.114979202133    14.003074004430
         C            3.599227612639    -1.071697561907     0.164854202133    12.000000000000
         C            3.449147612639     0.208050438093    -0.657523797867    12.000000000000
         C            2.242941612639    -1.747966561907     0.365850202133    12.000000000000
         C            2.435110012639     1.105018938093    -0.007613297867    12.000000000000
         C            1.240752612639    -0.764456561907     0.960289202133    12.000000000000
         C           -0.020056387361     1.120568438093    -0.111002797867    12.000000000000
         C           -1.298632387361     0.342080438093    -0.058491797867    12.000000000000
         C           -2.401231387361     0.925704438093     0.576656202133    12.000000000000
         C           -1.447690387361    -0.879481561907    -0.729282797867    12.000000000000
         C           -3.632068387361     0.270519438093     0.579821202133    12.000000000000
         C           -2.685928387361    -1.523334561907    -0.738715797867    12.000000000000
         C           -3.777067387361    -0.954678561907    -0.077197797867    12.000000000000
         H            4.303622612639    -1.759165561907    -0.317093797867     1.007825032230
         H            4.022725612639    -0.821369561907     1.147257202133     1.007825032230
         H            4.409556612639     0.731530438093    -0.736520797867     1.007825032230
         H            3.128747612639    -0.041020561907    -1.676373797867     1.007825032230
         H            1.858258612639    -2.106823561907    -0.596853797867     1.007825032230
         H            2.337545612639    -2.618133561907     1.026823202133     1.007825032230
         H            2.758016612639     1.494076438093     0.946968202133     1.007825032230
         H            2.223932612639     2.017614438093    -0.656750797867     1.007825032230
         H            0.253533612639    -1.213370561907     1.067989202133     1.007825032230
         H            1.578937612639    -0.459637561907     1.964639202133     1.007825032230
         H           -2.280909387361     1.894526438093     1.054863202133     1.007825032230
         H           -0.600102387361    -1.309080561907    -1.259623797867     1.007825032230
         H           -4.483398387361     0.720585438093     1.084986202133     1.007825032230
         H           -2.801644387361    -2.465530561907    -1.269418797867     1.007825032230
         H           -4.739844387361    -1.460097561907    -0.081375797867     1.007825032230

  Basis Set: AUG-CC-PVTZ
    Blend: AUG-CC-PVTZ
  Basis Set: (AUG-CC-PVTZ AUX)
    Blend: AUG-CC-PVTZ-JKFIT
	 Reference Energy          =    -592.6791515046024870 [Eh]
	 Singles Energy            =      -0.0000000000000000 [Eh]
	 Same-Spin Energy          =      -0.6438675069481840 [Eh]
	 Opposite-Spin Energy      =      -2.0539099068835860 [Eh]
	 Correlation Energy        =      -2.6977774138317701 [Eh]
	 Total Energy              =    -595.3769289184342597 [Eh]

	 ================> DF-SCS-MP2 Energies <==================
	-----------------------------------------------------------
	 SCS Same-Spin Scale       =       0.3333333333333333 [-]
	 SCS Opposite-Spin Scale   =       1.2000000000000000 [-]
	 SCS Same-Spin Energy      =      -0.2146225023160613 [Eh]
	 SCS Opposite-Spin Energy  =      -2.4646918882603033 [Eh]
	 SCS Correlation Energy    =      -2.6793143905763648 [Eh]
	 SCS Total Energy          =    -595.3584658951788242 [Eh]
	-----------------------------------------------------------

  Dipole Moment: [D]
     X:     1.0268      Y:    -3.3872      Z:     1.1379     Total:     3.7178

*** Psi4 exiting successfully. Buy a developer a beer!
