                               Psi4 1.3.2 release

  ==> Input File <==

--------------------------------------------------------------------------
#psi4
#
memory 32 gb

molecule  {
0 1
  O       -0.2222992     2.3460751    -0.4186468
  N        1.0902530     0.4589530     0.1084880
  C        3.5423410    -1.0378250     0.1583630
  C        3.3922610     0.2419230    -0.6640150
  C        2.1860550    -1.7140940     0.3593590
  C        2.3559930     1.1736850    -0.0440690
  C        1.1838660    -0.7305840     0.9537980
  C       -0.0769430     1.1544410    -0.1174940
  C       -1.3555190     0.3759530    -0.0649830
  C       -2.4581180     0.9595770     0.5701650
  C       -1.5045770    -0.8456090    -0.7357740
  C       -3.6889550     0.3043920     0.5733300
  C       -2.7428150    -1.4894620    -0.7452070
  C       -3.8339540    -0.9208060    -0.0836890
  H        4.2467360    -1.7252930    -0.3235850
  H        3.9658390    -0.7874970     1.1407660
  H        4.3526700     0.7654030    -0.7430120
  H        3.0718610    -0.0071480    -1.6828650
  H        1.8013720    -2.0729510    -0.6033450
  H        2.2806590    -2.5842610     1.0203320
  H        2.7011300     1.5279490     0.9404770
  H        2.1670460     2.0514870    -0.6632420
  H        0.1966470    -1.1794980     1.0614980
  H        1.5220510    -0.4257650     1.9581480
  H       -2.3377960     1.9283990     1.0483720
  H       -0.6569890    -1.2752080    -1.2661150
  H       -4.5402850     0.7544580     1.0784950
  H       -2.8585310    -2.4316580    -1.2759100
  H       -4.7967310    -1.4262250    -0.0878670
units angstrom
no_reorient  #important for SAPT in psi4, default
symmetry c1  #important for SAPT in psi4, default
}

set PROPERTIES_ORIGIN ["COM"]
properties('MP2/aug-cc-pvtz', properties = ['dipole'])
--------------------------------------------------------------------------

    Molecular point group: c1
  Charge       = 0
  Multiplicity = 1
  Basis Set: AUG-CC-PVTZ
    Blend: AUG-CC-PVTZ
  Basis Set: (AUG-CC-PVTZ AUX)
    Blend: AUG-CC-PVTZ-JKFIT

    Orbital Energies [Eh]
    ---------------------

    Doubly Occupied:

       1A    -20.517081     2A    -15.587824     3A    -11.351350
       4A    -11.270333     5A    -11.258289     6A    -11.246344
       7A    -11.245181     8A    -11.243939     9A    -11.242140
      10A    -11.241278    11A    -11.239890    12A    -11.233256
      13A    -11.230316    14A    -11.228026    15A     -1.369325
      16A     -1.255159    17A     -1.156948    18A     -1.086718
      19A     -1.039989    20A     -1.025292    21A     -1.019643
      22A     -0.926925    23A     -0.869641    24A     -0.845081
      25A     -0.832646    26A     -0.794787    27A     -0.749288
      28A     -0.719663    29A     -0.679360    30A     -0.651362
      31A     -0.638575    32A     -0.633266    33A     -0.625014
      34A     -0.611520    35A     -0.600440    36A     -0.592757
      37A     -0.589407    38A     -0.563840    39A     -0.552307
      40A     -0.534589    41A     -0.511074    42A     -0.504300
      43A     -0.500183    44A     -0.494571    45A     -0.481293
      46A     -0.472350    47A     -0.463696    48A     -0.421618
      49A     -0.374748    50A     -0.341666    51A     -0.336573

  @DF-RHF Final Energy:  -592.67944777724585

   => Energetics <=

    Nuclear Repulsion Energy =            876.9717813306201606
    One-Electron Energy =               -2545.3007367874952251
    Two-Electron Energy =                1075.6495076796293233
    Total Energy =                       -592.6794477772457412
  Basis Set: (AUG-CC-PVTZ AUX)
    Blend: AUG-CC-PVTZ-RI
    Molecular point group: c1

    Geometry (in Angstrom), charge = 0, multiplicity = 1:

       Center              X                  Y                   Z               Mass
    ------------   -----------------  -----------------  -----------------  -----------------
         O           -0.153079632374     2.310808740490    -0.409948604139    15.994914619570
         N            1.159472567626     0.423686640490     0.117186195861    14.003074004430
         C            3.611560567626    -1.073091359510     0.167061195861    12.000000000000
         C            3.461480567626     0.206656640490    -0.655316804139    12.000000000000
         C            2.255274567626    -1.749360359510     0.368057195861    12.000000000000
         C            2.425212567626     1.138418640490    -0.035370804139    12.000000000000
         C            1.253085567626    -0.765850359510     0.962496195861    12.000000000000
         C           -0.007723432374     1.119174640490    -0.108795804139    12.000000000000
         C           -1.286299432374     0.340686640490    -0.056284804139    12.000000000000
         C           -2.388898432374     0.924310640490     0.578863195861    12.000000000000
         C           -1.435357432374    -0.880875359510    -0.727075804139    12.000000000000
         C           -3.619735432374     0.269125640490     0.582028195861    12.000000000000
         C           -2.673595432374    -1.524728359510    -0.736508804139    12.000000000000
         C           -3.764734432374    -0.956072359510    -0.074990804139    12.000000000000
         H            4.315955567626    -1.760559359510    -0.314886804139     1.007825032230
         H            4.035058567626    -0.822763359510     1.149464195861     1.007825032230
         H            4.421889567626     0.730136640490    -0.734313804139     1.007825032230
         H            3.141080567626    -0.042414359510    -1.674166804139     1.007825032230
         H            1.870591567626    -2.108217359510    -0.594646804139     1.007825032230
         H            2.349878567626    -2.619527359510     1.029030195861     1.007825032230
         H            2.770349567626     1.492682640490     0.949175195861     1.007825032230
         H            2.236265567626     2.016220640490    -0.654543804139     1.007825032230
         H            0.265866567626    -1.214764359510     1.070196195861     1.007825032230
         H            1.591270567626    -0.461031359510     1.966846195861     1.007825032230
         H           -2.268576432374     1.893132640490     1.057070195861     1.007825032230
         H           -0.587769432374    -1.310474359510    -1.257416804139     1.007825032230
         H           -4.471065432374     0.719191640490     1.087193195861     1.007825032230
         H           -2.789311432374    -2.466924359510    -1.267211804139     1.007825032230
         H           -4.727511432374    -1.461491359510    -0.079168804139     1.007825032230

  Basis Set: AUG-CC-PVTZ
    Blend: AUG-CC-PVTZ
  Basis Set: (AUG-CC-PVTZ AUX)
    Blend: AUG-CC-PVTZ-JKFIT
	 Reference Energy          =    -592.6794477772458549 [Eh]
	 Singles Energy            =      -0.0000000000000000 [Eh]
	 Same-Spin Energy          =      -0.6435456774837137 [Eh]
	 Opposite-Spin Energy      =      -2.0536661178131803 [Eh]
	 Correlation Energy        =      -2.6972117952968939 [Eh]
	 Total Energy              =    -595.3766595725427351 [Eh]

	 ================> DF-SCS-MP2 Energies <==================
	-----------------------------------------------------------
	 SCS Same-Spin Scale       =       0.3333333333333333 [-]
	 SCS Opposite-Spin Scale   =       1.2000000000000000 [-]
	 SCS Same-Spin Energy      =      -0.2145152258279046 [Eh]
	 SCS Opposite-Spin Energy  =      -2.4643993413758163 [Eh]
	 SCS Correlation Energy    =      -2.6789145672037207 [Eh]
	 SCS Total Energy          =    -595.3583623444495743 [Eh]
	-----------------------------------------------------------

  Dipole Moment: [D]
     X:     1.5473      Y:    -3.3159      Z:     1.1537     Total:     3.8367

*** Psi4 exiting successfully. Buy a developer a beer!
