                               Psi4 1.3.2 release

  ==> Input File <==

--------------------------------------------------------------------------
#psi4
#
memory 32 gb

molecule  {
0 1
  O       -0.0931590     2.3556990    -0.4150330
  N        1.0902530     0.4589530     0.1084880
  C        3.5423410    -1.0378250     0.1583630
  C        3.3922610     0.2419230    -0.6640150
  C        2.1860550    -1.7140940     0.3593590
  C        2.3559930     1.1736850    -0.0440690
  C        1.1838660    -0.7305840     0.9537980
  C        0.0077986     1.1039467    -0.1010871
  C       -1.3555190     0.3759530    -0.0649830
  C       -2.4581180     0.9595770     0.5701650
  C       -1.5045770    -0.8456090    -0.7357740
  C       -3.6889550     0.3043920     0.5733300
  C       -2.7428150    -1.4894620    -0.7452070
  C       -3.8339540    -0.9208060    -0.0836890
  H        4.2467360    -1.7252930    -0.3235850
  H        3.9658390    -0.7874970     1.1407660
  H        4.3526700     0.7654030    -0.7430120
  H        3.0718610    -0.0071480    -1.6828650
  H        1.8013720    -2.0729510    -0.6033450
  H        2.2806590    -2.5842610     1.0203320
  H        2.7011300     1.5279490     0.9404770
  H        2.1670460     2.0514870    -0.6632420
  H        0.1966470    -1.1794980     1.0614980
  H        1.5220510    -0.4257650     1.9581480
  H       -2.3377960     1.9283990     1.0483720
  H       -0.6569890    -1.2752080    -1.2661150
  H       -4.5402850     0.7544580     1.0784950
  H       -2.8585310    -2.4316580    -1.2759100
  H       -4.7967310    -1.4262250    -0.0878670
units angstrom
no_reorient  #important for SAPT in psi4, default
symmetry c1  #important for SAPT in psi4, default
}

set PROPERTIES_ORIGIN ["COM"]
properties('MP2/aug-cc-pvtz', properties = ['dipole'])
--------------------------------------------------------------------------

    Molecular point group: c1
  Charge       = 0
  Multiplicity = 1
  Basis Set: AUG-CC-PVTZ
    Blend: AUG-CC-PVTZ
  Basis Set: (AUG-CC-PVTZ AUX)
    Blend: AUG-CC-PVTZ-JKFIT

    Orbital Energies [Eh]
    ---------------------

    Doubly Occupied:

       1A    -20.496196     2A    -15.598225     3A    -11.345380
       4A    -11.278064     5A    -11.262395     6A    -11.250940
       7A    -11.244812     8A    -11.243078     9A    -11.241723
      10A    -11.240909    11A    -11.239647    12A    -11.238621
      13A    -11.234431    14A    -11.232209    15A     -1.351956
      16A     -1.258298    17A     -1.155541    18A     -1.098281
      19A     -1.044561    20A     -1.023780    21A     -1.018950
      22A     -0.945321    23A     -0.876963    24A     -0.841105
      25A     -0.831593    26A     -0.803435    27A     -0.752887
      28A     -0.721282    29A     -0.675117    30A     -0.657661
      31A     -0.644790    32A     -0.636748    33A     -0.622891
      34A     -0.613157    35A     -0.600037    36A     -0.594416
      37A     -0.589603    38A     -0.562206    39A     -0.548952
      40A     -0.531868    41A     -0.512386    42A     -0.502367
      43A     -0.499038    44A     -0.495221    45A     -0.477954
      46A     -0.474523    47A     -0.467927    48A     -0.407985
      49A     -0.377463    50A     -0.341359    51A     -0.335030

  @DF-RHF Final Energy:  -592.66793173837368

   => Energetics <=

    Nuclear Repulsion Energy =            877.6422686438414758
    One-Electron Energy =               -2546.5418277318999571
    Two-Electron Energy =                1076.2316273496849135
    Total Energy =                       -592.6679317383736816
  Basis Set: (AUG-CC-PVTZ AUX)
    Blend: AUG-CC-PVTZ-RI
    Molecular point group: c1

    Geometry (in Angstrom), charge = 0, multiplicity = 1:

       Center              X                  Y                   Z               Mass
    ------------   -----------------  -----------------  -----------------  -----------------
         O           -0.040238931293     2.322822706169    -0.407681522972    15.994914619570
         N            1.143173068707     0.426076706169     0.115839477028    14.003074004430
         C            3.595261068707    -1.070701293831     0.165714477028    12.000000000000
         C            3.445181068707     0.209046706169    -0.656663522972    12.000000000000
         C            2.238975068707    -1.746970293831     0.366710477028    12.000000000000
         C            2.408913068707     1.140808706169    -0.036717522972    12.000000000000
         C            1.236786068707    -0.763460293831     0.961149477028    12.000000000000
         C            0.060718668707     1.071070406169    -0.093735622972    12.000000000000
         C           -1.302598931293     0.343076706169    -0.057631522972    12.000000000000
         C           -2.405197931293     0.926700706169     0.577516477028    12.000000000000
         C           -1.451656931293    -0.878485293831    -0.728422522972    12.000000000000
         C           -3.636034931293     0.271515706169     0.580681477028    12.000000000000
         C           -2.689894931293    -1.522338293831    -0.737855522972    12.000000000000
         C           -3.781033931293    -0.953682293831    -0.076337522972    12.000000000000
         H            4.299656068707    -1.758169293831    -0.316233522972     1.007825032230
         H            4.018759068707    -0.820373293831     1.148117477028     1.007825032230
         H            4.405590068707     0.732526706169    -0.735660522972     1.007825032230
         H            3.124781068707    -0.040024293831    -1.675513522972     1.007825032230
         H            1.854292068707    -2.105827293831    -0.595993522972     1.007825032230
         H            2.333579068707    -2.617137293831     1.027683477028     1.007825032230
         H            2.754050068707     1.495072706169     0.947828477028     1.007825032230
         H            2.219966068707     2.018610706169    -0.655890522972     1.007825032230
         H            0.249567068707    -1.212374293831     1.068849477028     1.007825032230
         H            1.574971068707    -0.458641293831     1.965499477028     1.007825032230
         H           -2.284875931293     1.895522706169     1.055723477028     1.007825032230
         H           -0.604068931293    -1.308084293831    -1.258763522972     1.007825032230
         H           -4.487364931293     0.721581706169     1.085846477028     1.007825032230
         H           -2.805610931293    -2.464534293831    -1.268558522972     1.007825032230
         H           -4.743810931293    -1.459101293831    -0.080515522972     1.007825032230

  Basis Set: AUG-CC-PVTZ
    Blend: AUG-CC-PVTZ
  Basis Set: (AUG-CC-PVTZ AUX)
    Blend: AUG-CC-PVTZ-JKFIT
	 Reference Energy          =    -592.6679317383736816 [Eh]
	 Singles Energy            =      -0.0000000000000000 [Eh]
	 Same-Spin Energy          =      -0.6441057618389183 [Eh]
	 Opposite-Spin Energy      =      -2.0545920897115790 [Eh]
	 Correlation Energy        =      -2.6986978515504974 [Eh]
	 Total Energy              =    -595.3666295899241732 [Eh]

	 ================> DF-SCS-MP2 Energies <==================
	-----------------------------------------------------------
	 SCS Same-Spin Scale       =       0.3333333333333333 [-]
	 SCS Opposite-Spin Scale   =       1.2000000000000000 [-]
	 SCS Same-Spin Energy      =      -0.2147019206129728 [Eh]
	 SCS Opposite-Spin Energy  =      -2.4655105076538946 [Eh]
	 SCS Correlation Energy    =      -2.6802124282668673 [Eh]
	 SCS Total Energy          =    -595.3481441666405090 [Eh]
	-----------------------------------------------------------

  Dipole Moment: [D]
     X:     1.9634      Y:    -3.8587      Z:     1.3423     Total:     4.5328

*** Psi4 exiting successfully. Buy a developer a beer!
