                               Psi4 1.4a3.dev225

  ==> Input File <==

--------------------------------------------------------------------------
#psi4
#
memory 32 gb

molecule  {
0 1
  O       -0.0931590     2.3556990    -0.4150330
  N        1.0902530     0.4589530     0.1084880
  C        3.5423410    -1.0378250     0.1583630
  C        3.3922610     0.2419230    -0.6640150
  C        2.1860550    -1.7140940     0.3593590
  C        2.3386728     1.1639047    -0.0419814
  C        1.1838660    -0.7305840     0.9537980
  C       -0.0769430     1.1544410    -0.1174940
  C       -1.3555190     0.3759530    -0.0649830
  C       -2.4581180     0.9595770     0.5701650
  C       -1.5045770    -0.8456090    -0.7357740
  C       -3.6889550     0.3043920     0.5733300
  C       -2.7428150    -1.4894620    -0.7452070
  C       -3.8339540    -0.9208060    -0.0836890
  H        4.2467360    -1.7252930    -0.3235850
  H        3.9658390    -0.7874970     1.1407660
  H        4.3526700     0.7654030    -0.7430120
  H        3.0718610    -0.0071480    -1.6828650
  H        1.8013720    -2.0729510    -0.6033450
  H        2.2806590    -2.5842610     1.0203320
  H        2.7011300     1.5279490     0.9404770
  H        2.1670460     2.0514870    -0.6632420
  H        0.1966470    -1.1794980     1.0614980
  H        1.5220510    -0.4257650     1.9581480
  H       -2.3377960     1.9283990     1.0483720
  H       -0.6569890    -1.2752080    -1.2661150
  H       -4.5402850     0.7544580     1.0784950
  H       -2.8585310    -2.4316580    -1.2759100
  H       -4.7967310    -1.4262250    -0.0878670
units angstrom
no_reorient  #important for SAPT in psi4, default
symmetry c1  #important for SAPT in psi4, default
}

set PROPERTIES_ORIGIN ["COM"]
properties('MP2/aug-cc-pvtz', properties = ['dipole'])
--------------------------------------------------------------------------

    Molecular point group: c1
  Charge       = 0
  Multiplicity = 1
  Basis Set: AUG-CC-PVTZ
    Blend: AUG-CC-PVTZ
  Basis Set: (AUG-CC-PVTZ AUX)
    Blend: AUG-CC-PVTZ-JKFIT

    Orbital Energies [Eh]
    ---------------------

    Doubly Occupied:

       1A    -20.515551     2A    -15.582324     3A    -11.351001
       4A    -11.267606     5A    -11.252842     6A    -11.251456
       7A    -11.250240     8A    -11.248172     9A    -11.246031
      10A    -11.245767    11A    -11.243672    12A    -11.231111
      13A    -11.227471    14A    -11.224734    15A     -1.370323
      16A     -1.251910    17A     -1.161494    18A     -1.083674
      19A     -1.041424    20A     -1.025462    21A     -1.022859
      22A     -0.924815    23A     -0.868971    24A     -0.845735
      25A     -0.835952    26A     -0.793895    27A     -0.747828
      28A     -0.721265    29A     -0.681440    30A     -0.652079
      31A     -0.639270    32A     -0.630228    33A     -0.626150
      34A     -0.611238    35A     -0.600903    36A     -0.594245
      37A     -0.589894    38A     -0.561681    39A     -0.550217
      40A     -0.533954    41A     -0.513440    42A     -0.503925
      43A     -0.501285    44A     -0.495546    45A     -0.477717
      46A     -0.469129    47A     -0.459753    48A     -0.423529
      49A     -0.369415    50A     -0.345242    51A     -0.342623

  @DF-RHF Final Energy:  -592.68248820392557

   => Energetics <=

    Nuclear Repulsion Energy =            877.4181401916090408
    One-Electron Energy =               -2546.1882767333299853
    Two-Electron Energy =                1076.0876483377953718
    Total Energy =                       -592.6824882039256863
  Basis Set: (AUG-CC-PVTZ AUX)
    Blend: AUG-CC-PVTZ-RI
    Molecular point group: c1

    Geometry (in Angstrom), charge = 0, multiplicity = 1:

       Center              X                  Y                   Z               Mass
    ------------   -----------------  -----------------  -----------------  -----------------
         O           -0.033762770005     2.320239267207    -0.406772915674    15.994914619570
         N            1.149649229995     0.423493267207     0.116748084326    14.003074004430
         C            3.601737229995    -1.073284732793     0.166623084326    12.000000000000
         C            3.451657229995     0.206463267207    -0.655754915674    12.000000000000
         C            2.245451229995    -1.749553732793     0.367619084326    12.000000000000
         C            2.398069029995     1.128444967207    -0.033721315674    12.000000000000
         C            1.243262229995    -0.766043732793     0.962058084326    12.000000000000
         C           -0.017546770005     1.118981267207    -0.109233915674    12.000000000000
         C           -1.296122770005     0.340493267207    -0.056722915674    12.000000000000
         C           -2.398721770005     0.924117267207     0.578425084326    12.000000000000
         C           -1.445180770005    -0.881068732793    -0.727513915674    12.000000000000
         C           -3.629558770005     0.268932267207     0.581590084326    12.000000000000
         C           -2.683418770005    -1.524921732793    -0.736946915674    12.000000000000
         C           -3.774557770005    -0.956265732793    -0.075428915674    12.000000000000
         H            4.306132229995    -1.760752732793    -0.315324915674     1.007825032230
         H            4.025235229995    -0.822956732793     1.149026084326     1.007825032230
         H            4.412066229995     0.729943267207    -0.734751915674     1.007825032230
         H            3.131257229995    -0.042607732793    -1.674604915674     1.007825032230
         H            1.860768229995    -2.108410732793    -0.595084915674     1.007825032230
         H            2.340055229995    -2.619720732793     1.028592084326     1.007825032230
         H            2.760526229995     1.492489267207     0.948737084326     1.007825032230
         H            2.226442229995     2.016027267207    -0.654981915674     1.007825032230
         H            0.256043229995    -1.214957732793     1.069758084326     1.007825032230
         H            1.581447229995    -0.461224732793     1.966408084326     1.007825032230
         H           -2.278399770005     1.892939267207     1.056632084326     1.007825032230
         H           -0.597592770005    -1.310667732793    -1.257854915674     1.007825032230
         H           -4.480888770005     0.718998267207     1.086755084326     1.007825032230
         H           -2.799134770005    -2.467117732793    -1.267649915674     1.007825032230
         H           -4.737334770005    -1.461684732793    -0.079606915674     1.007825032230

  Basis Set: AUG-CC-PVTZ
    Blend: AUG-CC-PVTZ
  Basis Set: (AUG-CC-PVTZ AUX)
    Blend: AUG-CC-PVTZ-JKFIT
	 Reference Energy          =    -592.6824882039255726 [Eh]
	 Singles Energy            =      -0.0000000000000000 [Eh]
	 Same-Spin Energy          =      -0.6435798628714290 [Eh]
	 Opposite-Spin Energy      =      -2.0533434028984074 [Eh]
	 Correlation Energy        =      -2.6969232657698363 [Eh]
	 Total Energy              =    -595.3794114696953557 [Eh]

	 ================> DF-SCS-MP2 Energies <==================
	-----------------------------------------------------------
	 SCS Same-Spin Scale       =       0.3333333333333333 [-]
	 SCS Opposite-Spin Scale   =       1.2000000000000000 [-]
	 SCS Same-Spin Energy      =      -0.2145266209571430 [Eh]
	 SCS Opposite-Spin Energy  =      -2.4640120834780888 [Eh]
	 SCS Correlation Energy    =      -2.6785387044352316 [Eh]
	 SCS Total Energy          =    -595.3610269083608273 [Eh]
	-----------------------------------------------------------

  Dipole Moment: [D]
     X:     0.9671      Y:    -3.4057      Z:     1.1186     Total:     3.7128

*** Psi4 exiting successfully. Buy a developer a beer!
