                               Psi4 1.3.2 release

  ==> Input File <==

--------------------------------------------------------------------------
#psi4
#
memory 32 gb

molecule  {
0 1
  O       -0.0931590     2.3556990    -0.4150330
  N        1.0902530     0.4589530     0.1084880
  C        3.5423410    -1.0378250     0.1583630
  C        3.3922610     0.2419230    -0.6640150
  C        2.1860550    -1.7140940     0.3593590
  C        2.4037908     1.0870908    -0.0190845
  C        1.1838660    -0.7305840     0.9537980
  C       -0.0769430     1.1544410    -0.1174940
  C       -1.3555190     0.3759530    -0.0649830
  C       -2.4581180     0.9595770     0.5701650
  C       -1.5045770    -0.8456090    -0.7357740
  C       -3.6889550     0.3043920     0.5733300
  C       -2.7428150    -1.4894620    -0.7452070
  C       -3.8339540    -0.9208060    -0.0836890
  H        4.2467360    -1.7252930    -0.3235850
  H        3.9658390    -0.7874970     1.1407660
  H        4.3526700     0.7654030    -0.7430120
  H        3.0718610    -0.0071480    -1.6828650
  H        1.8013720    -2.0729510    -0.6033450
  H        2.2806590    -2.5842610     1.0203320
  H        2.7011300     1.5279490     0.9404770
  H        2.1670460     2.0514870    -0.6632420
  H        0.1966470    -1.1794980     1.0614980
  H        1.5220510    -0.4257650     1.9581480
  H       -2.3377960     1.9283990     1.0483720
  H       -0.6569890    -1.2752080    -1.2661150
  H       -4.5402850     0.7544580     1.0784950
  H       -2.8585310    -2.4316580    -1.2759100
  H       -4.7967310    -1.4262250    -0.0878670
units angstrom
no_reorient  #important for SAPT in psi4, default
symmetry c1  #important for SAPT in psi4, default
}

set PROPERTIES_ORIGIN ["COM"]
properties('MP2/aug-cc-pvtz', properties = ['dipole'])
--------------------------------------------------------------------------

    Molecular point group: c1
  Charge       = 0
  Multiplicity = 1
  Basis Set: AUG-CC-PVTZ
    Blend: AUG-CC-PVTZ
  Basis Set: (AUG-CC-PVTZ AUX)
    Blend: AUG-CC-PVTZ-JKFIT

    Orbital Energies [Eh]
    ---------------------

    Doubly Occupied:

       1A    -20.515123     2A    -15.581570     3A    -11.351997
       4A    -11.265231     5A    -11.256537     6A    -11.251720
       7A    -11.250331     8A    -11.248163     9A    -11.246101
      10A    -11.245668    11A    -11.243620    12A    -11.231092
      13A    -11.227191    14A    -11.223017    15A     -1.368613
      16A     -1.250045    17A     -1.161505    18A     -1.090361
      19A     -1.040800    20A     -1.029926    21A     -1.023576
      22A     -0.925867    23A     -0.867655    24A     -0.843822
      25A     -0.835575    26A     -0.797030    27A     -0.747346
      28A     -0.720747    29A     -0.680883    30A     -0.650520
      31A     -0.640179    32A     -0.631731    33A     -0.624416
      34A     -0.611952    35A     -0.601793    36A     -0.594610
      37A     -0.590063    38A     -0.559353    39A     -0.551308
      40A     -0.533692    41A     -0.515850    42A     -0.504555
      43A     -0.502342    44A     -0.495189    45A     -0.483795
      46A     -0.468743    47A     -0.443513    48A     -0.420658
      49A     -0.371921    50A     -0.345117    51A     -0.342662

  @DF-RHF Final Energy:  -592.66948466214035

   => Energetics <=

    Nuclear Repulsion Energy =            877.7847570985990160
    One-Electron Energy =               -2546.8983375339539634
    Two-Electron Energy =                1076.4440957732144852
    Total Energy =                       -592.6694846621403485
  Basis Set: (AUG-CC-PVTZ AUX)
    Blend: AUG-CC-PVTZ-RI
    Molecular point group: c1

    Geometry (in Angstrom), charge = 0, multiplicity = 1:

       Center              X                  Y                   Z               Mass
    ------------   -----------------  -----------------  -----------------  -----------------
         O           -0.037894724084     2.325113365112    -0.408225800274    15.994914619570
         N            1.145517275916     0.428367365112     0.115295199726    14.003074004430
         C            3.597605275916    -1.068410634888     0.165170199726    12.000000000000
         C            3.447525275916     0.211337365112    -0.657207800274    12.000000000000
         C            2.241319275916    -1.744679634888     0.366166199726    12.000000000000
         C            2.459055075916     1.056505165112    -0.012277300274    12.000000000000
         C            1.239130275916    -0.761169634888     0.960605199726    12.000000000000
         C           -0.021678724084     1.123855365112    -0.110686800274    12.000000000000
         C           -1.300254724084     0.345367365112    -0.058175800274    12.000000000000
         C           -2.402853724084     0.928991365112     0.576972199726    12.000000000000
         C           -1.449312724084    -0.876194634888    -0.728966800274    12.000000000000
         C           -3.633690724084     0.273806365112     0.580137199726    12.000000000000
         C           -2.687550724084    -1.520047634888    -0.738399800274    12.000000000000
         C           -3.778689724084    -0.951391634888    -0.076881800274    12.000000000000
         H            4.302000275916    -1.755878634888    -0.316777800274     1.007825032230
         H            4.021103275916    -0.818082634888     1.147573199726     1.007825032230
         H            4.407934275916     0.734817365112    -0.736204800274     1.007825032230
         H            3.127125275916    -0.037733634888    -1.676057800274     1.007825032230
         H            1.856636275916    -2.103536634888    -0.596537800274     1.007825032230
         H            2.335923275916    -2.614846634888     1.027139199726     1.007825032230
         H            2.756394275916     1.497363365112     0.947284199726     1.007825032230
         H            2.222310275916     2.020901365112    -0.656434800274     1.007825032230
         H            0.251911275916    -1.210083634888     1.068305199726     1.007825032230
         H            1.577315275916    -0.456350634888     1.964955199726     1.007825032230
         H           -2.282531724084     1.897813365112     1.055179199726     1.007825032230
         H           -0.601724724084    -1.305793634888    -1.259307800274     1.007825032230
         H           -4.485020724084     0.723872365112     1.085302199726     1.007825032230
         H           -2.803266724084    -2.462243634888    -1.269102800274     1.007825032230
         H           -4.741466724084    -1.456810634888    -0.081059800274     1.007825032230

  Basis Set: AUG-CC-PVTZ
    Blend: AUG-CC-PVTZ
  Basis Set: (AUG-CC-PVTZ AUX)
    Blend: AUG-CC-PVTZ-JKFIT
	 Reference Energy          =    -592.6694846621403485 [Eh]
	 Singles Energy            =      -0.0000000000000000 [Eh]
	 Same-Spin Energy          =      -0.6447023859512877 [Eh]
	 Opposite-Spin Energy      =      -2.0550635992947131 [Eh]
	 Correlation Energy        =      -2.6997659852460005 [Eh]
	 Total Energy              =    -595.3692506473863659 [Eh]

	 ================> DF-SCS-MP2 Energies <==================
	-----------------------------------------------------------
	 SCS Same-Spin Scale       =       0.3333333333333333 [-]
	 SCS Opposite-Spin Scale   =       1.2000000000000000 [-]
	 SCS Same-Spin Energy      =      -0.2149007953170959 [Eh]
	 SCS Opposite-Spin Energy  =      -2.4660763191536557 [Eh]
	 SCS Correlation Energy    =      -2.6809771144707515 [Eh]
	 SCS Total Energy          =    -595.3504617766111551 [Eh]
	-----------------------------------------------------------

  Dipole Moment: [D]
     X:     1.0261      Y:    -3.4169      Z:     1.1100     Total:     3.7363

*** Psi4 exiting successfully. Buy a developer a beer!
