                               Psi4 1.3.2 release

  ==> Input File <==

--------------------------------------------------------------------------
#psi4
#
memory 32 gb

molecule  {
0 1
  O       -0.0931590     2.3556990    -0.4150330
  N        1.0902530     0.4589530     0.1084880
  C        3.5423410    -1.0378250     0.1583630
  C        3.3922610     0.2419230    -0.6640150
  C        2.1860550    -1.7140940     0.3593590
  C        2.3559930     1.1736850    -0.0440690
  C        1.1838660    -0.7305840     0.9537980
  C       -0.0769430     1.1544410    -0.1174940
  C       -1.4441401     0.2644765    -0.0994906
  C       -2.4581180     0.9595770     0.5701650
  C       -1.5045770    -0.8456090    -0.7357740
  C       -3.6889550     0.3043920     0.5733300
  C       -2.7428150    -1.4894620    -0.7452070
  C       -3.8339540    -0.9208060    -0.0836890
  H        4.2467360    -1.7252930    -0.3235850
  H        3.9658390    -0.7874970     1.1407660
  H        4.3526700     0.7654030    -0.7430120
  H        3.0718610    -0.0071480    -1.6828650
  H        1.8013720    -2.0729510    -0.6033450
  H        2.2806590    -2.5842610     1.0203320
  H        2.7011300     1.5279490     0.9404770
  H        2.1670460     2.0514870    -0.6632420
  H        0.1966470    -1.1794980     1.0614980
  H        1.5220510    -0.4257650     1.9581480
  H       -2.3377960     1.9283990     1.0483720
  H       -0.6569890    -1.2752080    -1.2661150
  H       -4.5402850     0.7544580     1.0784950
  H       -2.8585310    -2.4316580    -1.2759100
  H       -4.7967310    -1.4262250    -0.0878670
units angstrom
no_reorient  #important for SAPT in psi4, default
symmetry c1  #important for SAPT in psi4, default
}

set PROPERTIES_ORIGIN ["COM"]
properties('MP2/aug-cc-pvtz', properties = ['dipole'])
--------------------------------------------------------------------------

    Molecular point group: c1
  Charge       = 0
  Multiplicity = 1
  Basis Set: AUG-CC-PVTZ
    Blend: AUG-CC-PVTZ
  Basis Set: (AUG-CC-PVTZ AUX)
    Blend: AUG-CC-PVTZ-JKFIT

    Orbital Energies [Eh]
    ---------------------

    Doubly Occupied:

       1A    -20.517054     2A    -15.580966     3A    -11.353322
       4A    -11.267144     5A    -11.252831     6A    -11.246467
       7A    -11.245561     8A    -11.243762     9A    -11.243052
      10A    -11.242053    11A    -11.233380    12A    -11.230988
      13A    -11.227881    14A    -11.224908    15A     -1.366188
      16A     -1.246856    17A     -1.175294    18A     -1.082430
      19A     -1.043267    20A     -1.028978    21A     -1.021036
      22A     -0.920310    23A     -0.864455    24A     -0.843979
      25A     -0.833323    26A     -0.795127    27A     -0.746084
      28A     -0.719261    29A     -0.672997    30A     -0.647092
      31A     -0.643008    32A     -0.630326    33A     -0.626633
      34A     -0.616141    35A     -0.598578    36A     -0.595131
      37A     -0.588021    38A     -0.560109    39A     -0.551147
      40A     -0.533907    41A     -0.515702    42A     -0.509513
      43A     -0.504029    44A     -0.493220    45A     -0.478625
      46A     -0.468628    47A     -0.460447    48A     -0.406919
      49A     -0.369312    50A     -0.358035    51A     -0.338478

  @DF-RHF Final Energy:  -592.65842044203600

   => Energetics <=

    Nuclear Repulsion Energy =            877.0466111401442504
    One-Electron Energy =               -2545.4861537036381378
    Two-Electron Energy =                1075.7811221214578836
    Total Energy =                       -592.6584204420360038
  Basis Set: (AUG-CC-PVTZ AUX)
    Blend: AUG-CC-PVTZ-RI
    Molecular point group: c1

    Geometry (in Angstrom), charge = 0, multiplicity = 1:

       Center              X                  Y                   Z               Mass
    ------------   -----------------  -----------------  -----------------  -----------------
         O           -0.029238490320     2.326692229956    -0.404450828296    15.994914619570
         N            1.154173509680     0.429946229956     0.119070171704    14.003074004430
         C            3.606261509680    -1.066831770044     0.168945171704    12.000000000000
         C            3.456181509680     0.212916229956    -0.653432828296    12.000000000000
         C            2.249975509680    -1.743100770044     0.369941171704    12.000000000000
         C            2.419913509680     1.144678229956    -0.033486828296    12.000000000000
         C            1.247786509680    -0.759590770044     0.964380171704    12.000000000000
         C           -0.013022490320     1.125434229956    -0.106911828296    12.000000000000
         C           -1.380219590320     0.235469729956    -0.088908428296    12.000000000000
         C           -2.394197490320     0.930570229956     0.580747171704    12.000000000000
         C           -1.440656490320    -0.874615770044    -0.725191828296    12.000000000000
         C           -3.625034490320     0.275385229956     0.583912171704    12.000000000000
         C           -2.678894490320    -1.518468770044    -0.734624828296    12.000000000000
         C           -3.770033490320    -0.949812770044    -0.073106828296    12.000000000000
         H            4.310656509680    -1.754299770044    -0.313002828296     1.007825032230
         H            4.029759509680    -0.816503770044     1.151348171704     1.007825032230
         H            4.416590509680     0.736396229956    -0.732429828296     1.007825032230
         H            3.135781509680    -0.036154770044    -1.672282828296     1.007825032230
         H            1.865292509680    -2.101957770044    -0.592762828296     1.007825032230
         H            2.344579509680    -2.613267770044     1.030914171704     1.007825032230
         H            2.765050509680     1.498942229956     0.951059171704     1.007825032230
         H            2.230966509680     2.022480229956    -0.652659828296     1.007825032230
         H            0.260567509680    -1.208504770044     1.072080171704     1.007825032230
         H            1.585971509680    -0.454771770044     1.968730171704     1.007825032230
         H           -2.273875490320     1.899392229956     1.058954171704     1.007825032230
         H           -0.593068490320    -1.304214770044    -1.255532828296     1.007825032230
         H           -4.476364490320     0.725451229956     1.089077171704     1.007825032230
         H           -2.794610490320    -2.460664770044    -1.265327828296     1.007825032230
         H           -4.732810490320    -1.455231770044    -0.077284828296     1.007825032230

  Basis Set: AUG-CC-PVTZ
    Blend: AUG-CC-PVTZ
  Basis Set: (AUG-CC-PVTZ AUX)
    Blend: AUG-CC-PVTZ-JKFIT
	 Reference Energy          =    -592.6584204420360038 [Eh]
	 Singles Energy            =      -0.0000000000000000 [Eh]
	 Same-Spin Energy          =      -0.6431952599383933 [Eh]
	 Opposite-Spin Energy      =      -2.0531674726497360 [Eh]
	 Correlation Energy        =      -2.6963627325881294 [Eh]
	 Total Energy              =    -595.3547831746241172 [Eh]

	 ================> DF-SCS-MP2 Energies <==================
	-----------------------------------------------------------
	 SCS Same-Spin Scale       =       0.3333333333333333 [-]
	 SCS Opposite-Spin Scale   =       1.2000000000000000 [-]
	 SCS Same-Spin Energy      =      -0.2143984199794644 [Eh]
	 SCS Opposite-Spin Energy  =      -2.4638009671796830 [Eh]
	 SCS Correlation Energy    =      -2.6781993871591476 [Eh]
	 SCS Total Energy          =    -595.3366198291951150 [Eh]
	-----------------------------------------------------------

  Dipole Moment: [D]
     X:     1.1400      Y:    -3.2965      Z:     1.1112     Total:     3.6608

*** Psi4 exiting successfully. Buy a developer a beer!
