                               Psi4 1.3.2 release

  ==> Input File <==

--------------------------------------------------------------------------
#psi4
#
memory 32 gb

molecule  {
0 1
  O       -0.0931590     2.3556990    -0.4150330
  N        1.0902530     0.4589530     0.1084880
  C        3.5423410    -1.0378250     0.1583630
  C        3.3922610     0.2419230    -0.6640150
  C        2.1860550    -1.7140940     0.3593590
  C        2.3559930     1.1736850    -0.0440690
  C        1.1838660    -0.7305840     0.9537980
  C       -0.0769430     1.1544410    -0.1174940
  C       -1.3694189     0.3567933    -0.0710375
  C       -2.4581180     0.9595770     0.5701650
  C       -1.5045770    -0.8456090    -0.7357740
  C       -3.6889550     0.3043920     0.5733300
  C       -2.7428150    -1.4894620    -0.7452070
  C       -3.8339540    -0.9208060    -0.0836890
  H        4.2467360    -1.7252930    -0.3235850
  H        3.9658390    -0.7874970     1.1407660
  H        4.3526700     0.7654030    -0.7430120
  H        3.0718610    -0.0071480    -1.6828650
  H        1.8013720    -2.0729510    -0.6033450
  H        2.2806590    -2.5842610     1.0203320
  H        2.7011300     1.5279490     0.9404770
  H        2.1670460     2.0514870    -0.6632420
  H        0.1966470    -1.1794980     1.0614980
  H        1.5220510    -0.4257650     1.9581480
  H       -2.3377960     1.9283990     1.0483720
  H       -0.6569890    -1.2752080    -1.2661150
  H       -4.5402850     0.7544580     1.0784950
  H       -2.8585310    -2.4316580    -1.2759100
  H       -4.7967310    -1.4262250    -0.0878670
units angstrom
no_reorient  #important for SAPT in psi4, default
symmetry c1  #important for SAPT in psi4, default
}

set PROPERTIES_ORIGIN ["COM"]
properties('MP2/aug-cc-pvtz', properties = ['dipole'])
--------------------------------------------------------------------------

    Molecular point group: c1
  Charge       = 0
  Multiplicity = 1
  Basis Set: AUG-CC-PVTZ
    Blend: AUG-CC-PVTZ
  Basis Set: (AUG-CC-PVTZ AUX)
    Blend: AUG-CC-PVTZ-JKFIT

    Orbital Energies [Eh]
    ---------------------

    Doubly Occupied:

       1A    -20.515289     2A    -15.581663     3A    -11.351271
       4A    -11.267194     5A    -11.253323     6A    -11.250085
       7A    -11.247520     8A    -11.247031     9A    -11.245185
      10A    -11.245059    11A    -11.243091    12A    -11.231013
      13A    -11.227946    14A    -11.225075    15A     -1.368671
      16A     -1.247988    17A     -1.162983    18A     -1.083629
      19A     -1.040275    20A     -1.025281    21A     -1.023973
      22A     -0.923891    23A     -0.867045    24A     -0.844069
      25A     -0.836936    26A     -0.793823    27A     -0.747481
      28A     -0.719770    29A     -0.679542    30A     -0.650773
      31A     -0.638969    32A     -0.630608    33A     -0.626038
      34A     -0.611691    35A     -0.600300    36A     -0.594543
      37A     -0.588909    38A     -0.560584    39A     -0.550800
      40A     -0.533963    41A     -0.512051    42A     -0.505327
      43A     -0.502281    44A     -0.496668    45A     -0.478712
      46A     -0.468960    47A     -0.460696    48A     -0.420954
      49A     -0.369658    50A     -0.346497    51A     -0.342041

  @DF-RHF Final Energy:  -592.68264602329225

   => Energetics <=

    Nuclear Repulsion Energy =            877.0095349741587825
    One-Electron Energy =               -2545.4101162738606945
    Two-Electron Energy =                1075.7179352764098894
    Total Energy =                       -592.6826460232921363
  Basis Set: (AUG-CC-PVTZ AUX)
    Blend: AUG-CC-PVTZ-RI
    Molecular point group: c1

    Geometry (in Angstrom), charge = 0, multiplicity = 1:

       Center              X                  Y                   Z               Mass
    ------------   -----------------  -----------------  -----------------  -----------------
         O           -0.033979799437     2.320834421390    -0.406256272299    15.994914619570
         N            1.149432200563     0.424088421390     0.117264727701    14.003074004430
         C            3.601520200563    -1.072689578610     0.167139727701    12.000000000000
         C            3.451440200563     0.207058421390    -0.655238272299    12.000000000000
         C            2.245234200563    -1.748958578610     0.368135727701    12.000000000000
         C            2.415172200563     1.138820421390    -0.035292272299    12.000000000000
         C            1.243045200563    -0.765448578610     0.962574727701    12.000000000000
         C           -0.017763799437     1.119576421390    -0.108717272299    12.000000000000
         C           -1.310239699437     0.321928721390    -0.062260772299    12.000000000000
         C           -2.398938799437     0.924712421390     0.578941727701    12.000000000000
         C           -1.445397799437    -0.880473578610    -0.726997272299    12.000000000000
         C           -3.629775799437     0.269527421390     0.582106727701    12.000000000000
         C           -2.683635799437    -1.524326578610    -0.736430272299    12.000000000000
         C           -3.774774799437    -0.955670578610    -0.074912272299    12.000000000000
         H            4.305915200563    -1.760157578610    -0.314808272299     1.007825032230
         H            4.025018200563    -0.822361578610     1.149542727701     1.007825032230
         H            4.411849200563     0.730538421390    -0.734235272299     1.007825032230
         H            3.131040200563    -0.042012578610    -1.674088272299     1.007825032230
         H            1.860551200563    -2.107815578610    -0.594568272299     1.007825032230
         H            2.339838200563    -2.619125578610     1.029108727701     1.007825032230
         H            2.760309200563     1.493084421390     0.949253727701     1.007825032230
         H            2.226225200563     2.016622421390    -0.654465272299     1.007825032230
         H            0.255826200563    -1.214362578610     1.070274727701     1.007825032230
         H            1.581230200563    -0.460629578610     1.966924727701     1.007825032230
         H           -2.278616799437     1.893534421390     1.057148727701     1.007825032230
         H           -0.597809799437    -1.310072578610    -1.257338272299     1.007825032230
         H           -4.481105799437     0.719593421390     1.087271727701     1.007825032230
         H           -2.799351799437    -2.466522578610    -1.267133272299     1.007825032230
         H           -4.737551799437    -1.461089578610    -0.079090272299     1.007825032230

  Basis Set: AUG-CC-PVTZ
    Blend: AUG-CC-PVTZ
  Basis Set: (AUG-CC-PVTZ AUX)
    Blend: AUG-CC-PVTZ-JKFIT
	 Reference Energy          =    -592.6826460232922500 [Eh]
	 Singles Energy            =      -0.0000000000000000 [Eh]
	 Same-Spin Energy          =      -0.6433188063366369 [Eh]
	 Opposite-Spin Energy      =      -2.0530250566206281 [Eh]
	 Correlation Energy        =      -2.6963438629572649 [Eh]
	 Total Energy              =    -595.3789898862495420 [Eh]

	 ================> DF-SCS-MP2 Energies <==================
	-----------------------------------------------------------
	 SCS Same-Spin Scale       =       0.3333333333333333 [-]
	 SCS Opposite-Spin Scale   =       1.2000000000000000 [-]
	 SCS Same-Spin Energy      =      -0.2144396021122123 [Eh]
	 SCS Opposite-Spin Energy  =      -2.4636300679447536 [Eh]
	 SCS Correlation Energy    =      -2.6780696700569657 [Eh]
	 SCS Total Energy          =    -595.3607156933492206 [Eh]
	-----------------------------------------------------------

  Dipole Moment: [D]
     X:     1.0526      Y:    -3.3771      Z:     1.1213     Total:     3.7108

*** Psi4 exiting successfully. Buy a developer a beer!
