                               Psi4 1.3.2 release

  ==> Input File <==

--------------------------------------------------------------------------
#psi4
#
memory 32 gb

molecule  {
0 1
  O        0.0355733     2.3540240    -0.4006085
  N        1.0902530     0.4589530     0.1084880
  C        3.5423410    -1.0378250     0.1583630
  C        3.3922610     0.2419230    -0.6640150
  C        2.1860550    -1.7140940     0.3593590
  C        2.3559930     1.1736850    -0.0440690
  C        1.1838660    -0.7305840     0.9537980
  C       -0.0769430     1.1544410    -0.1174940
  C       -1.3555190     0.3759530    -0.0649830
  C       -2.4581180     0.9595770     0.5701650
  C       -1.5045770    -0.8456090    -0.7357740
  C       -3.6889550     0.3043920     0.5733300
  C       -2.7428150    -1.4894620    -0.7452070
  C       -3.8339540    -0.9208060    -0.0836890
  H        4.2467360    -1.7252930    -0.3235850
  H        3.9658390    -0.7874970     1.1407660
  H        4.3526700     0.7654030    -0.7430120
  H        3.0718610    -0.0071480    -1.6828650
  H        1.8013720    -2.0729510    -0.6033450
  H        2.2806590    -2.5842610     1.0203320
  H        2.7011300     1.5279490     0.9404770
  H        2.1670460     2.0514870    -0.6632420
  H        0.1966470    -1.1794980     1.0614980
  H        1.5220510    -0.4257650     1.9581480
  H       -2.3377960     1.9283990     1.0483720
  H       -0.6569890    -1.2752080    -1.2661150
  H       -4.5402850     0.7544580     1.0784950
  H       -2.8585310    -2.4316580    -1.2759100
  H       -4.7967310    -1.4262250    -0.0878670
units angstrom
no_reorient  #important for SAPT in psi4, default
symmetry c1  #important for SAPT in psi4, default
}

set PROPERTIES_ORIGIN ["COM"]
properties('MP2/aug-cc-pvtz', properties = ['dipole'])
--------------------------------------------------------------------------

    Molecular point group: c1
  Charge       = 0
  Multiplicity = 1
  Basis Set: AUG-CC-PVTZ
    Blend: AUG-CC-PVTZ
  Basis Set: (AUG-CC-PVTZ AUX)
    Blend: AUG-CC-PVTZ-JKFIT

    Orbital Energies [Eh]
    ---------------------

    Doubly Occupied:

       1A    -20.512001     2A    -15.575330     3A    -11.349726
       4A    -11.263629     5A    -11.255935     6A    -11.254197
       7A    -11.251519     8A    -11.249904     9A    -11.248554
      10A    -11.247967    11A    -11.246527    12A    -11.228465
      13A    -11.225305    14A    -11.221831    15A     -1.370623
      16A     -1.240405    17A     -1.164971    18A     -1.080849
      19A     -1.042574    20A     -1.027454    21A     -1.022821
      22A     -0.922539    23A     -0.866258    24A     -0.846483
      25A     -0.838355    26A     -0.791794    27A     -0.746515
      28A     -0.719968    29A     -0.683085    30A     -0.652129
      31A     -0.639042    32A     -0.629961    33A     -0.624109
      34A     -0.609646    35A     -0.601773    36A     -0.595810
      37A     -0.586654    38A     -0.557205    39A     -0.549634
      40A     -0.533713    41A     -0.515123    42A     -0.506335
      43A     -0.501371    44A     -0.495385    45A     -0.475649
      46A     -0.465248    47A     -0.457338    48A     -0.421339
      49A     -0.364280    50A     -0.347999    51A     -0.347127

  @DF-RHF Final Energy:  -592.67926273654064

   => Energetics <=

    Nuclear Repulsion Energy =            877.4261623086462123
    One-Electron Energy =               -2546.2659460058066543
    Two-Electron Energy =                1076.1605209606198059
    Total Energy =                       -592.6792627365405224
  Basis Set: (AUG-CC-PVTZ AUX)
    Blend: AUG-CC-PVTZ-RI
    Molecular point group: c1

    Geometry (in Angstrom), charge = 0, multiplicity = 1:

       Center              X                  Y                   Z               Mass
    ------------   -----------------  -----------------  -----------------  -----------------
         O            0.082982642742     2.318085341983    -0.393435939403    15.994914619570
         N            1.137662342742     0.423014341983     0.115660560597    14.003074004430
         C            3.589750342742    -1.073763658017     0.165535560597    12.000000000000
         C            3.439670342742     0.205984341983    -0.656842439403    12.000000000000
         C            2.233464342742    -1.750032658017     0.366531560597    12.000000000000
         C            2.403402342742     1.137746341983    -0.036896439403    12.000000000000
         C            1.231275342742    -0.766522658017     0.960970560597    12.000000000000
         C           -0.029533657258     1.118502341983    -0.110321439403    12.000000000000
         C           -1.308109657258     0.340014341983    -0.057810439403    12.000000000000
         C           -2.410708657258     0.923638341983     0.577337560597    12.000000000000
         C           -1.457167657258    -0.881547658017    -0.728601439403    12.000000000000
         C           -3.641545657258     0.268453341983     0.580502560597    12.000000000000
         C           -2.695405657258    -1.525400658017    -0.738034439403    12.000000000000
         C           -3.786544657258    -0.956744658017    -0.076516439403    12.000000000000
         H            4.294145342742    -1.761231658017    -0.316412439403     1.007825032230
         H            4.013248342742    -0.823435658017     1.147938560597     1.007825032230
         H            4.400079342742     0.729464341983    -0.735839439403     1.007825032230
         H            3.119270342742    -0.043086658017    -1.675692439403     1.007825032230
         H            1.848781342742    -2.108889658017    -0.596172439403     1.007825032230
         H            2.328068342742    -2.620199658017     1.027504560597     1.007825032230
         H            2.748539342742     1.492010341983     0.947649560597     1.007825032230
         H            2.214455342742     2.015548341983    -0.656069439403     1.007825032230
         H            0.244056342742    -1.215436658017     1.068670560597     1.007825032230
         H            1.569460342742    -0.461703658017     1.965320560597     1.007825032230
         H           -2.290386657258     1.892460341983     1.055544560597     1.007825032230
         H           -0.609579657258    -1.311146658017    -1.258942439403     1.007825032230
         H           -4.492875657258     0.718519341983     1.085667560597     1.007825032230
         H           -2.811121657258    -2.467596658017    -1.268737439403     1.007825032230
         H           -4.749321657258    -1.462163658017    -0.080694439403     1.007825032230

  Basis Set: AUG-CC-PVTZ
    Blend: AUG-CC-PVTZ
  Basis Set: (AUG-CC-PVTZ AUX)
    Blend: AUG-CC-PVTZ-JKFIT
	 Reference Energy          =    -592.6792627365406361 [Eh]
	 Singles Energy            =      -0.0000000000000000 [Eh]
	 Same-Spin Energy          =      -0.6437490900583203 [Eh]
	 Opposite-Spin Energy      =      -2.0535542188904912 [Eh]
	 Correlation Energy        =      -2.6973033089488112 [Eh]
	 Total Energy              =    -595.3765660454894260 [Eh]

	 ================> DF-SCS-MP2 Energies <==================
	-----------------------------------------------------------
	 SCS Same-Spin Scale       =       0.3333333333333333 [-]
	 SCS Opposite-Spin Scale   =       1.2000000000000000 [-]
	 SCS Same-Spin Energy      =      -0.2145830300194401 [Eh]
	 SCS Opposite-Spin Energy  =      -2.4642650626685891 [Eh]
	 SCS Correlation Energy    =      -2.6788480926880291 [Eh]
	 SCS Total Energy          =    -595.3581108292286217 [Eh]
	-----------------------------------------------------------

  Dipole Moment: [D]
     X:     0.5171      Y:    -3.4258      Z:     1.0713     Total:     3.6264

*** Psi4 exiting successfully. Buy a developer a beer!
