                               Psi4 1.3.2 release

  ==> Input File <==

--------------------------------------------------------------------------
#psi4
#
memory 32 gb

molecule  {
0 1
  O       -0.1361000     2.3533294    -0.4191235
  N        1.0902530     0.4589530     0.1084880
  C        3.5423410    -1.0378250     0.1583630
  C        3.3922610     0.2419230    -0.6640150
  C        2.1860550    -1.7140940     0.3593590
  C        2.3559930     1.1736850    -0.0440690
  C        1.1838660    -0.7305840     0.9537980
  C       -0.0769430     1.1544410    -0.1174940
  C       -1.3555190     0.3759530    -0.0649830
  C       -2.4581180     0.9595770     0.5701650
  C       -1.5045770    -0.8456090    -0.7357740
  C       -3.6889550     0.3043920     0.5733300
  C       -2.7428150    -1.4894620    -0.7452070
  C       -3.8339540    -0.9208060    -0.0836890
  H        4.2467360    -1.7252930    -0.3235850
  H        3.9658390    -0.7874970     1.1407660
  H        4.3526700     0.7654030    -0.7430120
  H        3.0718610    -0.0071480    -1.6828650
  H        1.8013720    -2.0729510    -0.6033450
  H        2.2806590    -2.5842610     1.0203320
  H        2.7011300     1.5279490     0.9404770
  H        2.1670460     2.0514870    -0.6632420
  H        0.1966470    -1.1794980     1.0614980
  H        1.5220510    -0.4257650     1.9581480
  H       -2.3377960     1.9283990     1.0483720
  H       -0.6569890    -1.2752080    -1.2661150
  H       -4.5402850     0.7544580     1.0784950
  H       -2.8585310    -2.4316580    -1.2759100
  H       -4.7967310    -1.4262250    -0.0878670
units angstrom
no_reorient  #important for SAPT in psi4, default
symmetry c1  #important for SAPT in psi4, default
}

set PROPERTIES_ORIGIN ["COM"]
properties('MP2/aug-cc-pvtz', properties = ['dipole'])
--------------------------------------------------------------------------

    Molecular point group: c1
  Charge       = 0
  Multiplicity = 1
  Basis Set: AUG-CC-PVTZ
    Blend: AUG-CC-PVTZ
  Basis Set: (AUG-CC-PVTZ AUX)
    Blend: AUG-CC-PVTZ-JKFIT

    Orbital Energies [Eh]
    ---------------------

    Doubly Occupied:

       1A    -20.515569     2A    -15.583769     3A    -11.350605
       4A    -11.268246     5A    -11.255042     6A    -11.249497
       7A    -11.248334     8A    -11.246579     9A    -11.244410
      10A    -11.244213    11A    -11.242265    12A    -11.231766
      13A    -11.228741    14A    -11.226071    15A     -1.369008
      16A     -1.250524    17A     -1.159746    18A     -1.084837
      19A     -1.040287    20A     -1.025759    21A     -1.021925
      22A     -0.925405    23A     -0.868390    24A     -0.845772
      25A     -0.834717    26A     -0.793868    27A     -0.748292
      28A     -0.720024    29A     -0.680432    30A     -0.651343
      31A     -0.638643    32A     -0.631423    33A     -0.625638
      34A     -0.611034    35A     -0.600789    36A     -0.593112
      37A     -0.589519    38A     -0.561711    39A     -0.551193
      40A     -0.534302    41A     -0.512487    42A     -0.503724
      43A     -0.501518    44A     -0.495613    45A     -0.479574
      46A     -0.470139    47A     -0.461726    48A     -0.422493
      49A     -0.371365    50A     -0.343864    51A     -0.340477

  @DF-RHF Final Energy:  -592.68250112253202

   => Energetics <=

    Nuclear Repulsion Energy =            876.9677886259047455
    One-Electron Energy =               -2545.3090120594770269
    Two-Electron Energy =                1075.6587223110404921
    Total Energy =                       -592.6825011225319031
  Basis Set: (AUG-CC-PVTZ AUX)
    Blend: AUG-CC-PVTZ-RI
    Molecular point group: c1

    Geometry (in Angstrom), charge = 0, multiplicity = 1:

       Center              X                  Y                   Z               Mass
    ------------   -----------------  -----------------  -----------------  -----------------
         O           -0.074170949729     2.317449489551    -0.410384986020    15.994914619570
         N            1.152182050271     0.423073089551     0.117226513980    14.003074004430
         C            3.604270050271    -1.073704910449     0.167101513980    12.000000000000
         C            3.454190050271     0.206043089551    -0.655276486020    12.000000000000
         C            2.247984050271    -1.749973910449     0.368097513980    12.000000000000
         C            2.417922050271     1.137805089551    -0.035330486020    12.000000000000
         C            1.245795050271    -0.766463910449     0.962536513980    12.000000000000
         C           -0.015013949729     1.118561089551    -0.108755486020    12.000000000000
         C           -1.293589949729     0.340073089551    -0.056244486020    12.000000000000
         C           -2.396188949729     0.923697089551     0.578903513980    12.000000000000
         C           -1.442647949729    -0.881488910449    -0.727035486020    12.000000000000
         C           -3.627025949729     0.268512089551     0.582068513980    12.000000000000
         C           -2.680885949729    -1.525341910449    -0.736468486020    12.000000000000
         C           -3.772024949729    -0.956685910449    -0.074950486020    12.000000000000
         H            4.308665050271    -1.761172910449    -0.314846486020     1.007825032230
         H            4.027768050271    -0.823376910449     1.149504513980     1.007825032230
         H            4.414599050271     0.729523089551    -0.734273486020     1.007825032230
         H            3.133790050271    -0.043027910449    -1.674126486020     1.007825032230
         H            1.863301050271    -2.108830910449    -0.594606486020     1.007825032230
         H            2.342588050271    -2.620140910449     1.029070513980     1.007825032230
         H            2.763059050271     1.492069089551     0.949215513980     1.007825032230
         H            2.228975050271     2.015607089551    -0.654503486020     1.007825032230
         H            0.258576050271    -1.215377910449     1.070236513980     1.007825032230
         H            1.583980050271    -0.461644910449     1.966886513980     1.007825032230
         H           -2.275866949729     1.892519089551     1.057110513980     1.007825032230
         H           -0.595059949729    -1.311087910449    -1.257376486020     1.007825032230
         H           -4.478355949729     0.718578089551     1.087233513980     1.007825032230
         H           -2.796601949729    -2.467537910449    -1.267171486020     1.007825032230
         H           -4.734801949729    -1.462104910449    -0.079128486020     1.007825032230

  Basis Set: AUG-CC-PVTZ
    Blend: AUG-CC-PVTZ
  Basis Set: (AUG-CC-PVTZ AUX)
    Blend: AUG-CC-PVTZ-JKFIT
	 Reference Energy          =    -592.6825011225320168 [Eh]
	 Singles Energy            =      -0.0000000000000000 [Eh]
	 Same-Spin Energy          =      -0.6434564981848860 [Eh]
	 Opposite-Spin Energy      =      -2.0533658016862071 [Eh]
	 Correlation Energy        =      -2.6968222998710933 [Eh]
	 Total Energy              =    -595.3793234224031039 [Eh]

	 ================> DF-SCS-MP2 Energies <==================
	-----------------------------------------------------------
	 SCS Same-Spin Scale       =       0.3333333333333333 [-]
	 SCS Opposite-Spin Scale   =       1.2000000000000000 [-]
	 SCS Same-Spin Energy      =      -0.2144854993949620 [Eh]
	 SCS Opposite-Spin Energy  =      -2.4640389620234484 [Eh]
	 SCS Correlation Energy    =      -2.6785244614184105 [Eh]
	 SCS Total Energy          =    -595.3610255839504362 [Eh]
	-----------------------------------------------------------

  Dipole Moment: [D]
     X:     1.2030      Y:    -3.3726      Z:     1.1383     Total:     3.7573

*** Psi4 exiting successfully. Buy a developer a beer!
