                               Psi4 1.3.2 release

  ==> Input File <==

--------------------------------------------------------------------------
#psi4
#
memory 32 gb

molecule  {
0 1
  O       -0.0931590     2.3556990    -0.4150330
  N        1.0902530     0.4589530     0.1084880
  C        3.5423410    -1.0378250     0.1583630
  C        3.3922610     0.2419230    -0.6640150
  C        2.1860550    -1.7140940     0.3593590
  C        2.2801667     1.2726765    -0.1327023
  C        1.1838660    -0.7305840     0.9537980
  C       -0.0769430     1.1544410    -0.1174940
  C       -1.3555190     0.3759530    -0.0649830
  C       -2.4581180     0.9595770     0.5701650
  C       -1.5045770    -0.8456090    -0.7357740
  C       -3.6889550     0.3043920     0.5733300
  C       -2.7428150    -1.4894620    -0.7452070
  C       -3.8339540    -0.9208060    -0.0836890
  H        4.2467360    -1.7252930    -0.3235850
  H        3.9658390    -0.7874970     1.1407660
  H        4.3526700     0.7654030    -0.7430120
  H        3.0718610    -0.0071480    -1.6828650
  H        1.8013720    -2.0729510    -0.6033450
  H        2.2806590    -2.5842610     1.0203320
  H        2.7011300     1.5279490     0.9404770
  H        2.1670460     2.0514870    -0.6632420
  H        0.1966470    -1.1794980     1.0614980
  H        1.5220510    -0.4257650     1.9581480
  H       -2.3377960     1.9283990     1.0483720
  H       -0.6569890    -1.2752080    -1.2661150
  H       -4.5402850     0.7544580     1.0784950
  H       -2.8585310    -2.4316580    -1.2759100
  H       -4.7967310    -1.4262250    -0.0878670
units angstrom
no_reorient  #important for SAPT in psi4, default
symmetry c1  #important for SAPT in psi4, default
}

set PROPERTIES_ORIGIN ["COM"]
properties('MP2/aug-cc-pvtz', properties = ['dipole'])
--------------------------------------------------------------------------

    Molecular point group: c1
  Charge       = 0
  Multiplicity = 1
  Basis Set: AUG-CC-PVTZ
    Blend: AUG-CC-PVTZ
  Basis Set: (AUG-CC-PVTZ AUX)
    Blend: AUG-CC-PVTZ-JKFIT

    Orbital Energies [Eh]
    ---------------------

    Doubly Occupied:

       1A    -20.515144     2A    -15.583949     3A    -11.348764
       4A    -11.271333     5A    -11.255889     6A    -11.250634
       7A    -11.249425     8A    -11.247761     9A    -11.245512
      10A    -11.245341    11A    -11.243276    12A    -11.232062
      13A    -11.230337    14A    -11.228224    15A     -1.371039
      16A     -1.247334    17A     -1.160919    18A     -1.080763
      19A     -1.041755    20A     -1.024170    21A     -1.021454
      22A     -0.924347    23A     -0.871819    24A     -0.850027
      25A     -0.836080    26A     -0.789134    27A     -0.753155
      28A     -0.721603    29A     -0.683215    30A     -0.659251
      31A     -0.637621    32A     -0.630802    33A     -0.624162
      34A     -0.609707    35A     -0.601120    36A     -0.593379
      37A     -0.590862    38A     -0.576188    39A     -0.547059
      40A     -0.532923    41A     -0.511735    42A     -0.503307
      43A     -0.498858    44A     -0.492391    45A     -0.478823
      46A     -0.469039    47A     -0.460831    48A     -0.423322
      49A     -0.363145    50A     -0.344962    51A     -0.341931

  @DF-RHF Final Energy:  -592.65242871087980

   => Energetics <=

    Nuclear Repulsion Energy =            876.4321962561314194
    One-Electron Energy =               -2544.1374817572636857
    Two-Electron Energy =                1075.0528567902524628
    Total Energy =                       -592.6524287108798035
  Basis Set: (AUG-CC-PVTZ AUX)
    Blend: AUG-CC-PVTZ-RI
    Molecular point group: c1

    Geometry (in Angstrom), charge = 0, multiplicity = 1:

       Center              X                  Y                   Z               Mass
    ------------   -----------------  -----------------  -----------------  -----------------
         O           -0.030050363013     2.313337334060    -0.401016372280    15.994914619570
         N            1.153361636987     0.416591334060     0.122504627720    14.003074004430
         C            3.605449636987    -1.080186665940     0.172379627720    12.000000000000
         C            3.455369636987     0.199561334060    -0.649998372280    12.000000000000
         C            2.249163636987    -1.756455665940     0.373375627720    12.000000000000
         C            2.343275336987     1.230314834060    -0.118685672280    12.000000000000
         C            1.246974636987    -0.772945665940     0.967814627720    12.000000000000
         C           -0.013834363013     1.112079334060    -0.103477372280    12.000000000000
         C           -1.292410363013     0.333591334060    -0.050966372280    12.000000000000
         C           -2.395009363013     0.917215334060     0.584181627720    12.000000000000
         C           -1.441468363013    -0.887970665940    -0.721757372280    12.000000000000
         C           -3.625846363013     0.262030334060     0.587346627720    12.000000000000
         C           -2.679706363013    -1.531823665940    -0.731190372280    12.000000000000
         C           -3.770845363013    -0.963167665940    -0.069672372280    12.000000000000
         H            4.309844636987    -1.767654665940    -0.309568372280     1.007825032230
         H            4.028947636987    -0.829858665940     1.154782627720     1.007825032230
         H            4.415778636987     0.723041334060    -0.728995372280     1.007825032230
         H            3.134969636987    -0.049509665940    -1.668848372280     1.007825032230
         H            1.864480636987    -2.115312665940    -0.589328372280     1.007825032230
         H            2.343767636987    -2.626622665940     1.034348627720     1.007825032230
         H            2.764238636987     1.485587334060     0.954493627720     1.007825032230
         H            2.230154636987     2.009125334060    -0.649225372280     1.007825032230
         H            0.259755636987    -1.221859665940     1.075514627720     1.007825032230
         H            1.585159636987    -0.468126665940     1.972164627720     1.007825032230
         H           -2.274687363013     1.886037334060     1.062388627720     1.007825032230
         H           -0.593880363013    -1.317569665940    -1.252098372280     1.007825032230
         H           -4.477176363013     0.712096334060     1.092511627720     1.007825032230
         H           -2.795422363013    -2.474019665940    -1.261893372280     1.007825032230
         H           -4.733622363013    -1.468586665940    -0.073850372280     1.007825032230

  Basis Set: AUG-CC-PVTZ
    Blend: AUG-CC-PVTZ
  Basis Set: (AUG-CC-PVTZ AUX)
    Blend: AUG-CC-PVTZ-JKFIT
	 Reference Energy          =    -592.6524287108798035 [Eh]
	 Singles Energy            =      -0.0000000000000000 [Eh]
	 Same-Spin Energy          =      -0.6433259760100231 [Eh]
	 Opposite-Spin Energy      =      -2.0540260474409542 [Eh]
	 Correlation Energy        =      -2.6973520234509771 [Eh]
	 Total Energy              =    -595.3497807343308068 [Eh]

	 ================> DF-SCS-MP2 Energies <==================
	-----------------------------------------------------------
	 SCS Same-Spin Scale       =       0.3333333333333333 [-]
	 SCS Opposite-Spin Scale   =       1.2000000000000000 [-]
	 SCS Same-Spin Energy      =      -0.2144419920033410 [Eh]
	 SCS Opposite-Spin Energy  =      -2.4648312569291448 [Eh]
	 SCS Correlation Energy    =      -2.6792732489324860 [Eh]
	 SCS Total Energy          =    -595.3317019598123352 [Eh]
	-----------------------------------------------------------

  Dipole Moment: [D]
     X:     0.9965      Y:    -3.4678      Z:     1.0773     Total:     3.7655

*** Psi4 exiting successfully. Buy a developer a beer!
