                               Psi4 1.3.2 release

  ==> Input File <==

--------------------------------------------------------------------------
#psi4
#
memory 32 gb

molecule  {
0 1
  O       -0.0931590     2.3556990    -0.4150330
  N        1.0902530     0.4589530     0.1084880
  C        3.5423410    -1.0378250     0.1583630
  C        3.3922610     0.2419230    -0.6640150
  C        2.1860550    -1.7140940     0.3593590
  C        2.3559930     1.1736850    -0.0440690
  C        1.1838660    -0.7305840     0.9537980
  C       -0.1616846     1.2049353    -0.1339009
  C       -1.3555190     0.3759530    -0.0649830
  C       -2.4581180     0.9595770     0.5701650
  C       -1.5045770    -0.8456090    -0.7357740
  C       -3.6889550     0.3043920     0.5733300
  C       -2.7428150    -1.4894620    -0.7452070
  C       -3.8339540    -0.9208060    -0.0836890
  H        4.2467360    -1.7252930    -0.3235850
  H        3.9658390    -0.7874970     1.1407660
  H        4.3526700     0.7654030    -0.7430120
  H        3.0718610    -0.0071480    -1.6828650
  H        1.8013720    -2.0729510    -0.6033450
  H        2.2806590    -2.5842610     1.0203320
  H        2.7011300     1.5279490     0.9404770
  H        2.1670460     2.0514870    -0.6632420
  H        0.1966470    -1.1794980     1.0614980
  H        1.5220510    -0.4257650     1.9581480
  H       -2.3377960     1.9283990     1.0483720
  H       -0.6569890    -1.2752080    -1.2661150
  H       -4.5402850     0.7544580     1.0784950
  H       -2.8585310    -2.4316580    -1.2759100
  H       -4.7967310    -1.4262250    -0.0878670
units angstrom
no_reorient  #important for SAPT in psi4, default
symmetry c1  #important for SAPT in psi4, default
}

set PROPERTIES_ORIGIN ["COM"]
properties('MP2/aug-cc-pvtz', properties = ['dipole'])
--------------------------------------------------------------------------

    Molecular point group: c1
  Charge       = 0
  Multiplicity = 1
  Basis Set: AUG-CC-PVTZ
    Blend: AUG-CC-PVTZ
  Basis Set: (AUG-CC-PVTZ AUX)
    Blend: AUG-CC-PVTZ-JKFIT

    Orbital Energies [Eh]
    ---------------------

    Doubly Occupied:

       1A    -20.531921     2A    -15.563238     3A    -11.353457
       4A    -11.256332     5A    -11.256219     6A    -11.252941
       7A    -11.251890     8A    -11.250608     9A    -11.249371
      10A    -11.247118    11A    -11.244569    12A    -11.223490
      13A    -11.221563    14A    -11.218147    15A     -1.405879
      16A     -1.225352    17A     -1.167010    18A     -1.072189
      19A     -1.044655    20A     -1.028433    21A     -1.018506
      22A     -0.910015    23A     -0.861548    24A     -0.847570
      25A     -0.838307    26A     -0.784296    27A     -0.747116
      28A     -0.714832    29A     -0.686871    30A     -0.657262
      31A     -0.640344    32A     -0.627692    33A     -0.621543
      34A     -0.610182    35A     -0.602918    36A     -0.595228
      37A     -0.586023    38A     -0.554458    39A     -0.552190
      40A     -0.536928    41A     -0.520744    42A     -0.506349
      43A     -0.503514    44A     -0.492936    45A     -0.476123
      46A     -0.464609    47A     -0.452064    48A     -0.426808
      49A     -0.357651    50A     -0.348736    51A     -0.347082

  @DF-RHF Final Energy:  -592.67320816809001

   => Energetics <=

    Nuclear Repulsion Energy =            876.5842794125770752
    One-Electron Energy =               -2544.6053197017995444
    Two-Electron Energy =                1075.3478321211325692
    Total Energy =                       -592.6732081680900137
  Basis Set: (AUG-CC-PVTZ AUX)
    Blend: AUG-CC-PVTZ-RI
    Molecular point group: c1

    Geometry (in Angstrom), charge = 0, multiplicity = 1:

       Center              X                  Y                   Z               Mass
    ------------   -----------------  -----------------  -----------------  -----------------
         O           -0.029484657522     2.316414642997    -0.405599378024    15.994914619570
         N            1.153927342478     0.419668642997     0.117921621976    14.003074004430
         C            3.606015342478    -1.077109357003     0.167796621976    12.000000000000
         C            3.455935342478     0.202638642997    -0.654581378024    12.000000000000
         C            2.249729342478    -1.753378357003     0.368792621976    12.000000000000
         C            2.419667342478     1.134400642997    -0.034635378024    12.000000000000
         C            1.247540342478    -0.769868357003     0.963231621976    12.000000000000
         C           -0.098010257522     1.165650942997    -0.124467278024    12.000000000000
         C           -1.291844657522     0.336668642997    -0.055549378024    12.000000000000
         C           -2.394443657522     0.920292642997     0.579598621976    12.000000000000
         C           -1.440902657522    -0.884893357003    -0.726340378024    12.000000000000
         C           -3.625280657522     0.265107642997     0.582763621976    12.000000000000
         C           -2.679140657522    -1.528746357003    -0.735773378024    12.000000000000
         C           -3.770279657522    -0.960090357003    -0.074255378024    12.000000000000
         H            4.310410342478    -1.764577357003    -0.314151378024     1.007825032230
         H            4.029513342478    -0.826781357003     1.150199621976     1.007825032230
         H            4.416344342478     0.726118642997    -0.733578378024     1.007825032230
         H            3.135535342478    -0.046432357003    -1.673431378024     1.007825032230
         H            1.865046342478    -2.112235357003    -0.593911378024     1.007825032230
         H            2.344333342478    -2.623545357003     1.029765621976     1.007825032230
         H            2.764804342478     1.488664642997     0.949910621976     1.007825032230
         H            2.230720342478     2.012202642997    -0.653808378024     1.007825032230
         H            0.260321342478    -1.218782357003     1.070931621976     1.007825032230
         H            1.585725342478    -0.465049357003     1.967581621976     1.007825032230
         H           -2.274121657522     1.889114642997     1.057805621976     1.007825032230
         H           -0.593314657522    -1.314492357003    -1.256681378024     1.007825032230
         H           -4.476610657522     0.715173642997     1.087928621976     1.007825032230
         H           -2.794856657522    -2.470942357003    -1.266476378024     1.007825032230
         H           -4.733056657522    -1.465509357003    -0.078433378024     1.007825032230

  Basis Set: AUG-CC-PVTZ
    Blend: AUG-CC-PVTZ
  Basis Set: (AUG-CC-PVTZ AUX)
    Blend: AUG-CC-PVTZ-JKFIT
	 Reference Energy          =    -592.6732081680900137 [Eh]
	 Singles Energy            =      -0.0000000000000000 [Eh]
	 Same-Spin Energy          =      -0.6432705220634126 [Eh]
	 Opposite-Spin Energy      =      -2.0528731419941462 [Eh]
	 Correlation Energy        =      -2.6961436640575589 [Eh]
	 Total Energy              =    -595.3693518321475722 [Eh]

	 ================> DF-SCS-MP2 Energies <==================
	-----------------------------------------------------------
	 SCS Same-Spin Scale       =       0.3333333333333333 [-]
	 SCS Opposite-Spin Scale   =       1.2000000000000000 [-]
	 SCS Same-Spin Energy      =      -0.2144235073544709 [Eh]
	 SCS Opposite-Spin Energy  =      -2.4634477703929751 [Eh]
	 SCS Correlation Energy    =      -2.6778712777474460 [Eh]
	 SCS Total Energy          =    -595.3510794458375130 [Eh]
	-----------------------------------------------------------

  Dipole Moment: [D]
     X:     0.0271      Y:    -2.9403      Z:     0.8980     Total:     3.0745

*** Psi4 exiting successfully. Buy a developer a beer!
