                               Psi4 1.3.2 release

  ==> Input File <==

--------------------------------------------------------------------------
#psi4
#
memory 32 gb

molecule  {
0 1
  O       -0.0931590     2.3556990    -0.4150330
  N        1.0902530     0.4589530     0.1084880
  C        3.5423410    -1.0378250     0.1583630
  C        3.3922610     0.2419230    -0.6640150
  C        2.1860550    -1.7140940     0.3593590
  C        2.3069347     1.2406182    -0.1034040
  C        1.1838660    -0.7305840     0.9537980
  C       -0.0769430     1.1544410    -0.1174940
  C       -1.3555190     0.3759530    -0.0649830
  C       -2.4581180     0.9595770     0.5701650
  C       -1.5045770    -0.8456090    -0.7357740
  C       -3.6889550     0.3043920     0.5733300
  C       -2.7428150    -1.4894620    -0.7452070
  C       -3.8339540    -0.9208060    -0.0836890
  H        4.2467360    -1.7252930    -0.3235850
  H        3.9658390    -0.7874970     1.1407660
  H        4.3526700     0.7654030    -0.7430120
  H        3.0718610    -0.0071480    -1.6828650
  H        1.8013720    -2.0729510    -0.6033450
  H        2.2806590    -2.5842610     1.0203320
  H        2.7011300     1.5279490     0.9404770
  H        2.1670460     2.0514870    -0.6632420
  H        0.1966470    -1.1794980     1.0614980
  H        1.5220510    -0.4257650     1.9581480
  H       -2.3377960     1.9283990     1.0483720
  H       -0.6569890    -1.2752080    -1.2661150
  H       -4.5402850     0.7544580     1.0784950
  H       -2.8585310    -2.4316580    -1.2759100
  H       -4.7967310    -1.4262250    -0.0878670
units angstrom
no_reorient  #important for SAPT in psi4, default
symmetry c1  #important for SAPT in psi4, default
}

set PROPERTIES_ORIGIN ["COM"]
properties('MP2/aug-cc-pvtz', properties = ['dipole'])
--------------------------------------------------------------------------

    Molecular point group: c1
  Charge       = 0
  Multiplicity = 1
  Basis Set: AUG-CC-PVTZ
    Blend: AUG-CC-PVTZ
  Basis Set: (AUG-CC-PVTZ AUX)
    Blend: AUG-CC-PVTZ-JKFIT

    Orbital Energies [Eh]
    ---------------------

    Doubly Occupied:

       1A    -20.514893     2A    -15.582877     3A    -11.349167
       4A    -11.269777     5A    -11.254384     6A    -11.250708
       7A    -11.249543     8A    -11.247755     9A    -11.245483
      10A    -11.245386    11A    -11.243271    12A    -11.231613
      13A    -11.229500    14A    -11.226993    15A     -1.370231
      16A     -1.247369    17A     -1.160927    18A     -1.081418
      19A     -1.041327    20A     -1.024457    21A     -1.021972
      22A     -0.924079    23A     -0.870091    24A     -0.848490
      25A     -0.835934    26A     -0.790437    27A     -0.749812
      28A     -0.721088    29A     -0.682299    30A     -0.655360
      31A     -0.637601    32A     -0.631040    33A     -0.625341
      34A     -0.609776    35A     -0.600807    36A     -0.593461
      37A     -0.589680    38A     -0.571998    39A     -0.548137
      40A     -0.533695    41A     -0.512170    42A     -0.503312
      43A     -0.499268    44A     -0.493825    45A     -0.475702
      46A     -0.471105    47A     -0.464293    48A     -0.423102
      49A     -0.365654    50A     -0.344909    51A     -0.342045

  @DF-RHF Final Energy:  -592.67035947460181

   => Energetics <=

    Nuclear Repulsion Energy =            876.5990869059182842
    One-Electron Energy =               -2544.5317683824778214
    Two-Electron Energy =                1075.2623220019577275
    Total Energy =                       -592.6703594746018098
  Basis Set: (AUG-CC-PVTZ AUX)
    Blend: AUG-CC-PVTZ-RI
    Molecular point group: c1

    Geometry (in Angstrom), charge = 0, multiplicity = 1:

       Center              X                  Y                   Z               Mass
    ------------   -----------------  -----------------  -----------------  -----------------
         O           -0.031748881806     2.315371540016    -0.402875447039    15.994914619570
         N            1.151663118194     0.418625540016     0.120645552961    14.003074004430
         C            3.603751118194    -1.078152459984     0.170520552961    12.000000000000
         C            3.453671118194     0.201595540016    -0.651857447039    12.000000000000
         C            2.247465118194    -1.754421459984     0.371516552961    12.000000000000
         C            2.368344818194     1.200290740016    -0.091246447039    12.000000000000
         C            1.245276118194    -0.770911459984     0.965955552961    12.000000000000
         C           -0.015532881806     1.114113540016    -0.105336447039    12.000000000000
         C           -1.294108881806     0.335625540016    -0.052825447039    12.000000000000
         C           -2.396707881806     0.919249540016     0.582322552961    12.000000000000
         C           -1.443166881806    -0.885936459984    -0.723616447039    12.000000000000
         C           -3.627544881806     0.264064540016     0.585487552961    12.000000000000
         C           -2.681404881806    -1.529789459984    -0.733049447039    12.000000000000
         C           -3.772543881806    -0.961133459984    -0.071531447039    12.000000000000
         H            4.308146118194    -1.765620459984    -0.311427447039     1.007825032230
         H            4.027249118194    -0.827824459984     1.152923552961     1.007825032230
         H            4.414080118194     0.725075540016    -0.730854447039     1.007825032230
         H            3.133271118194    -0.047475459984    -1.670707447039     1.007825032230
         H            1.862782118194    -2.113278459984    -0.591187447039     1.007825032230
         H            2.342069118194    -2.624588459984     1.032489552961     1.007825032230
         H            2.762540118194     1.487621540016     0.952634552961     1.007825032230
         H            2.228456118194     2.011159540016    -0.651084447039     1.007825032230
         H            0.258057118194    -1.219825459984     1.073655552961     1.007825032230
         H            1.583461118194    -0.466092459984     1.970305552961     1.007825032230
         H           -2.276385881806     1.888071540016     1.060529552961     1.007825032230
         H           -0.595578881806    -1.315535459984    -1.253957447039     1.007825032230
         H           -4.478874881806     0.714130540016     1.090652552961     1.007825032230
         H           -2.797120881806    -2.471985459984    -1.263752447039     1.007825032230
         H           -4.735320881806    -1.466552459984    -0.075709447039     1.007825032230

  Basis Set: AUG-CC-PVTZ
    Blend: AUG-CC-PVTZ
  Basis Set: (AUG-CC-PVTZ AUX)
    Blend: AUG-CC-PVTZ-JKFIT
	 Reference Energy          =    -592.6703594746018098 [Eh]
	 Singles Energy            =      -0.0000000000000000 [Eh]
	 Same-Spin Energy          =      -0.6431938652828951 [Eh]
	 Opposite-Spin Energy      =      -2.0533506683543572 [Eh]
	 Correlation Energy        =      -2.6965445336372524 [Eh]
	 Total Energy              =    -595.3669040082390893 [Eh]

	 ================> DF-SCS-MP2 Energies <==================
	-----------------------------------------------------------
	 SCS Same-Spin Scale       =       0.3333333333333333 [-]
	 SCS Opposite-Spin Scale   =       1.2000000000000000 [-]
	 SCS Same-Spin Energy      =      -0.2143979550942984 [Eh]
	 SCS Opposite-Spin Energy  =      -2.4640208020252286 [Eh]
	 SCS Correlation Energy    =      -2.6784187571195268 [Eh]
	 SCS Total Energy          =    -595.3487782317213259 [Eh]
	-----------------------------------------------------------

  Dipole Moment: [D]
     X:     1.0158      Y:    -3.4344      Z:     1.0928     Total:     3.7445

*** Psi4 exiting successfully. Buy a developer a beer!
