                               Psi4 1.3.2 release

  ==> Input File <==

--------------------------------------------------------------------------
#psi4
#
memory 32 gb

molecule  {
0 1
  O       -0.0931590     2.3556990    -0.4150330
  N        1.0902530     0.4589530     0.1084880
  C        3.5423410    -1.0378250     0.1583630
  C        3.3922610     0.2419230    -0.6640150
  C        2.1860550    -1.7140940     0.3593590
  C        2.3430703     1.1948056    -0.0502037
  C        1.1838660    -0.7305840     0.9537980
  C       -0.0769430     1.1544410    -0.1174940
  C       -1.3555190     0.3759530    -0.0649830
  C       -2.4581180     0.9595770     0.5701650
  C       -1.5045770    -0.8456090    -0.7357740
  C       -3.6889550     0.3043920     0.5733300
  C       -2.7428150    -1.4894620    -0.7452070
  C       -3.8339540    -0.9208060    -0.0836890
  H        4.2467360    -1.7252930    -0.3235850
  H        3.9658390    -0.7874970     1.1407660
  H        4.3526700     0.7654030    -0.7430120
  H        3.0718610    -0.0071480    -1.6828650
  H        1.8013720    -2.0729510    -0.6033450
  H        2.2806590    -2.5842610     1.0203320
  H        2.7011300     1.5279490     0.9404770
  H        2.1670460     2.0514870    -0.6632420
  H        0.1966470    -1.1794980     1.0614980
  H        1.5220510    -0.4257650     1.9581480
  H       -2.3377960     1.9283990     1.0483720
  H       -0.6569890    -1.2752080    -1.2661150
  H       -4.5402850     0.7544580     1.0784950
  H       -2.8585310    -2.4316580    -1.2759100
  H       -4.7967310    -1.4262250    -0.0878670
units angstrom
no_reorient  #important for SAPT in psi4, default
symmetry c1  #important for SAPT in psi4, default
}

set PROPERTIES_ORIGIN ["COM"]
properties('MP2/aug-cc-pvtz', properties = ['dipole'])
--------------------------------------------------------------------------

    Molecular point group: c1
  Charge       = 0
  Multiplicity = 1
  Basis Set: AUG-CC-PVTZ
    Blend: AUG-CC-PVTZ
  Basis Set: (AUG-CC-PVTZ AUX)
    Blend: AUG-CC-PVTZ-JKFIT

    Orbital Energies [Eh]
    ---------------------

    Doubly Occupied:

       1A    -20.514715     2A    -15.581866     3A    -11.349941
       4A    -11.267718     5A    -11.252954     6A    -11.250947
       7A    -11.249767     8A    -11.247809     9A    -11.245612
      10A    -11.245434    11A    -11.243336    12A    -11.231002
      13A    -11.228132    14A    -11.225553    15A     -1.369339
      16A     -1.247769    17A     -1.161026    18A     -1.082722
      19A     -1.040697    20A     -1.025013    21A     -1.022468
      22A     -0.924424    23A     -0.868023    24A     -0.846591
      25A     -0.835724    26A     -0.792514    27A     -0.748148
      28A     -0.720122    29A     -0.681212    30A     -0.652000
      31A     -0.638480    32A     -0.630765    33A     -0.625899
      34A     -0.610644    35A     -0.600826    36A     -0.593677
      37A     -0.588896    38A     -0.563019    39A     -0.549090
      40A     -0.534264    41A     -0.512683    42A     -0.503773
      43A     -0.501390    44A     -0.496063    45A     -0.476859
      46A     -0.469387    47A     -0.463182    48A     -0.422771
      49A     -0.368871    50A     -0.344905    51A     -0.342208

  @DF-RHF Final Energy:  -592.68250781575875

   => Energetics <=

    Nuclear Repulsion Energy =            876.8556834285728883
    One-Electron Energy =               -2545.0959201012406083
    Two-Electron Energy =                1075.5577288569090797
    Total Energy =                       -592.6825078157587541
  Basis Set: (AUG-CC-PVTZ AUX)
    Blend: AUG-CC-PVTZ-RI
    Molecular point group: c1

    Geometry (in Angstrom), charge = 0, multiplicity = 1:

       Center              X                  Y                   Z               Mass
    ------------   -----------------  -----------------  -----------------  -----------------
         O           -0.034041806033     2.318278502137    -0.406251183342    15.994914619570
         N            1.149370193967     0.421532502137     0.117269816658    14.003074004430
         C            3.601458193967    -1.075245497863     0.167144816658    12.000000000000
         C            3.451378193967     0.204502502137    -0.655233183342    12.000000000000
         C            2.245172193967    -1.751514497863     0.368140816658    12.000000000000
         C            2.402187493967     1.157385102137    -0.041421883342    12.000000000000
         C            1.242983193967    -0.768004497863     0.962579816658    12.000000000000
         C           -0.017825806033     1.117020502137    -0.108712183342    12.000000000000
         C           -1.296401806033     0.338532502137    -0.056201183342    12.000000000000
         C           -2.399000806033     0.922156502137     0.578946816658    12.000000000000
         C           -1.445459806033    -0.883029497863    -0.726992183342    12.000000000000
         C           -3.629837806033     0.266971502137     0.582111816658    12.000000000000
         C           -2.683697806033    -1.526882497863    -0.736425183342    12.000000000000
         C           -3.774836806033    -0.958226497863    -0.074907183342    12.000000000000
         H            4.305853193967    -1.762713497863    -0.314803183342     1.007825032230
         H            4.024956193967    -0.824917497863     1.149547816658     1.007825032230
         H            4.411787193967     0.727982502137    -0.734230183342     1.007825032230
         H            3.130978193967    -0.044568497863    -1.674083183342     1.007825032230
         H            1.860489193967    -2.110371497863    -0.594563183342     1.007825032230
         H            2.339776193967    -2.621681497863     1.029113816658     1.007825032230
         H            2.760247193967     1.490528502137     0.949258816658     1.007825032230
         H            2.226163193967     2.014066502137    -0.654460183342     1.007825032230
         H            0.255764193967    -1.216918497863     1.070279816658     1.007825032230
         H            1.581168193967    -0.463185497863     1.966929816658     1.007825032230
         H           -2.278678806033     1.890978502137     1.057153816658     1.007825032230
         H           -0.597871806033    -1.312628497863    -1.257333183342     1.007825032230
         H           -4.481167806033     0.717037502137     1.087276816658     1.007825032230
         H           -2.799413806033    -2.469078497863    -1.267128183342     1.007825032230
         H           -4.737613806033    -1.463645497863    -0.079085183342     1.007825032230

  Basis Set: AUG-CC-PVTZ
    Blend: AUG-CC-PVTZ
  Basis Set: (AUG-CC-PVTZ AUX)
    Blend: AUG-CC-PVTZ-JKFIT
	 Reference Energy          =    -592.6825078157587541 [Eh]
	 Singles Energy            =      -0.0000000000000000 [Eh]
	 Same-Spin Energy          =      -0.6432946230161110 [Eh]
	 Opposite-Spin Energy      =      -2.0531416852550248 [Eh]
	 Correlation Energy        =      -2.6964363082711360 [Eh]
	 Total Energy              =    -595.3789441240298856 [Eh]

	 ================> DF-SCS-MP2 Energies <==================
	-----------------------------------------------------------
	 SCS Same-Spin Scale       =       0.3333333333333333 [-]
	 SCS Opposite-Spin Scale   =       1.2000000000000000 [-]
	 SCS Same-Spin Energy      =      -0.2144315410053703 [Eh]
	 SCS Opposite-Spin Energy  =      -2.4637700223060297 [Eh]
	 SCS Correlation Energy    =      -2.6782015633113998 [Eh]
	 SCS Total Energy          =    -595.3607093790701583 [Eh]
	-----------------------------------------------------------

  Dipole Moment: [D]
     X:     1.0286      Y:    -3.3928      Z:     1.1270     Total:     3.7201

*** Psi4 exiting successfully. Buy a developer a beer!
