                               Psi4 1.3.2 release

  ==> Input File <==

--------------------------------------------------------------------------
#psi4
#
memory 32 gb

molecule  {
0 1
  O       -0.0931590     2.3556990    -0.4150330
  N        1.0902530     0.4589530     0.1084880
  C        3.5423410    -1.0378250     0.1583630
  C        3.3922610     0.2419230    -0.6640150
  C        2.1860550    -1.7140940     0.3593590
  C        2.3559930     1.1736850    -0.0440690
  C        1.1838660    -0.7305840     0.9537980
  C       -0.0769430     1.1544410    -0.1174940
  C       -1.5262404     0.2720057    -0.0579715
  C       -2.4581180     0.9595770     0.5701650
  C       -1.5045770    -0.8456090    -0.7357740
  C       -3.6889550     0.3043920     0.5733300
  C       -2.7428150    -1.4894620    -0.7452070
  C       -3.8339540    -0.9208060    -0.0836890
  H        4.2467360    -1.7252930    -0.3235850
  H        3.9658390    -0.7874970     1.1407660
  H        4.3526700     0.7654030    -0.7430120
  H        3.0718610    -0.0071480    -1.6828650
  H        1.8013720    -2.0729510    -0.6033450
  H        2.2806590    -2.5842610     1.0203320
  H        2.7011300     1.5279490     0.9404770
  H        2.1670460     2.0514870    -0.6632420
  H        0.1966470    -1.1794980     1.0614980
  H        1.5220510    -0.4257650     1.9581480
  H       -2.3377960     1.9283990     1.0483720
  H       -0.6569890    -1.2752080    -1.2661150
  H       -4.5402850     0.7544580     1.0784950
  H       -2.8585310    -2.4316580    -1.2759100
  H       -4.7967310    -1.4262250    -0.0878670
units angstrom
no_reorient  #important for SAPT in psi4, default
symmetry c1  #important for SAPT in psi4, default
}

set PROPERTIES_ORIGIN ["COM"]
properties('MP2/aug-cc-pvtz', properties = ['dipole'])
--------------------------------------------------------------------------

    Molecular point group: c1
  Charge       = 0
  Multiplicity = 1
  Basis Set: AUG-CC-PVTZ
    Blend: AUG-CC-PVTZ
  Basis Set: (AUG-CC-PVTZ AUX)
    Blend: AUG-CC-PVTZ-JKFIT

    Orbital Energies [Eh]
    ---------------------

    Doubly Occupied:

       1A    -20.515013     2A    -15.580360     3A    -11.350789
       4A    -11.266823     5A    -11.252432     6A    -11.246629
       7A    -11.246226     8A    -11.244304     9A    -11.241246
      10A    -11.237100    11A    -11.233997    12A    -11.230761
      13A    -11.227628    14A    -11.224509    15A     -1.363162
      16A     -1.245282    17A     -1.182481    18A     -1.081383
      19A     -1.038673    20A     -1.034106    21A     -1.024905
      22A     -0.917991    23A     -0.863250    24A     -0.847089
      25A     -0.829893    26A     -0.794757    27A     -0.745349
      28A     -0.720111    29A     -0.667574    30A     -0.649722
      31A     -0.644013    32A     -0.630650    33A     -0.625941
      34A     -0.618795    35A     -0.600724    36A     -0.592156
      37A     -0.586787    38A     -0.559454    39A     -0.550631
      40A     -0.534356    41A     -0.518895    42A     -0.511714
      43A     -0.503589    44A     -0.492619    45A     -0.477916
      46A     -0.468137    47A     -0.460019    48A     -0.394741
      49A     -0.367996    50A     -0.352460    51A     -0.347414

  @DF-RHF Final Energy:  -592.64324027071393

   => Energetics <=

    Nuclear Repulsion Energy =            876.8365178494872225
    One-Electron Energy =               -2545.0744111866074491
    Two-Electron Energy =                1075.5946530664061811
    Total Energy =                       -592.6432402707139317
  Basis Set: (AUG-CC-PVTZ AUX)
    Blend: AUG-CC-PVTZ-RI
    Molecular point group: c1

    Geometry (in Angstrom), charge = 0, multiplicity = 1:

       Center              X                  Y                   Z               Mass
    ------------   -----------------  -----------------  -----------------  -----------------
         O           -0.024028952720     2.326214477129    -0.407085353536    15.994914619570
         N            1.159383047280     0.429468477129     0.116435646464    14.003074004430
         C            3.611471047280    -1.067309522871     0.166310646464    12.000000000000
         C            3.461391047280     0.212438477129    -0.656067353536    12.000000000000
         C            2.255185047280    -1.743578522871     0.367306646464    12.000000000000
         C            2.425123047280     1.144200477129    -0.036121353536    12.000000000000
         C            1.252996047280    -0.760068522871     0.961745646464    12.000000000000
         C           -0.007812952720     1.124956477129    -0.109546353536    12.000000000000
         C           -1.457110352720     0.242521177129    -0.050023853536    12.000000000000
         C           -2.388987952720     0.930092477129     0.578112646464    12.000000000000
         C           -1.435446952720    -0.875093522871    -0.727826353536    12.000000000000
         C           -3.619824952720     0.274907477129     0.581277646464    12.000000000000
         C           -2.673684952720    -1.518946522871    -0.737259353536    12.000000000000
         C           -3.764823952720    -0.950290522871    -0.075741353536    12.000000000000
         H            4.315866047280    -1.754777522871    -0.315637353536     1.007825032230
         H            4.034969047280    -0.816981522871     1.148713646464     1.007825032230
         H            4.421800047280     0.735918477129    -0.735064353536     1.007825032230
         H            3.140991047280    -0.036632522871    -1.674917353536     1.007825032230
         H            1.870502047280    -2.102435522871    -0.595397353536     1.007825032230
         H            2.349789047280    -2.613745522871     1.028279646464     1.007825032230
         H            2.770260047280     1.498464477129     0.948424646464     1.007825032230
         H            2.236176047280     2.022002477129    -0.655294353536     1.007825032230
         H            0.265777047280    -1.208982522871     1.069445646464     1.007825032230
         H            1.591181047280    -0.455249522871     1.966095646464     1.007825032230
         H           -2.268665952720     1.898914477129     1.056319646464     1.007825032230
         H           -0.587858952720    -1.304692522871    -1.258167353536     1.007825032230
         H           -4.471154952720     0.724973477129     1.086442646464     1.007825032230
         H           -2.789400952720    -2.461142522871    -1.267962353536     1.007825032230
         H           -4.727600952720    -1.455709522871    -0.079919353536     1.007825032230

  Basis Set: AUG-CC-PVTZ
    Blend: AUG-CC-PVTZ
  Basis Set: (AUG-CC-PVTZ AUX)
    Blend: AUG-CC-PVTZ-JKFIT
	 Reference Energy          =    -592.6432402707139317 [Eh]
	 Singles Energy            =      -0.0000000000000000 [Eh]
	 Same-Spin Energy          =      -0.6438746488354745 [Eh]
	 Opposite-Spin Energy      =      -2.0538263661030771 [Eh]
	 Correlation Energy        =      -2.6977010149385516 [Eh]
	 Total Energy              =    -595.3409412856524341 [Eh]

	 ================> DF-SCS-MP2 Energies <==================
	-----------------------------------------------------------
	 SCS Same-Spin Scale       =       0.3333333333333333 [-]
	 SCS Opposite-Spin Scale   =       1.2000000000000000 [-]
	 SCS Same-Spin Energy      =      -0.2146248829451582 [Eh]
	 SCS Opposite-Spin Energy  =      -2.4645916393236926 [Eh]
	 SCS Correlation Energy    =      -2.6792165222688507 [Eh]
	 SCS Total Energy          =    -595.3224567929827344 [Eh]
	-----------------------------------------------------------

  Dipole Moment: [D]
     X:     1.1437      Y:    -3.2872      Z:     1.1156     Total:     3.6549

*** Psi4 exiting successfully. Buy a developer a beer!
