                               Psi4 1.3.2 release

  ==> Input File <==

--------------------------------------------------------------------------
#psi4
#
memory 32 gb

molecule  {
0 1
  O       -0.1147330     2.3550079    -0.4158632
  N        1.0902530     0.4589530     0.1084880
  C        3.5423410    -1.0378250     0.1583630
  C        3.3922610     0.2419230    -0.6640150
  C        2.1860550    -1.7140940     0.3593590
  C        2.3559930     1.1736850    -0.0440690
  C        1.1838660    -0.7305840     0.9537980
  C       -0.0769430     1.1544410    -0.1174940
  C       -1.3555190     0.3759530    -0.0649830
  C       -2.4581180     0.9595770     0.5701650
  C       -1.5045770    -0.8456090    -0.7357740
  C       -3.6889550     0.3043920     0.5733300
  C       -2.7428150    -1.4894620    -0.7452070
  C       -3.8339540    -0.9208060    -0.0836890
  H        4.2467360    -1.7252930    -0.3235850
  H        3.9658390    -0.7874970     1.1407660
  H        4.3526700     0.7654030    -0.7430120
  H        3.0718610    -0.0071480    -1.6828650
  H        1.8013720    -2.0729510    -0.6033450
  H        2.2806590    -2.5842610     1.0203320
  H        2.7011300     1.5279490     0.9404770
  H        2.1670460     2.0514870    -0.6632420
  H        0.1966470    -1.1794980     1.0614980
  H        1.5220510    -0.4257650     1.9581480
  H       -2.3377960     1.9283990     1.0483720
  H       -0.6569890    -1.2752080    -1.2661150
  H       -4.5402850     0.7544580     1.0784950
  H       -2.8585310    -2.4316580    -1.2759100
  H       -4.7967310    -1.4262250    -0.0878670
units angstrom
no_reorient  #important for SAPT in psi4, default
symmetry c1  #important for SAPT in psi4, default
}

set PROPERTIES_ORIGIN ["COM"]
properties('MP2/aug-cc-pvtz', properties = ['dipole'])
--------------------------------------------------------------------------

    Molecular point group: c1
  Charge       = 0
  Multiplicity = 1
  Basis Set: AUG-CC-PVTZ
    Blend: AUG-CC-PVTZ
  Basis Set: (AUG-CC-PVTZ AUX)
    Blend: AUG-CC-PVTZ-JKFIT

    Orbital Energies [Eh]
    ---------------------

    Doubly Occupied:

       1A    -20.515171     2A    -15.582712     3A    -11.350451
       4A    -11.267703     5A    -11.254199     6A    -11.250282
       7A    -11.249106     8A    -11.247233     9A    -11.244998
      10A    -11.244901    11A    -11.242826    12A    -11.231371
      13A    -11.228330    14A    -11.225563    15A     -1.369043
      16A     -1.249314    17A     -1.160428    18A     -1.084351
      19A     -1.040466    20A     -1.025781    21A     -1.022422
      22A     -0.925029    23A     -0.868089    24A     -0.845909
      25A     -0.835215    26A     -0.793620    27A     -0.748047
      28A     -0.720078    29A     -0.680730    30A     -0.651369
      31A     -0.638678    32A     -0.631012    33A     -0.625705
      34A     -0.610894    35A     -0.600886    36A     -0.593435
      37A     -0.589255    38A     -0.561162    39A     -0.550966
      40A     -0.534233    41A     -0.512826    42A     -0.503779
      43A     -0.501655    44A     -0.495772    45A     -0.479119
      46A     -0.469560    47A     -0.461208    48A     -0.422580
      49A     -0.370488    50A     -0.344402    51A     -0.341406

  @DF-RHF Final Energy:  -592.68279318207203

   => Energetics <=

    Nuclear Repulsion Energy =            876.9903368499806220
    One-Electron Energy =               -2545.3587426218318797
    Two-Electron Energy =                1075.6856125897793390
    Total Energy =                       -592.6827931820719186
  Basis Set: (AUG-CC-PVTZ AUX)
    Blend: AUG-CC-PVTZ-RI
    Molecular point group: c1

    Geometry (in Angstrom), charge = 0, multiplicity = 1:

       Center              X                  Y                   Z               Mass
    ------------   -----------------  -----------------  -----------------  -----------------
         O           -0.054611118292     2.318986026129    -0.407400434214    15.994914619570
         N            1.150374881708     0.422931126129     0.116950765786    14.003074004430
         C            3.602462881708    -1.073846873871     0.166825765786    12.000000000000
         C            3.452382881708     0.205901126129    -0.655552234214    12.000000000000
         C            2.246176881708    -1.750115873871     0.367821765786    12.000000000000
         C            2.416114881708     1.137663126129    -0.035606234214    12.000000000000
         C            1.243987881708    -0.766605873871     0.962260765786    12.000000000000
         C           -0.016821118292     1.118419126129    -0.109031234214    12.000000000000
         C           -1.295397118292     0.339931126129    -0.056520234214    12.000000000000
         C           -2.397996118292     0.923555126129     0.578627765786    12.000000000000
         C           -1.444455118292    -0.881630873871    -0.727311234214    12.000000000000
         C           -3.628833118292     0.268370126129     0.581792765786    12.000000000000
         C           -2.682693118292    -1.525483873871    -0.736744234214    12.000000000000
         C           -3.773832118292    -0.956827873871    -0.075226234214    12.000000000000
         H            4.306857881708    -1.761314873871    -0.315122234214     1.007825032230
         H            4.025960881708    -0.823518873871     1.149228765786     1.007825032230
         H            4.412791881708     0.729381126129    -0.734549234214     1.007825032230
         H            3.131982881708    -0.043169873871    -1.674402234214     1.007825032230
         H            1.861493881708    -2.108972873871    -0.594882234214     1.007825032230
         H            2.340780881708    -2.620282873871     1.028794765786     1.007825032230
         H            2.761251881708     1.491927126129     0.948939765786     1.007825032230
         H            2.227167881708     2.015465126129    -0.654779234214     1.007825032230
         H            0.256768881708    -1.215519873871     1.069960765786     1.007825032230
         H            1.582172881708    -0.461786873871     1.966610765786     1.007825032230
         H           -2.277674118292     1.892377126129     1.056834765786     1.007825032230
         H           -0.596867118292    -1.311229873871    -1.257652234214     1.007825032230
         H           -4.480163118292     0.718436126129     1.086957765786     1.007825032230
         H           -2.798409118292    -2.467679873871    -1.267447234214     1.007825032230
         H           -4.736609118292    -1.462246873871    -0.079404234214     1.007825032230

  Basis Set: AUG-CC-PVTZ
    Blend: AUG-CC-PVTZ
  Basis Set: (AUG-CC-PVTZ AUX)
    Blend: AUG-CC-PVTZ-JKFIT
	 Reference Energy          =    -592.6827931820720323 [Eh]
	 Singles Energy            =      -0.0000000000000000 [Eh]
	 Same-Spin Energy          =      -0.6434567408929319 [Eh]
	 Opposite-Spin Energy      =      -2.0533269378232268 [Eh]
	 Correlation Energy        =      -2.6967836787161588 [Eh]
	 Total Energy              =    -595.3795768607882337 [Eh]

	 ================> DF-SCS-MP2 Energies <==================
	-----------------------------------------------------------
	 SCS Same-Spin Scale       =       0.3333333333333333 [-]
	 SCS Opposite-Spin Scale   =       1.2000000000000000 [-]
	 SCS Same-Spin Energy      =      -0.2144855802976440 [Eh]
	 SCS Opposite-Spin Energy  =      -2.4639923253878719 [Eh]
	 SCS Correlation Energy    =      -2.6784779056855159 [Eh]
	 SCS Total Energy          =    -595.3612710877575864 [Eh]
	-----------------------------------------------------------

  Dipole Moment: [D]
     X:     1.1161      Y:    -3.3845      Z:     1.1289     Total:     3.7383

*** Psi4 exiting successfully. Buy a developer a beer!
