                               Psi4 1.3.2 release

  ==> Input File <==

--------------------------------------------------------------------------
#psi4
#
memory 32 gb

molecule  {
0 1
  O       -0.0931590     2.3556990    -0.4150330
  N        1.0902530     0.4589530     0.1084880
  C        3.5423410    -1.0378250     0.1583630
  C        3.3922610     0.2419230    -0.6640150
  C        2.1860550    -1.7140940     0.3593590
  C        2.3559930     1.1736850    -0.0440690
  C        1.1838660    -0.7305840     0.9537980
  C       -0.0769430     1.1544410    -0.1174940
  C       -1.4130911     0.3004388    -0.0880220
  C       -2.4581180     0.9595770     0.5701650
  C       -1.5045770    -0.8456090    -0.7357740
  C       -3.6889550     0.3043920     0.5733300
  C       -2.7428150    -1.4894620    -0.7452070
  C       -3.8339540    -0.9208060    -0.0836890
  H        4.2467360    -1.7252930    -0.3235850
  H        3.9658390    -0.7874970     1.1407660
  H        4.3526700     0.7654030    -0.7430120
  H        3.0718610    -0.0071480    -1.6828650
  H        1.8013720    -2.0729510    -0.6033450
  H        2.2806590    -2.5842610     1.0203320
  H        2.7011300     1.5279490     0.9404770
  H        2.1670460     2.0514870    -0.6632420
  H        0.1966470    -1.1794980     1.0614980
  H        1.5220510    -0.4257650     1.9581480
  H       -2.3377960     1.9283990     1.0483720
  H       -0.6569890    -1.2752080    -1.2661150
  H       -4.5402850     0.7544580     1.0784950
  H       -2.8585310    -2.4316580    -1.2759100
  H       -4.7967310    -1.4262250    -0.0878670
units angstrom
no_reorient  #important for SAPT in psi4, default
symmetry c1  #important for SAPT in psi4, default
}

set PROPERTIES_ORIGIN ["COM"]
properties('MP2/aug-cc-pvtz', properties = ['dipole'])
--------------------------------------------------------------------------

    Molecular point group: c1
  Charge       = 0
  Multiplicity = 1
  Basis Set: AUG-CC-PVTZ
    Blend: AUG-CC-PVTZ
  Basis Set: (AUG-CC-PVTZ AUX)
    Blend: AUG-CC-PVTZ-JKFIT

    Orbital Energies [Eh]
    ---------------------

    Doubly Occupied:

       1A    -20.516568     2A    -15.581376     3A    -11.353114
       4A    -11.267220     5A    -11.253111     6A    -11.247825
       7A    -11.245673     8A    -11.244440     9A    -11.243742
      10A    -11.242381    11A    -11.238856    12A    -11.231041
      13A    -11.227953    14A    -11.225036    15A     -1.367264
      16A     -1.247438    17A     -1.169760    18A     -1.082928
      19A     -1.040921    20A     -1.027618    21A     -1.022704
      22A     -0.921711    23A     -0.865327    24A     -0.841067
      25A     -0.837669    26A     -0.794785    27A     -0.746594
      28A     -0.719204    29A     -0.675399    30A     -0.648613
      31A     -0.640721    32A     -0.630466    33A     -0.626647
      34A     -0.614543    35A     -0.598437    36A     -0.596022
      37A     -0.588488    38A     -0.560368    39A     -0.550981
      40A     -0.533707    41A     -0.513018    42A     -0.507474
      43A     -0.504248    44A     -0.495562    45A     -0.478742
      46A     -0.468824    47A     -0.460611    48A     -0.413783
      49A     -0.369571    50A     -0.353198    51A     -0.339833

  @DF-RHF Final Energy:  -592.67276757304535

   => Energetics <=

    Nuclear Repulsion Energy =            877.0114425522956481
    One-Electron Energy =               -2545.4232600842992724
    Two-Electron Energy =                1075.7390499589582760
    Total Energy =                       -592.6727675730453484
  Basis Set: (AUG-CC-PVTZ AUX)
    Blend: AUG-CC-PVTZ-RI
    Molecular point group: c1

    Geometry (in Angstrom), charge = 0, multiplicity = 1:

       Center              X                  Y                   Z               Mass
    ------------   -----------------  -----------------  -----------------  -----------------
         O           -0.031208652828     2.324410302192    -0.405178549181    15.994914619570
         N            1.152203347172     0.427664302192     0.118342450819    14.003074004430
         C            3.604291347172    -1.069113697808     0.168217450819    12.000000000000
         C            3.454211347172     0.210634302192    -0.654160549181    12.000000000000
         C            2.248005347172    -1.745382697808     0.369213450819    12.000000000000
         C            2.417943347172     1.142396302192    -0.034214549181    12.000000000000
         C            1.245816347172    -0.761872697808     0.963652450819    12.000000000000
         C           -0.014992652828     1.123152302192    -0.107639549181    12.000000000000
         C           -1.351140752828     0.269150102192    -0.078167549181    12.000000000000
         C           -2.396167652828     0.928288302192     0.580019450819    12.000000000000
         C           -1.442626652828    -0.876897697808    -0.725919549181    12.000000000000
         C           -3.627004652828     0.273103302192     0.583184450819    12.000000000000
         C           -2.680864652828    -1.520750697808    -0.735352549181    12.000000000000
         C           -3.772003652828    -0.952094697808    -0.073834549181    12.000000000000
         H            4.308686347172    -1.756581697808    -0.313730549181     1.007825032230
         H            4.027789347172    -0.818785697808     1.150620450819     1.007825032230
         H            4.414620347172     0.734114302192    -0.733157549181     1.007825032230
         H            3.133811347172    -0.038436697808    -1.673010549181     1.007825032230
         H            1.863322347172    -2.104239697808    -0.593490549181     1.007825032230
         H            2.342609347172    -2.615549697808     1.030186450819     1.007825032230
         H            2.763080347172     1.496660302192     0.950331450819     1.007825032230
         H            2.228996347172     2.020198302192    -0.653387549181     1.007825032230
         H            0.258597347172    -1.210786697808     1.071352450819     1.007825032230
         H            1.584001347172    -0.457053697808     1.968002450819     1.007825032230
         H           -2.275845652828     1.897110302192     1.058226450819     1.007825032230
         H           -0.595038652828    -1.306496697808    -1.256260549181     1.007825032230
         H           -4.478334652828     0.723169302192     1.088349450819     1.007825032230
         H           -2.796580652828    -2.462946697808    -1.266055549181     1.007825032230
         H           -4.734780652828    -1.457513697808    -0.078012549181     1.007825032230

  Basis Set: AUG-CC-PVTZ
    Blend: AUG-CC-PVTZ
  Basis Set: (AUG-CC-PVTZ AUX)
    Blend: AUG-CC-PVTZ-JKFIT
	 Reference Energy          =    -592.6727675730453484 [Eh]
	 Singles Energy            =      -0.0000000000000000 [Eh]
	 Same-Spin Energy          =      -0.6431182851369698 [Eh]
	 Opposite-Spin Energy      =      -2.0528067857236461 [Eh]
	 Correlation Energy        =      -2.6959250708606159 [Eh]
	 Total Energy              =    -595.3686926439060016 [Eh]

	 ================> DF-SCS-MP2 Energies <==================
	-----------------------------------------------------------
	 SCS Same-Spin Scale       =       0.3333333333333333 [-]
	 SCS Opposite-Spin Scale   =       1.2000000000000000 [-]
	 SCS Same-Spin Energy      =      -0.2143727617123233 [Eh]
	 SCS Opposite-Spin Energy  =      -2.4633681428683754 [Eh]
	 SCS Correlation Energy    =      -2.6777409045806988 [Eh]
	 SCS Total Energy          =    -595.3505084776260219 [Eh]
	-----------------------------------------------------------

  Dipole Moment: [D]
     X:     1.1113      Y:    -3.3269      Z:     1.1152     Total:     3.6807

*** Psi4 exiting successfully. Buy a developer a beer!
