                               Psi4 1.4a3.dev225

  ==> Input File <==

--------------------------------------------------------------------------
#psi4
#
memory 32 gb

molecule  {
0 1
  O       -0.0931590     2.3556990    -0.4150330
  N        1.0902530     0.4589530     0.1084880
  C        3.5423410    -1.0378250     0.1583630
  C        3.3922610     0.2419230    -0.6640150
  C        2.1860550    -1.7140940     0.3593590
  C        2.3559930     1.1736850    -0.0440690
  C        1.1838660    -0.7305840     0.9537980
  C       -0.0769430     1.1544410    -0.1174940
  C       -1.3981993     0.3499662    -0.0632301
  C       -2.4581180     0.9595770     0.5701650
  C       -1.5045770    -0.8456090    -0.7357740
  C       -3.6889550     0.3043920     0.5733300
  C       -2.7428150    -1.4894620    -0.7452070
  C       -3.8339540    -0.9208060    -0.0836890
  H        4.2467360    -1.7252930    -0.3235850
  H        3.9658390    -0.7874970     1.1407660
  H        4.3526700     0.7654030    -0.7430120
  H        3.0718610    -0.0071480    -1.6828650
  H        1.8013720    -2.0729510    -0.6033450
  H        2.2806590    -2.5842610     1.0203320
  H        2.7011300     1.5279490     0.9404770
  H        2.1670460     2.0514870    -0.6632420
  H        0.1966470    -1.1794980     1.0614980
  H        1.5220510    -0.4257650     1.9581480
  H       -2.3377960     1.9283990     1.0483720
  H       -0.6569890    -1.2752080    -1.2661150
  H       -4.5402850     0.7544580     1.0784950
  H       -2.8585310    -2.4316580    -1.2759100
  H       -4.7967310    -1.4262250    -0.0878670
units angstrom
no_reorient  #important for SAPT in psi4, default
symmetry c1  #important for SAPT in psi4, default
}

set PROPERTIES_ORIGIN ["COM"]
properties('MP2/aug-cc-pvtz', properties = ['dipole'])
--------------------------------------------------------------------------

    Molecular point group: c1
  Charge       = 0
  Multiplicity = 1
  Basis Set: AUG-CC-PVTZ
    Blend: AUG-CC-PVTZ
  Basis Set: (AUG-CC-PVTZ AUX)
    Blend: AUG-CC-PVTZ-JKFIT

    Orbital Energies [Eh]
    ---------------------

    Doubly Occupied:

       1A    -20.515310     2A    -15.581797     3A    -11.351972
       4A    -11.267278     5A    -11.253406     6A    -11.249169
       7A    -11.246530     8A    -11.245907     9A    -11.244786
      10A    -11.243419    11A    -11.241545    12A    -11.231066
      13A    -11.227995    14A    -11.225110    15A     -1.367861
      16A     -1.247716    17A     -1.165540    18A     -1.083260
      19A     -1.039216    20A     -1.026494    21A     -1.024440
      22A     -0.922844    23A     -0.866227    24A     -0.842368
      25A     -0.837901    26A     -0.793938    27A     -0.747145
      28A     -0.719640    29A     -0.677287    30A     -0.650160
      31A     -0.639218    32A     -0.630739    33A     -0.626074
      34A     -0.612959    35A     -0.600698    36A     -0.594699
      37A     -0.588688    38A     -0.560508    39A     -0.550648
      40A     -0.533716    41A     -0.509978    42A     -0.507579
      43A     -0.503278    44A     -0.498159    45A     -0.478690
      46A     -0.468965    47A     -0.460718    48A     -0.417983
      49A     -0.369564    50A     -0.345950    51A     -0.344201

  @DF-RHF Final Energy:  -592.68115477724655

   => Energetics <=

    Nuclear Repulsion Energy =            876.9252460518896441
    One-Electron Energy =               -2545.2521151361743250
    Two-Electron Energy =                1075.6457143070381335
    Total Energy =                       -592.6811547772465474
  Basis Set: (AUG-CC-PVTZ AUX)
    Blend: AUG-CC-PVTZ-RI
    Molecular point group: c1

    Geometry (in Angstrom), charge = 0, multiplicity = 1:

       Center              X                  Y                   Z               Mass
    ------------   -----------------  -----------------  -----------------  -----------------
         O           -0.032153587158     2.321267623633    -0.406751677844    15.994914619570
         N            1.151258412842     0.424521623633     0.116769322156    14.003074004430
         C            3.603346412842    -1.072256376367     0.166644322156    12.000000000000
         C            3.453266412842     0.207491623633    -0.655733677844    12.000000000000
         C            2.247060412842    -1.748525376367     0.367640322156    12.000000000000
         C            2.416998412842     1.139253623633    -0.035787677844    12.000000000000
         C            1.244871412842    -0.765015376367     0.962079322156    12.000000000000
         C           -0.015937587158     1.120009623633    -0.109212677844    12.000000000000
         C           -1.337193887158     0.315534823633    -0.054948777844    12.000000000000
         C           -2.397112587158     0.925145623633     0.578446322156    12.000000000000
         C           -1.443571587158    -0.880040376367    -0.727492677844    12.000000000000
         C           -3.627949587158     0.269960623633     0.581611322156    12.000000000000
         C           -2.681809587158    -1.523893376367    -0.736925677844    12.000000000000
         C           -3.772948587158    -0.955237376367    -0.075407677844    12.000000000000
         H            4.307741412842    -1.759724376367    -0.315303677844     1.007825032230
         H            4.026844412842    -0.821928376367     1.149047322156     1.007825032230
         H            4.413675412842     0.730971623633    -0.734730677844     1.007825032230
         H            3.132866412842    -0.041579376367    -1.674583677844     1.007825032230
         H            1.862377412842    -2.107382376367    -0.595063677844     1.007825032230
         H            2.341664412842    -2.618692376367     1.028613322156     1.007825032230
         H            2.762135412842     1.493517623633     0.948758322156     1.007825032230
         H            2.228051412842     2.017055623633    -0.654960677844     1.007825032230
         H            0.257652412842    -1.213929376367     1.069779322156     1.007825032230
         H            1.583056412842    -0.460196376367     1.966429322156     1.007825032230
         H           -2.276790587158     1.893967623633     1.056653322156     1.007825032230
         H           -0.595983587158    -1.309639376367    -1.257833677844     1.007825032230
         H           -4.479279587158     0.720026623633     1.086776322156     1.007825032230
         H           -2.797525587158    -2.466089376367    -1.267628677844     1.007825032230
         H           -4.735725587158    -1.460656376367    -0.079585677844     1.007825032230

  Basis Set: AUG-CC-PVTZ
    Blend: AUG-CC-PVTZ
  Basis Set: (AUG-CC-PVTZ AUX)
    Blend: AUG-CC-PVTZ-JKFIT
	 Reference Energy          =    -592.6811547772465474 [Eh]
	 Singles Energy            =      -0.0000000000000000 [Eh]
	 Same-Spin Energy          =      -0.6431528109852800 [Eh]
	 Opposite-Spin Energy      =      -2.0526876269895826 [Eh]
	 Correlation Energy        =      -2.6958404379748626 [Eh]
	 Total Energy              =    -595.3769952152214273 [Eh]

	 ================> DF-SCS-MP2 Energies <==================
	-----------------------------------------------------------
	 SCS Same-Spin Scale       =       0.3333333333333333 [-]
	 SCS Opposite-Spin Scale   =       1.2000000000000000 [-]
	 SCS Same-Spin Energy      =      -0.2143842703284267 [Eh]
	 SCS Opposite-Spin Energy  =      -2.4632251523874991 [Eh]
	 SCS Correlation Energy    =      -2.6776094227159257 [Eh]
	 SCS Total Energy          =    -595.3587641999624793 [Eh]
	-----------------------------------------------------------

  Dipole Moment: [D]
     X:     1.0796      Y:    -3.3608      Z:     1.1220     Total:     3.7040

*** Psi4 exiting successfully. Buy a developer a beer!
