                               Psi4 1.3.2 release

  ==> Input File <==

--------------------------------------------------------------------------
#psi4
#
memory 32 gb

molecule  {
0 1
  O       -0.0931590     2.3556990    -0.4150330
  N        1.0902530     0.4589530     0.1084880
  C        3.5423410    -1.0378250     0.1583630
  C        3.3922610     0.2419230    -0.6640150
  C        2.1860550    -1.7140940     0.3593590
  C        2.2728151     1.2969202    -0.0801152
  C        1.1838660    -0.7305840     0.9537980
  C       -0.0769430     1.1544410    -0.1174940
  C       -1.3555190     0.3759530    -0.0649830
  C       -2.4581180     0.9595770     0.5701650
  C       -1.5045770    -0.8456090    -0.7357740
  C       -3.6889550     0.3043920     0.5733300
  C       -2.7428150    -1.4894620    -0.7452070
  C       -3.8339540    -0.9208060    -0.0836890
  H        4.2467360    -1.7252930    -0.3235850
  H        3.9658390    -0.7874970     1.1407660
  H        4.3526700     0.7654030    -0.7430120
  H        3.0718610    -0.0071480    -1.6828650
  H        1.8013720    -2.0729510    -0.6033450
  H        2.2806590    -2.5842610     1.0203320
  H        2.7011300     1.5279490     0.9404770
  H        2.1670460     2.0514870    -0.6632420
  H        0.1966470    -1.1794980     1.0614980
  H        1.5220510    -0.4257650     1.9581480
  H       -2.3377960     1.9283990     1.0483720
  H       -0.6569890    -1.2752080    -1.2661150
  H       -4.5402850     0.7544580     1.0784950
  H       -2.8585310    -2.4316580    -1.2759100
  H       -4.7967310    -1.4262250    -0.0878670
units angstrom
no_reorient  #important for SAPT in psi4, default
symmetry c1  #important for SAPT in psi4, default
}

set PROPERTIES_ORIGIN ["COM"]
properties('MP2/aug-cc-pvtz', properties = ['dipole'])
--------------------------------------------------------------------------

    Molecular point group: c1
  Charge       = 0
  Multiplicity = 1
  Basis Set: AUG-CC-PVTZ
    Blend: AUG-CC-PVTZ
  Basis Set: (AUG-CC-PVTZ AUX)
    Blend: AUG-CC-PVTZ-JKFIT

    Orbital Energies [Eh]
    ---------------------

    Doubly Occupied:

       1A    -20.514943     2A    -15.583818     3A    -11.348524
       4A    -11.271042     5A    -11.253537     6A    -11.250535
       7A    -11.249343     8A    -11.247655     9A    -11.245439
      10A    -11.245300    11A    -11.243242    12A    -11.231396
      13A    -11.229266    14A    -11.227784    15A     -1.371046
      16A     -1.247022    17A     -1.160832    18A     -1.079289
      19A     -1.041014    20A     -1.023704    21A     -1.018793
      22A     -0.924107    23A     -0.870423    24A     -0.849373
      25A     -0.835900    26A     -0.788652    27A     -0.752288
      28A     -0.720906    29A     -0.683002    30A     -0.658712
      31A     -0.637588    32A     -0.632400    33A     -0.625254
      34A     -0.611262    35A     -0.600681    36A     -0.593272
      37A     -0.590081    38A     -0.574124    39A     -0.542766
      40A     -0.534071    41A     -0.511379    42A     -0.503253
      43A     -0.499809    44A     -0.496620    45A     -0.476330
      46A     -0.470168    47A     -0.456656    48A     -0.423477
      49A     -0.363600    50A     -0.344897    51A     -0.341757

  @DF-RHF Final Energy:  -592.65577426300376

   => Energetics <=

    Nuclear Repulsion Energy =            876.1657504912346894
    One-Electron Energy =               -2543.6503882992269610
    Two-Electron Energy =                1074.8288635449885078
    Total Energy =                       -592.6557742630038774
  Basis Set: (AUG-CC-PVTZ AUX)
    Blend: AUG-CC-PVTZ-RI
    Molecular point group: c1

    Geometry (in Angstrom), charge = 0, multiplicity = 1:

       Center              X                  Y                   Z               Mass
    ------------   -----------------  -----------------  -----------------  -----------------
         O           -0.029583879497     2.311798990513    -0.404353199000    15.994914619570
         N            1.153828120503     0.415052990513     0.119167801000    14.003074004430
         C            3.605916120503    -1.081725009487     0.169042801000    12.000000000000
         C            3.455836120503     0.198022990513    -0.653335199000    12.000000000000
         C            2.249630120503    -1.757994009487     0.370038801000    12.000000000000
         C            2.336390220503     1.253020190513    -0.069435399000    12.000000000000
         C            1.247441120503    -0.774484009487     0.964477801000    12.000000000000
         C           -0.013367879497     1.110540990513    -0.106814199000    12.000000000000
         C           -1.291943879497     0.332052990513    -0.054303199000    12.000000000000
         C           -2.394542879497     0.915676990513     0.580844801000    12.000000000000
         C           -1.441001879497    -0.889509009487    -0.725094199000    12.000000000000
         C           -3.625379879497     0.260491990513     0.584009801000    12.000000000000
         C           -2.679239879497    -1.533362009487    -0.734527199000    12.000000000000
         C           -3.770378879497    -0.964706009487    -0.073009199000    12.000000000000
         H            4.310311120503    -1.769193009487    -0.312905199000     1.007825032230
         H            4.029414120503    -0.831397009487     1.151445801000     1.007825032230
         H            4.416245120503     0.721502990513    -0.732332199000     1.007825032230
         H            3.135436120503    -0.051048009487    -1.672185199000     1.007825032230
         H            1.864947120503    -2.116851009487    -0.592665199000     1.007825032230
         H            2.344234120503    -2.628161009487     1.031011801000     1.007825032230
         H            2.764705120503     1.484048990513     0.951156801000     1.007825032230
         H            2.230621120503     2.007586990513    -0.652562199000     1.007825032230
         H            0.260222120503    -1.223398009487     1.072177801000     1.007825032230
         H            1.585626120503    -0.469665009487     1.968827801000     1.007825032230
         H           -2.274220879497     1.884498990513     1.059051801000     1.007825032230
         H           -0.593413879497    -1.319108009487    -1.255435199000     1.007825032230
         H           -4.476709879497     0.710557990513     1.089174801000     1.007825032230
         H           -2.794955879497    -2.475558009487    -1.265230199000     1.007825032230
         H           -4.733155879497    -1.470125009487    -0.077187199000     1.007825032230

  Basis Set: AUG-CC-PVTZ
    Blend: AUG-CC-PVTZ
  Basis Set: (AUG-CC-PVTZ AUX)
    Blend: AUG-CC-PVTZ-JKFIT
	 Reference Energy          =    -592.6557742630037637 [Eh]
	 Singles Energy            =      -0.0000000000000000 [Eh]
	 Same-Spin Energy          =      -0.6432333239300422 [Eh]
	 Opposite-Spin Energy      =      -2.0539829869123967 [Eh]
	 Correlation Energy        =      -2.6972163108424390 [Eh]
	 Total Energy              =    -595.3529905738462276 [Eh]

	 ================> DF-SCS-MP2 Energies <==================
	-----------------------------------------------------------
	 SCS Same-Spin Scale       =       0.3333333333333333 [-]
	 SCS Opposite-Spin Scale   =       1.2000000000000000 [-]
	 SCS Same-Spin Energy      =      -0.2144111079766807 [Eh]
	 SCS Opposite-Spin Energy  =      -2.4647795842948761 [Eh]
	 SCS Correlation Energy    =      -2.6791906922715567 [Eh]
	 SCS Total Energy          =    -595.3349649552752680 [Eh]
	-----------------------------------------------------------

  Dipole Moment: [D]
     X:     0.9996      Y:    -3.4127      Z:     1.1486     Total:     3.7370

*** Psi4 exiting successfully. Buy a developer a beer!
