                               Psi4 1.4a3.dev225

  ==> Input File <==

--------------------------------------------------------------------------
#psi4
#
memory 32 gb

molecule  {
0 1
  O       -0.0931590     2.3556990    -0.4150330
  N        1.0902530     0.4589530     0.1084880
  C        3.5423410    -1.0378250     0.1583630
  C        3.3922610     0.2419230    -0.6640150
  C        2.1860550    -1.7140940     0.3593590
  C        2.3559930     1.1736850    -0.0440690
  C        1.1838660    -0.7305840     0.9537980
  C       -0.0772050     1.1738527    -0.1223021
  C       -1.3555190     0.3759530    -0.0649830
  C       -2.4581180     0.9595770     0.5701650
  C       -1.5045770    -0.8456090    -0.7357740
  C       -3.6889550     0.3043920     0.5733300
  C       -2.7428150    -1.4894620    -0.7452070
  C       -3.8339540    -0.9208060    -0.0836890
  H        4.2467360    -1.7252930    -0.3235850
  H        3.9658390    -0.7874970     1.1407660
  H        4.3526700     0.7654030    -0.7430120
  H        3.0718610    -0.0071480    -1.6828650
  H        1.8013720    -2.0729510    -0.6033450
  H        2.2806590    -2.5842610     1.0203320
  H        2.7011300     1.5279490     0.9404770
  H        2.1670460     2.0514870    -0.6632420
  H        0.1966470    -1.1794980     1.0614980
  H        1.5220510    -0.4257650     1.9581480
  H       -2.3377960     1.9283990     1.0483720
  H       -0.6569890    -1.2752080    -1.2661150
  H       -4.5402850     0.7544580     1.0784950
  H       -2.8585310    -2.4316580    -1.2759100
  H       -4.7967310    -1.4262250    -0.0878670
units angstrom
no_reorient  #important for SAPT in psi4, default
symmetry c1  #important for SAPT in psi4, default
}

set PROPERTIES_ORIGIN ["COM"]
properties('MP2/aug-cc-pvtz', properties = ['dipole'])
--------------------------------------------------------------------------

    Molecular point group: c1
  Charge       = 0
  Multiplicity = 1
  Basis Set: AUG-CC-PVTZ
    Blend: AUG-CC-PVTZ
  Basis Set: (AUG-CC-PVTZ AUX)
    Blend: AUG-CC-PVTZ-JKFIT

    Orbital Energies [Eh]
    ---------------------

    Doubly Occupied:

       1A    -20.519054     2A    -15.578928     3A    -11.350342
       4A    -11.266122     5A    -11.252215     6A    -11.250633
       7A    -11.249390     8A    -11.247375     9A    -11.245193
      10A    -11.245089    11A    -11.243043    12A    -11.230151
      13A    -11.227193    14A    -11.224223    15A     -1.381767
      16A     -1.247107    17A     -1.160464    18A     -1.082278
      19A     -1.039286    20A     -1.025034    21A     -1.022225
      22A     -0.922019    23A     -0.866459    24A     -0.844840
      25A     -0.835068    26A     -0.792051    27A     -0.746878
      28A     -0.719295    29A     -0.681506    30A     -0.652077
      31A     -0.638284    32A     -0.629575    33A     -0.626826
      34A     -0.611251    35A     -0.601671    36A     -0.593396
      37A     -0.589298    38A     -0.560618    39A     -0.551202
      40A     -0.536027    41A     -0.514172    42A     -0.503669
      43A     -0.501346    44A     -0.496615    45A     -0.479476
      46A     -0.468494    47A     -0.460037    48A     -0.423425
      49A     -0.369327    50A     -0.344544    51A     -0.342224

  @DF-RHF Final Energy:  -592.68383667792818

   => Energetics <=

    Nuclear Repulsion Energy =            876.9470422524668720
    One-Electron Energy =               -2545.2842003415858017
    Two-Electron Energy =                1075.6533214111907455
    Total Energy =                       -592.6838366779281841
  Basis Set: (AUG-CC-PVTZ AUX)
    Blend: AUG-CC-PVTZ-RI
    Molecular point group: c1

    Geometry (in Angstrom), charge = 0, multiplicity = 1:

       Center              X                  Y                   Z               Mass
    ------------   -----------------  -----------------  -----------------  -----------------
         O           -0.034845169635     2.318386937537    -0.406335360532    15.994914619570
         N            1.148566830365     0.421640937537     0.117185639468    14.003074004430
         C            3.600654830365    -1.075137062463     0.167060639468    12.000000000000
         C            3.450574830365     0.204610937537    -0.655317360532    12.000000000000
         C            2.244368830365    -1.751406062463     0.368056639468    12.000000000000
         C            2.414306830365     1.136372937537    -0.035371360532    12.000000000000
         C            1.242179830365    -0.767896062463     0.962495639468    12.000000000000
         C           -0.018891169635     1.136540637537    -0.113604460532    12.000000000000
         C           -1.297205169635     0.338640937537    -0.056285360532    12.000000000000
         C           -2.399804169635     0.922264937537     0.578862639468    12.000000000000
         C           -1.446263169635    -0.882921062463    -0.727076360532    12.000000000000
         C           -3.630641169635     0.267079937537     0.582027639468    12.000000000000
         C           -2.684501169635    -1.526774062463    -0.736509360532    12.000000000000
         C           -3.775640169635    -0.958118062463    -0.074991360532    12.000000000000
         H            4.305049830365    -1.762605062463    -0.314887360532     1.007825032230
         H            4.024152830365    -0.824809062463     1.149463639468     1.007825032230
         H            4.410983830365     0.728090937537    -0.734314360532     1.007825032230
         H            3.130174830365    -0.044460062463    -1.674167360532     1.007825032230
         H            1.859685830365    -2.110263062463    -0.594647360532     1.007825032230
         H            2.338972830365    -2.621573062463     1.029029639468     1.007825032230
         H            2.759443830365     1.490636937537     0.949174639468     1.007825032230
         H            2.225359830365     2.014174937537    -0.654544360532     1.007825032230
         H            0.254960830365    -1.216810062463     1.070195639468     1.007825032230
         H            1.580364830365    -0.463077062463     1.966845639468     1.007825032230
         H           -2.279482169635     1.891086937537     1.057069639468     1.007825032230
         H           -0.598675169635    -1.312520062463    -1.257417360532     1.007825032230
         H           -4.481971169635     0.717145937537     1.087192639468     1.007825032230
         H           -2.800217169635    -2.468970062463    -1.267212360532     1.007825032230
         H           -4.738417169635    -1.463537062463    -0.079169360532     1.007825032230

  Basis Set: AUG-CC-PVTZ
    Blend: AUG-CC-PVTZ
  Basis Set: (AUG-CC-PVTZ AUX)
    Blend: AUG-CC-PVTZ-JKFIT
	 Reference Energy          =    -592.6838366779281841 [Eh]
	 Singles Energy            =      -0.0000000000000000 [Eh]
	 Same-Spin Energy          =      -0.6430157260502781 [Eh]
	 Opposite-Spin Energy      =      -2.0524266333409722 [Eh]
	 Correlation Energy        =      -2.6954423593912504 [Eh]
	 Total Energy              =    -595.3792790373194066 [Eh]

	 ================> DF-SCS-MP2 Energies <==================
	-----------------------------------------------------------
	 SCS Same-Spin Scale       =       0.3333333333333333 [-]
	 SCS Opposite-Spin Scale   =       1.2000000000000000 [-]
	 SCS Same-Spin Energy      =      -0.2143385753500927 [Eh]
	 SCS Opposite-Spin Energy  =      -2.4629119600091665 [Eh]
	 SCS Correlation Energy    =      -2.6772505353592591 [Eh]
	 SCS Total Energy          =    -595.3610872132874192 [Eh]
	-----------------------------------------------------------

  Dipole Moment: [D]
     X:     0.9701      Y:    -3.2593      Z:     1.0853     Total:     3.5696

*** Psi4 exiting successfully. Buy a developer a beer!
