                               Psi4 1.3.2 release

  ==> Input File <==

--------------------------------------------------------------------------
#psi4
#
memory 32 gb

molecule  {
0 1
  O       -0.0931590     2.3556990    -0.4150330
  N        1.1378976     0.5415303     0.0960963
  C        3.5423410    -1.0378250     0.1583630
  C        3.3922610     0.2419230    -0.6640150
  C        2.1860550    -1.7140940     0.3593590
  C        2.3559930     1.1736850    -0.0440690
  C        1.1838660    -0.7305840     0.9537980
  C       -0.0769430     1.1544410    -0.1174940
  C       -1.3555190     0.3759530    -0.0649830
  C       -2.4581180     0.9595770     0.5701650
  C       -1.5045770    -0.8456090    -0.7357740
  C       -3.6889550     0.3043920     0.5733300
  C       -2.7428150    -1.4894620    -0.7452070
  C       -3.8339540    -0.9208060    -0.0836890
  H        4.2467360    -1.7252930    -0.3235850
  H        3.9658390    -0.7874970     1.1407660
  H        4.3526700     0.7654030    -0.7430120
  H        3.0718610    -0.0071480    -1.6828650
  H        1.8013720    -2.0729510    -0.6033450
  H        2.2806590    -2.5842610     1.0203320
  H        2.7011300     1.5279490     0.9404770
  H        2.1670460     2.0514870    -0.6632420
  H        0.1966470    -1.1794980     1.0614980
  H        1.5220510    -0.4257650     1.9581480
  H       -2.3377960     1.9283990     1.0483720
  H       -0.6569890    -1.2752080    -1.2661150
  H       -4.5402850     0.7544580     1.0784950
  H       -2.8585310    -2.4316580    -1.2759100
  H       -4.7967310    -1.4262250    -0.0878670
units angstrom
no_reorient  #important for SAPT in psi4, default
symmetry c1  #important for SAPT in psi4, default
}

set PROPERTIES_ORIGIN ["COM"]
properties('MP2/aug-cc-pvtz', properties = ['dipole'])
--------------------------------------------------------------------------

    Molecular point group: c1
  Charge       = 0
  Multiplicity = 1
  Basis Set: AUG-CC-PVTZ
    Blend: AUG-CC-PVTZ
  Basis Set: (AUG-CC-PVTZ AUX)
    Blend: AUG-CC-PVTZ-JKFIT

    Orbital Energies [Eh]
    ---------------------

    Doubly Occupied:

       1A    -20.510040     2A    -15.579396     3A    -11.349056
       4A    -11.271567     5A    -11.254710     6A    -11.252118
       7A    -11.249504     8A    -11.247771     9A    -11.247004
      10A    -11.245944    11A    -11.244951    12A    -11.232335
      13A    -11.227644    14A    -11.223344    15A     -1.369470
      16A     -1.247778    17A     -1.163143    18A     -1.082729
      19A     -1.046075    20A     -1.025923    21A     -1.022014
      22A     -0.924131    23A     -0.872018    24A     -0.845043
      25A     -0.836225    26A     -0.795013    27A     -0.745826
      28A     -0.722313    29A     -0.682450    30A     -0.647706
      31A     -0.640396    32A     -0.635496    33A     -0.625376
      34A     -0.612390    35A     -0.602286    36A     -0.596060
      37A     -0.590381    38A     -0.557417    39A     -0.550301
      40A     -0.532428    41A     -0.515339    42A     -0.504803
      43A     -0.502639    44A     -0.495918    45A     -0.478399
      46A     -0.471726    47A     -0.453706    48A     -0.422510
      49A     -0.363234    50A     -0.346514    51A     -0.343883

  @DF-RHF Final Energy:  -592.67347706603471

   => Energetics <=

    Nuclear Repulsion Energy =            876.7564988448909844
    One-Electron Energy =               -2544.8510646094150616
    Two-Electron Energy =                1075.4210886984894842
    Total Energy =                       -592.6734770660345930
  Basis Set: (AUG-CC-PVTZ AUX)
    Blend: AUG-CC-PVTZ-RI
    Molecular point group: c1

    Geometry (in Angstrom), charge = 0, multiplicity = 1:

       Center              X                  Y                   Z               Mass
    ------------   -----------------  -----------------  -----------------  -----------------
         O           -0.038389645584     2.313504226672    -0.405722905311    15.994914619570
         N            1.192666954416     0.499335526672     0.105406394689    14.003074004430
         C            3.597110354416    -1.080019773328     0.167673094689    12.000000000000
         C            3.447030354416     0.199728226672    -0.654704905311    12.000000000000
         C            2.240824354416    -1.756288773328     0.368669094689    12.000000000000
         C            2.410762354416     1.131490226672    -0.034758905311    12.000000000000
         C            1.238635354416    -0.772778773328     0.963108094689    12.000000000000
         C           -0.022173645584     1.112246226672    -0.108183905311    12.000000000000
         C           -1.300749645584     0.333758226672    -0.055672905311    12.000000000000
         C           -2.403348645584     0.917382226672     0.579475094689    12.000000000000
         C           -1.449807645584    -0.887803773328    -0.726463905311    12.000000000000
         C           -3.634185645584     0.262197226672     0.582640094689    12.000000000000
         C           -2.688045645584    -1.531656773328    -0.735896905311    12.000000000000
         C           -3.779184645584    -0.963000773328    -0.074378905311    12.000000000000
         H            4.301505354416    -1.767487773328    -0.314274905311     1.007825032230
         H            4.020608354416    -0.829691773328     1.150076094689     1.007825032230
         H            4.407439354416     0.723208226672    -0.733701905311     1.007825032230
         H            3.126630354416    -0.049342773328    -1.673554905311     1.007825032230
         H            1.856141354416    -2.115145773328    -0.594034905311     1.007825032230
         H            2.335428354416    -2.626455773328     1.029642094689     1.007825032230
         H            2.755899354416     1.485754226672     0.949787094689     1.007825032230
         H            2.221815354416     2.009292226672    -0.653931905311     1.007825032230
         H            0.251416354416    -1.221692773328     1.070808094689     1.007825032230
         H            1.576820354416    -0.467959773328     1.967458094689     1.007825032230
         H           -2.283026645584     1.886204226672     1.057682094689     1.007825032230
         H           -0.602219645584    -1.317402773328    -1.256804905311     1.007825032230
         H           -4.485515645584     0.712263226672     1.087805094689     1.007825032230
         H           -2.803761645584    -2.473852773328    -1.266599905311     1.007825032230
         H           -4.741961645584    -1.468419773328    -0.078556905311     1.007825032230

  Basis Set: AUG-CC-PVTZ
    Blend: AUG-CC-PVTZ
  Basis Set: (AUG-CC-PVTZ AUX)
    Blend: AUG-CC-PVTZ-JKFIT
	 Reference Energy          =    -592.6734770660347067 [Eh]
	 Singles Energy            =      -0.0000000000000000 [Eh]
	 Same-Spin Energy          =      -0.6436825504868947 [Eh]
	 Opposite-Spin Energy      =      -2.0535763491261090 [Eh]
	 Correlation Energy        =      -2.6972588996130038 [Eh]
	 Total Energy              =    -595.3707359656476683 [Eh]

	 ================> DF-SCS-MP2 Energies <==================
	-----------------------------------------------------------
	 SCS Same-Spin Scale       =       0.3333333333333333 [-]
	 SCS Opposite-Spin Scale   =       1.2000000000000000 [-]
	 SCS Same-Spin Energy      =      -0.2145608501622982 [Eh]
	 SCS Opposite-Spin Energy  =      -2.4642916189513309 [Eh]
	 SCS Correlation Energy    =      -2.6788524691136293 [Eh]
	 SCS Total Energy          =    -595.3523295351483284 [Eh]
	-----------------------------------------------------------

  Dipole Moment: [D]
     X:     0.8503      Y:    -3.6061      Z:     1.1563     Total:     3.8812

*** Psi4 exiting successfully. Buy a developer a beer!
