                               Psi4 1.3.2 release

  ==> Input File <==

--------------------------------------------------------------------------
#psi4
#
memory 32 gb

molecule  {
0 1
  O       -0.0931590     2.3556990    -0.4150330
  N        1.0902530     0.4589530     0.1084880
  C        3.5423410    -1.0378250     0.1583630
  C        3.3922610     0.2419230    -0.6640150
  C        2.1860550    -1.7140940     0.3593590
  C        2.3559930     1.1736850    -0.0440690
  C        1.1838660    -0.7305840     0.9537980
  C       -0.0769430     1.1544410    -0.1174940
  C       -1.3418990     0.3951882    -0.0585438
  C       -2.4581180     0.9595770     0.5701650
  C       -1.5045770    -0.8456090    -0.7357740
  C       -3.6889550     0.3043920     0.5733300
  C       -2.7428150    -1.4894620    -0.7452070
  C       -3.8339540    -0.9208060    -0.0836890
  H        4.2467360    -1.7252930    -0.3235850
  H        3.9658390    -0.7874970     1.1407660
  H        4.3526700     0.7654030    -0.7430120
  H        3.0718610    -0.0071480    -1.6828650
  H        1.8013720    -2.0729510    -0.6033450
  H        2.2806590    -2.5842610     1.0203320
  H        2.7011300     1.5279490     0.9404770
  H        2.1670460     2.0514870    -0.6632420
  H        0.1966470    -1.1794980     1.0614980
  H        1.5220510    -0.4257650     1.9581480
  H       -2.3377960     1.9283990     1.0483720
  H       -0.6569890    -1.2752080    -1.2661150
  H       -4.5402850     0.7544580     1.0784950
  H       -2.8585310    -2.4316580    -1.2759100
  H       -4.7967310    -1.4262250    -0.0878670
units angstrom
no_reorient  #important for SAPT in psi4, default
symmetry c1  #important for SAPT in psi4, default
}

set PROPERTIES_ORIGIN ["COM"]
properties('MP2/aug-cc-pvtz', properties = ['dipole'])
--------------------------------------------------------------------------

    Molecular point group: c1
  Charge       = 0
  Multiplicity = 1
  Basis Set: AUG-CC-PVTZ
    Blend: AUG-CC-PVTZ
  Basis Set: (AUG-CC-PVTZ AUX)
    Blend: AUG-CC-PVTZ-JKFIT

    Orbital Energies [Eh]
    ---------------------

    Doubly Occupied:

       1A    -20.514182     2A    -15.581657     3A    -11.349198
       4A    -11.267086     5A    -11.253343     6A    -11.253181
       7A    -11.251171     8A    -11.248685     9A    -11.246370
      10A    -11.245749    11A    -11.243689    12A    -11.230927
      13A    -11.227872    14A    -11.225010    15A     -1.369591
      16A     -1.248171    17A     -1.159391    18A     -1.084103
      19A     -1.041341    20A     -1.026337    21A     -1.021678
      22A     -0.925455    23A     -0.868684    24A     -0.847849
      25A     -0.834570    26A     -0.792853    27A     -0.748164
      28A     -0.720527    29A     -0.682574    30A     -0.652014
      31A     -0.638595    32A     -0.630667    33A     -0.625366
      34A     -0.609838    35A     -0.601615    36A     -0.593029
      37A     -0.588899    38A     -0.560603    39A     -0.550658
      40A     -0.534429    41A     -0.514643    42A     -0.502740
      43A     -0.501140    44A     -0.494437    45A     -0.478560
      46A     -0.468961    47A     -0.460655    48A     -0.423920
      49A     -0.369553    50A     -0.344850    51A     -0.341154

  @DF-RHF Final Energy:  -592.68163012398293

   => Energetics <=

    Nuclear Repulsion Energy =            877.0449910367848361
    One-Electron Energy =               -2545.4617752212661799
    Two-Electron Energy =                1075.7351540604986440
    Total Energy =                       -592.6816301239828135
  Basis Set: (AUG-CC-PVTZ AUX)
    Blend: AUG-CC-PVTZ-RI
    Molecular point group: c1

    Geometry (in Angstrom), charge = 0, multiplicity = 1:

       Center              X                  Y                   Z               Mass
    ------------   -----------------  -----------------  -----------------  -----------------
         O           -0.035726028790     2.318398137050    -0.407049039194    15.994914619570
         N            1.147685971210     0.421652137050     0.116471960806    14.003074004430
         C            3.599773971210    -1.075125862950     0.166346960806    12.000000000000
         C            3.449693971210     0.204622137050    -0.656031039194    12.000000000000
         C            2.243487971210    -1.751394862950     0.367342960806    12.000000000000
         C            2.413425971210     1.136384137050    -0.036085039194    12.000000000000
         C            1.241298971210    -0.767884862950     0.961781960806    12.000000000000
         C           -0.019510028790     1.117140137050    -0.109510039194    12.000000000000
         C           -1.284466028790     0.357887337050    -0.050559839194    12.000000000000
         C           -2.400685028790     0.922276137050     0.578148960806    12.000000000000
         C           -1.447144028790    -0.882909862950    -0.727790039194    12.000000000000
         C           -3.631522028790     0.267091137050     0.581313960806    12.000000000000
         C           -2.685382028790    -1.526762862950    -0.737223039194    12.000000000000
         C           -3.776521028790    -0.958106862950    -0.075705039194    12.000000000000
         H            4.304168971210    -1.762593862950    -0.315601039194     1.007825032230
         H            4.023271971210    -0.824797862950     1.148749960806     1.007825032230
         H            4.410102971210     0.728102137050    -0.735028039194     1.007825032230
         H            3.129293971210    -0.044448862950    -1.674881039194     1.007825032230
         H            1.858804971210    -2.110251862950    -0.595361039194     1.007825032230
         H            2.338091971210    -2.621561862950     1.028315960806     1.007825032230
         H            2.758562971210     1.490648137050     0.948460960806     1.007825032230
         H            2.224478971210     2.014186137050    -0.655258039194     1.007825032230
         H            0.254079971210    -1.216798862950     1.069481960806     1.007825032230
         H            1.579483971210    -0.463065862950     1.966131960806     1.007825032230
         H           -2.280363028790     1.891098137050     1.056355960806     1.007825032230
         H           -0.599556028790    -1.312508862950    -1.258131039194     1.007825032230
         H           -4.482852028790     0.717157137050     1.086478960806     1.007825032230
         H           -2.801098028790    -2.468958862950    -1.267926039194     1.007825032230
         H           -4.739298028790    -1.463525862950    -0.079883039194     1.007825032230

  Basis Set: AUG-CC-PVTZ
    Blend: AUG-CC-PVTZ
  Basis Set: (AUG-CC-PVTZ AUX)
    Blend: AUG-CC-PVTZ-JKFIT
	 Reference Energy          =    -592.6816301239829272 [Eh]
	 Singles Energy            =      -0.0000000000000000 [Eh]
	 Same-Spin Energy          =      -0.6436605988700086 [Eh]
	 Opposite-Spin Energy      =      -2.0537009514721429 [Eh]
	 Correlation Energy        =      -2.6973615503421513 [Eh]
	 Total Energy              =    -595.3789916743251069 [Eh]

	 ================> DF-SCS-MP2 Energies <==================
	-----------------------------------------------------------
	 SCS Same-Spin Scale       =       0.3333333333333333 [-]
	 SCS Opposite-Spin Scale   =       1.2000000000000000 [-]
	 SCS Same-Spin Energy      =      -0.2145535329566695 [Eh]
	 SCS Opposite-Spin Energy  =      -2.4644411417665713 [Eh]
	 SCS Correlation Energy    =      -2.6789946747232407 [Eh]
	 SCS Total Energy          =    -595.3606247987061124 [Eh]
	-----------------------------------------------------------

  Dipole Moment: [D]
     X:     1.0073      Y:    -3.4106      Z:     1.1248     Total:     3.7299

*** Psi4 exiting successfully. Buy a developer a beer!
