                               Psi4 1.3.2 release

  ==> Input File <==

--------------------------------------------------------------------------
#psi4
#
memory 32 gb

molecule  {
0 1
  O       -0.0931590     2.3556990    -0.4150330
  N        1.0902530     0.4589530     0.1084880
  C        3.5423410    -1.0378250     0.1583630
  C        3.3922610     0.2419230    -0.6640150
  C        2.1860550    -1.7140940     0.3593590
  C        2.3559930     1.1736850    -0.0440690
  C        1.1838660    -0.7305840     0.9537980
  C       -0.0657218     1.1346989    -0.1304455
  C       -1.3555190     0.3759530    -0.0649830
  C       -2.4581180     0.9595770     0.5701650
  C       -1.5045770    -0.8456090    -0.7357740
  C       -3.6889550     0.3043920     0.5733300
  C       -2.7428150    -1.4894620    -0.7452070
  C       -3.8339540    -0.9208060    -0.0836890
  H        4.2467360    -1.7252930    -0.3235850
  H        3.9658390    -0.7874970     1.1407660
  H        4.3526700     0.7654030    -0.7430120
  H        3.0718610    -0.0071480    -1.6828650
  H        1.8013720    -2.0729510    -0.6033450
  H        2.2806590    -2.5842610     1.0203320
  H        2.7011300     1.5279490     0.9404770
  H        2.1670460     2.0514870    -0.6632420
  H        0.1966470    -1.1794980     1.0614980
  H        1.5220510    -0.4257650     1.9581480
  H       -2.3377960     1.9283990     1.0483720
  H       -0.6569890    -1.2752080    -1.2661150
  H       -4.5402850     0.7544580     1.0784950
  H       -2.8585310    -2.4316580    -1.2759100
  H       -4.7967310    -1.4262250    -0.0878670
units angstrom
no_reorient  #important for SAPT in psi4, default
symmetry c1  #important for SAPT in psi4, default
}

set PROPERTIES_ORIGIN ["COM"]
properties('MP2/aug-cc-pvtz', properties = ['dipole'])
--------------------------------------------------------------------------

    Molecular point group: c1
  Charge       = 0
  Multiplicity = 1
  Basis Set: AUG-CC-PVTZ
    Blend: AUG-CC-PVTZ
  Basis Set: (AUG-CC-PVTZ AUX)
    Blend: AUG-CC-PVTZ-JKFIT

    Orbital Energies [Eh]
    ---------------------

    Doubly Occupied:

       1A    -20.510214     2A    -15.584901     3A    -11.349776
       4A    -11.269056     5A    -11.254884     6A    -11.250998
       7A    -11.249543     8A    -11.247637     9A    -11.245620
      10A    -11.245164    11A    -11.243242    12A    -11.232227
      13A    -11.228998    14A    -11.226199    15A     -1.359894
      16A     -1.250241    17A     -1.160805    18A     -1.086187
      19A     -1.041374    20A     -1.026284    21A     -1.022891
      22A     -0.928276    23A     -0.869393    24A     -0.846104
      25A     -0.835673    26A     -0.795351    27A     -0.748462
      28A     -0.720995    29A     -0.680339    30A     -0.651564
      31A     -0.639399    32A     -0.631905    33A     -0.624933
      34A     -0.611128    35A     -0.600020    36A     -0.593852
      37A     -0.588924    38A     -0.560709    39A     -0.550748
      40A     -0.532820    41A     -0.512069    42A     -0.503978
      43A     -0.502219    44A     -0.495535    45A     -0.478017
      46A     -0.470023    47A     -0.461915    48A     -0.420250
      49A     -0.370363    50A     -0.344760    51A     -0.341677

  @DF-RHF Final Energy:  -592.68133838454764

   => Energetics <=

    Nuclear Repulsion Energy =            877.1410528982470396
    One-Electron Energy =               -2545.6497125638366015
    Two-Electron Energy =                1075.8273212810420318
    Total Energy =                       -592.6813383845476437
  Basis Set: (AUG-CC-PVTZ AUX)
    Blend: AUG-CC-PVTZ-RI
    Molecular point group: c1

    Geometry (in Angstrom), charge = 0, multiplicity = 1:

       Center              X                  Y                   Z               Mass
    ------------   -----------------  -----------------  -----------------  -----------------
         O           -0.035573816937     2.320871376610    -0.405818634668    15.994914619570
         N            1.147838183063     0.424125376610     0.117702365332    14.003074004430
         C            3.599926183063    -1.072652623390     0.167577365332    12.000000000000
         C            3.449846183063     0.207095376610    -0.654800634668    12.000000000000
         C            2.243640183063    -1.748921623390     0.368573365332    12.000000000000
         C            2.413578183063     1.138857376610    -0.034854634668    12.000000000000
         C            1.241451183063    -0.765411623390     0.963012365332    12.000000000000
         C           -0.008136616937     1.099871276610    -0.121231134668    12.000000000000
         C           -1.297933816937     0.341125376610    -0.055768634668    12.000000000000
         C           -2.400532816937     0.924749376610     0.579379365332    12.000000000000
         C           -1.446991816937    -0.880436623390    -0.726559634668    12.000000000000
         C           -3.631369816937     0.269564376610     0.582544365332    12.000000000000
         C           -2.685229816937    -1.524289623390    -0.735992634668    12.000000000000
         C           -3.776368816937    -0.955633623390    -0.074474634668    12.000000000000
         H            4.304321183063    -1.760120623390    -0.314370634668     1.007825032230
         H            4.023424183063    -0.822324623390     1.149980365332     1.007825032230
         H            4.410255183063     0.730575376610    -0.733797634668     1.007825032230
         H            3.129446183063    -0.041975623390    -1.673650634668     1.007825032230
         H            1.858957183063    -2.107778623390    -0.594130634668     1.007825032230
         H            2.338244183063    -2.619088623390     1.029546365332     1.007825032230
         H            2.758715183063     1.493121376610     0.949691365332     1.007825032230
         H            2.224631183063     2.016659376610    -0.654027634668     1.007825032230
         H            0.254232183063    -1.214325623390     1.070712365332     1.007825032230
         H            1.579636183063    -0.460592623390     1.967362365332     1.007825032230
         H           -2.280210816937     1.893571376610     1.057586365332     1.007825032230
         H           -0.599403816937    -1.310035623390    -1.256900634668     1.007825032230
         H           -4.482699816937     0.719630376610     1.087709365332     1.007825032230
         H           -2.800945816937    -2.466485623390    -1.266695634668     1.007825032230
         H           -4.739145816937    -1.461052623390    -0.078652634668     1.007825032230

  Basis Set: AUG-CC-PVTZ
    Blend: AUG-CC-PVTZ
  Basis Set: (AUG-CC-PVTZ AUX)
    Blend: AUG-CC-PVTZ-JKFIT
	 Reference Energy          =    -592.6813383845476437 [Eh]
	 Singles Energy            =      -0.0000000000000000 [Eh]
	 Same-Spin Energy          =      -0.6437526601553915 [Eh]
	 Opposite-Spin Energy      =      -2.0538493922506351 [Eh]
	 Correlation Energy        =      -2.6976020524060265 [Eh]
	 Total Energy              =    -595.3789404369537124 [Eh]

	 ================> DF-SCS-MP2 Energies <==================
	-----------------------------------------------------------
	 SCS Same-Spin Scale       =       0.3333333333333333 [-]
	 SCS Opposite-Spin Scale   =       1.2000000000000000 [-]
	 SCS Same-Spin Energy      =      -0.2145842200517971 [Eh]
	 SCS Opposite-Spin Energy  =      -2.4646192707007621 [Eh]
	 SCS Correlation Energy    =      -2.6792034907525593 [Eh]
	 SCS Total Energy          =    -595.3605418753002141 [Eh]
	-----------------------------------------------------------

  Dipole Moment: [D]
     X:     1.1633      Y:    -3.5207      Z:     1.1600     Total:     3.8851

*** Psi4 exiting successfully. Buy a developer a beer!
