                               Psi4 1.3.2 release

  ==> Input File <==

--------------------------------------------------------------------------
#psi4
#
memory 32 gb

molecule  {
0 1
  O       -0.0931590     2.3556990    -0.4150330
  N        1.0902530     0.4589530     0.1084880
  C        3.5423410    -1.0378250     0.1583630
  C        3.3922610     0.2419230    -0.6640150
  C        2.1860550    -1.7140940     0.3593590
  C        2.3559930     1.1736850    -0.0440690
  C        1.1838660    -0.7305840     0.9537980
  C       -0.0769430     1.1544410    -0.1174940
  C       -1.4408797     0.3239793    -0.0614772
  C       -2.4581180     0.9595770     0.5701650
  C       -1.5045770    -0.8456090    -0.7357740
  C       -3.6889550     0.3043920     0.5733300
  C       -2.7428150    -1.4894620    -0.7452070
  C       -3.8339540    -0.9208060    -0.0836890
  H        4.2467360    -1.7252930    -0.3235850
  H        3.9658390    -0.7874970     1.1407660
  H        4.3526700     0.7654030    -0.7430120
  H        3.0718610    -0.0071480    -1.6828650
  H        1.8013720    -2.0729510    -0.6033450
  H        2.2806590    -2.5842610     1.0203320
  H        2.7011300     1.5279490     0.9404770
  H        2.1670460     2.0514870    -0.6632420
  H        0.1966470    -1.1794980     1.0614980
  H        1.5220510    -0.4257650     1.9581480
  H       -2.3377960     1.9283990     1.0483720
  H       -0.6569890    -1.2752080    -1.2661150
  H       -4.5402850     0.7544580     1.0784950
  H       -2.8585310    -2.4316580    -1.2759100
  H       -4.7967310    -1.4262250    -0.0878670
units angstrom
no_reorient  #important for SAPT in psi4, default
symmetry c1  #important for SAPT in psi4, default
}

set PROPERTIES_ORIGIN ["COM"]
properties('MP2/aug-cc-pvtz', properties = ['dipole'])
--------------------------------------------------------------------------

    Molecular point group: c1
  Charge       = 0
  Multiplicity = 1
  Basis Set: AUG-CC-PVTZ
    Blend: AUG-CC-PVTZ
  Basis Set: (AUG-CC-PVTZ AUX)
    Blend: AUG-CC-PVTZ-JKFIT

    Orbital Energies [Eh]
    ---------------------

    Doubly Occupied:

       1A    -20.515544     2A    -15.581623     3A    -11.352618
       4A    -11.267267     5A    -11.253280     6A    -11.247788
       7A    -11.245692     8A    -11.244186     9A    -11.243002
      10A    -11.242338    11A    -11.238473    12A    -11.231062
      13A    -11.227975    14A    -11.225042    15A     -1.366473
      16A     -1.247126    17A     -1.170599    18A     -1.082676
      19A     -1.038071    20A     -1.028745    21A     -1.025012
      22A     -0.921172    23A     -0.865068    24A     -0.841970
      25A     -0.836867    26A     -0.794353    27A     -0.746512
      28A     -0.719488    29A     -0.673723    30A     -0.648817
      31A     -0.640575    32A     -0.630778    33A     -0.626251
      34A     -0.615405    35A     -0.600616    36A     -0.594631
      37A     -0.588228    38A     -0.560265    39A     -0.550557
      40A     -0.533531    41A     -0.511814    42A     -0.507832
      43A     -0.505167    44A     -0.497615    45A     -0.478581
      46A     -0.468828    47A     -0.460619    48A     -0.411835
      49A     -0.369294    50A     -0.348007    51A     -0.345212

  @DF-RHF Final Energy:  -592.67361936829582

   => Energetics <=

    Nuclear Repulsion Energy =            876.8651921483723299
    One-Electron Energy =               -2545.1412256138619341
    Two-Electron Energy =                1075.6024140971937868
    Total Energy =                       -592.6736193682957037
  Basis Set: (AUG-CC-PVTZ AUX)
    Blend: AUG-CC-PVTZ-RI
    Molecular point group: c1

    Geometry (in Angstrom), charge = 0, multiplicity = 1:

       Center              X                  Y                   Z               Mass
    ------------   -----------------  -----------------  -----------------  -----------------
         O           -0.029445373564     2.322916579028    -0.406862905190    15.994914619570
         N            1.153966626436     0.426170579028     0.116658094810    14.003074004430
         C            3.606054626436    -1.070607420972     0.166533094810    12.000000000000
         C            3.455974626436     0.209140579028    -0.655844905190    12.000000000000
         C            2.249768626436    -1.746876420972     0.367529094810    12.000000000000
         C            2.419706626436     1.140902579028    -0.035898905190    12.000000000000
         C            1.247579626436    -0.763366420972     0.961968094810    12.000000000000
         C           -0.013229373564     1.121658579028    -0.109323905190    12.000000000000
         C           -1.377166073564     0.291196879028    -0.053307105190    12.000000000000
         C           -2.394404373564     0.926794579028     0.578335094810    12.000000000000
         C           -1.440863373564    -0.878391420972    -0.727603905190    12.000000000000
         C           -3.625241373564     0.271609579028     0.581500094810    12.000000000000
         C           -2.679101373564    -1.522244420972    -0.737036905190    12.000000000000
         C           -3.770240373564    -0.953588420972    -0.075518905190    12.000000000000
         H            4.310449626436    -1.758075420972    -0.315414905190     1.007825032230
         H            4.029552626436    -0.820279420972     1.148936094810     1.007825032230
         H            4.416383626436     0.732620579028    -0.734841905190     1.007825032230
         H            3.135574626436    -0.039930420972    -1.674694905190     1.007825032230
         H            1.865085626436    -2.105733420972    -0.595174905190     1.007825032230
         H            2.344372626436    -2.617043420972     1.028502094810     1.007825032230
         H            2.764843626436     1.495166579028     0.948647094810     1.007825032230
         H            2.230759626436     2.018704579028    -0.655071905190     1.007825032230
         H            0.260360626436    -1.212280420972     1.069668094810     1.007825032230
         H            1.585764626436    -0.458547420972     1.966318094810     1.007825032230
         H           -2.274082373564     1.895616579028     1.056542094810     1.007825032230
         H           -0.593275373564    -1.307990420972    -1.257944905190     1.007825032230
         H           -4.476571373564     0.721675579028     1.086665094810     1.007825032230
         H           -2.794817373564    -2.464440420972    -1.267739905190     1.007825032230
         H           -4.733017373564    -1.459007420972    -0.079696905190     1.007825032230

  Basis Set: AUG-CC-PVTZ
    Blend: AUG-CC-PVTZ
  Basis Set: (AUG-CC-PVTZ AUX)
    Blend: AUG-CC-PVTZ-JKFIT
	 Reference Energy          =    -592.6736193682958174 [Eh]
	 Singles Energy            =      -0.0000000000000000 [Eh]
	 Same-Spin Energy          =      -0.6431252167356765 [Eh]
	 Opposite-Spin Energy      =      -2.0525898937144547 [Eh]
	 Correlation Energy        =      -2.6957151104501311 [Eh]
	 Total Energy              =    -595.3693344787459409 [Eh]

	 ================> DF-SCS-MP2 Energies <==================
	-----------------------------------------------------------
	 SCS Same-Spin Scale       =       0.3333333333333333 [-]
	 SCS Opposite-Spin Scale   =       1.2000000000000000 [-]
	 SCS Same-Spin Energy      =      -0.2143750722452255 [Eh]
	 SCS Opposite-Spin Energy  =      -2.4631078724573454 [Eh]
	 SCS Correlation Energy    =      -2.6774829447025708 [Eh]
	 SCS Total Energy          =    -595.3511023129983641 [Eh]
	-----------------------------------------------------------

  Dipole Moment: [D]
     X:     1.1159      Y:    -3.3314      Z:     1.1203     Total:     3.6876

*** Psi4 exiting successfully. Buy a developer a beer!
