                               Psi4 1.3.2 release

  ==> Input File <==

--------------------------------------------------------------------------
#psi4
#
memory 32 gb

molecule  {
0 1
  O       -0.0931590     2.3556990    -0.4150330
  N        1.0902530     0.4589530     0.1084880
  C        3.5423410    -1.0378250     0.1583630
  C        3.3922610     0.2419230    -0.6640150
  C        2.1860550    -1.7140940     0.3593590
  C        2.3559930     1.1736850    -0.0440690
  C        1.1838660    -0.7305840     0.9537980
  C       -0.0155730     1.0326441    -0.1948252
  C       -1.3555190     0.3759530    -0.0649830
  C       -2.4581180     0.9595770     0.5701650
  C       -1.5045770    -0.8456090    -0.7357740
  C       -3.6889550     0.3043920     0.5733300
  C       -2.7428150    -1.4894620    -0.7452070
  C       -3.8339540    -0.9208060    -0.0836890
  H        4.2467360    -1.7252930    -0.3235850
  H        3.9658390    -0.7874970     1.1407660
  H        4.3526700     0.7654030    -0.7430120
  H        3.0718610    -0.0071480    -1.6828650
  H        1.8013720    -2.0729510    -0.6033450
  H        2.2806590    -2.5842610     1.0203320
  H        2.7011300     1.5279490     0.9404770
  H        2.1670460     2.0514870    -0.6632420
  H        0.1966470    -1.1794980     1.0614980
  H        1.5220510    -0.4257650     1.9581480
  H       -2.3377960     1.9283990     1.0483720
  H       -0.6569890    -1.2752080    -1.2661150
  H       -4.5402850     0.7544580     1.0784950
  H       -2.8585310    -2.4316580    -1.2759100
  H       -4.7967310    -1.4262250    -0.0878670
units angstrom
no_reorient  #important for SAPT in psi4, default
symmetry c1  #important for SAPT in psi4, default
}

set PROPERTIES_ORIGIN ["COM"]
properties('MP2/aug-cc-pvtz', properties = ['dipole'])
--------------------------------------------------------------------------

    Molecular point group: c1
  Charge       = 0
  Multiplicity = 1
  Basis Set: AUG-CC-PVTZ
    Blend: AUG-CC-PVTZ
  Basis Set: (AUG-CC-PVTZ AUX)
    Blend: AUG-CC-PVTZ-JKFIT

    Orbital Energies [Eh]
    ---------------------

    Doubly Occupied:

       1A    -20.487453     2A    -15.600917     3A    -11.346074
       4A    -11.277778     5A    -11.262470     6A    -11.252311
       7A    -11.247566     8A    -11.246580     9A    -11.245490
      10A    -11.243768    11A    -11.242718    12A    -11.238409
      13A    -11.234349    14A    -11.232011    15A     -1.339080
      16A     -1.238192    17A     -1.159341    18A     -1.097242
      19A     -1.046614    20A     -1.028769    21A     -1.021687
      22A     -0.946087    23A     -0.877478    24A     -0.847568
      25A     -0.834517    26A     -0.805355    27A     -0.752561
      28A     -0.724748    29A     -0.678091    30A     -0.656840
      31A     -0.644809    32A     -0.638056    33A     -0.623414
      34A     -0.613622    35A     -0.599187    36A     -0.594304
      37A     -0.589237    38A     -0.560792    39A     -0.543033
      40A     -0.529544    41A     -0.512835    42A     -0.504630
      43A     -0.498241    44A     -0.496067    45A     -0.477537
      46A     -0.470136    47A     -0.465545    48A     -0.402672
      49A     -0.367976    50A     -0.343962    51A     -0.338067

  @DF-RHF Final Energy:  -592.65405710255345

   => Energetics <=

    Nuclear Repulsion Energy =            877.6980314686268230
    One-Electron Energy =               -2546.6527191600112019
    Two-Electron Energy =                1076.3006305888309271
    Total Energy =                       -592.6540571025534518
  Basis Set: (AUG-CC-PVTZ AUX)
    Blend: AUG-CC-PVTZ-RI
    Molecular point group: c1

    Geometry (in Angstrom), charge = 0, multiplicity = 1:

       Center              X                  Y                   Z               Mass
    ------------   -----------------  -----------------  -----------------  -----------------
         O           -0.038755925397     2.327347093725    -0.401733528185    15.994914619570
         N            1.144656074603     0.430601093725     0.121787471815    14.003074004430
         C            3.596744074603    -1.066176906275     0.171662471815    12.000000000000
         C            3.446664074603     0.213571093725    -0.650715528185    12.000000000000
         C            2.240458074603    -1.742445906275     0.372658471815    12.000000000000
         C            2.410396074603     1.145333093725    -0.030769528185    12.000000000000
         C            1.238269074603    -0.758935906275     0.967097471815    12.000000000000
         C            0.038830074603     1.004292193725    -0.181525728185    12.000000000000
         C           -1.301115925397     0.347601093725    -0.051683528185    12.000000000000
         C           -2.403714925397     0.931225093725     0.583464471815    12.000000000000
         C           -1.450173925397    -0.873960906275    -0.722474528185    12.000000000000
         C           -3.634551925397     0.276040093725     0.586629471815    12.000000000000
         C           -2.688411925397    -1.517813906275    -0.731907528185    12.000000000000
         C           -3.779550925397    -0.949157906275    -0.070389528185    12.000000000000
         H            4.301139074603    -1.753644906275    -0.310285528185     1.007825032230
         H            4.020242074603    -0.815848906275     1.154065471815     1.007825032230
         H            4.407073074603     0.737051093725    -0.729712528185     1.007825032230
         H            3.126264074603    -0.035499906275    -1.669565528185     1.007825032230
         H            1.855775074603    -2.101302906275    -0.590045528185     1.007825032230
         H            2.335062074603    -2.612612906275     1.033631471815     1.007825032230
         H            2.755533074603     1.499597093725     0.953776471815     1.007825032230
         H            2.221449074603     2.023135093725    -0.649942528185     1.007825032230
         H            0.251050074603    -1.207849906275     1.074797471815     1.007825032230
         H            1.576454074603    -0.454116906275     1.971447471815     1.007825032230
         H           -2.283392925397     1.900047093725     1.061671471815     1.007825032230
         H           -0.602585925397    -1.303559906275    -1.252815528185     1.007825032230
         H           -4.485881925397     0.726106093725     1.091794471815     1.007825032230
         H           -2.804127925397    -2.460009906275    -1.262610528185     1.007825032230
         H           -4.742327925397    -1.454576906275    -0.074567528185     1.007825032230

  Basis Set: AUG-CC-PVTZ
    Blend: AUG-CC-PVTZ
  Basis Set: (AUG-CC-PVTZ AUX)
    Blend: AUG-CC-PVTZ-JKFIT
	 Reference Energy          =    -592.6540571025534518 [Eh]
	 Singles Energy            =      -0.0000000000000000 [Eh]
	 Same-Spin Energy          =      -0.6454584793383528 [Eh]
	 Opposite-Spin Energy      =      -2.0574030565284924 [Eh]
	 Correlation Energy        =      -2.7028615358668451 [Eh]
	 Total Energy              =    -595.3569186384203249 [Eh]

	 ================> DF-SCS-MP2 Energies <==================
	-----------------------------------------------------------
	 SCS Same-Spin Scale       =       0.3333333333333333 [-]
	 SCS Opposite-Spin Scale   =       1.2000000000000000 [-]
	 SCS Same-Spin Energy      =      -0.2151528264461176 [Eh]
	 SCS Opposite-Spin Energy  =      -2.4688836678341910 [Eh]
	 SCS Correlation Energy    =      -2.6840364942803085 [Eh]
	 SCS Total Energy          =    -595.3380935968338008 [Eh]
	-----------------------------------------------------------

  Dipole Moment: [D]
     X:     1.7671      Y:    -4.1444      Z:     1.3604     Total:     4.7063

*** Psi4 exiting successfully. Buy a developer a beer!
