                               Psi4 1.3.2 release

  ==> Input File <==

--------------------------------------------------------------------------
#psi4
#
memory 32 gb

molecule  {
0 1
  O       -0.0931590     2.3556990    -0.4150330
  N        1.0902530     0.4589530     0.1084880
  C        3.5423410    -1.0378250     0.1583630
  C        3.3922610     0.2419230    -0.6640150
  C        2.1860550    -1.7140940     0.3593590
  C        2.3559930     1.1736850    -0.0440690
  C        1.1838660    -0.7305840     0.9537980
  C       -0.0344284     1.0741101    -0.1691646
  C       -1.3555190     0.3759530    -0.0649830
  C       -2.4581180     0.9595770     0.5701650
  C       -1.5045770    -0.8456090    -0.7357740
  C       -3.6889550     0.3043920     0.5733300
  C       -2.7428150    -1.4894620    -0.7452070
  C       -3.8339540    -0.9208060    -0.0836890
  H        4.2467360    -1.7252930    -0.3235850
  H        3.9658390    -0.7874970     1.1407660
  H        4.3526700     0.7654030    -0.7430120
  H        3.0718610    -0.0071480    -1.6828650
  H        1.8013720    -2.0729510    -0.6033450
  H        2.2806590    -2.5842610     1.0203320
  H        2.7011300     1.5279490     0.9404770
  H        2.1670460     2.0514870    -0.6632420
  H        0.1966470    -1.1794980     1.0614980
  H        1.5220510    -0.4257650     1.9581480
  H       -2.3377960     1.9283990     1.0483720
  H       -0.6569890    -1.2752080    -1.2661150
  H       -4.5402850     0.7544580     1.0784950
  H       -2.8585310    -2.4316580    -1.2759100
  H       -4.7967310    -1.4262250    -0.0878670
units angstrom
no_reorient  #important for SAPT in psi4, default
symmetry c1  #important for SAPT in psi4, default
}

set PROPERTIES_ORIGIN ["COM"]
properties('MP2/aug-cc-pvtz', properties = ['dipole'])
--------------------------------------------------------------------------

    Molecular point group: c1
  Charge       = 0
  Multiplicity = 1
  Basis Set: AUG-CC-PVTZ
    Blend: AUG-CC-PVTZ
  Basis Set: (AUG-CC-PVTZ AUX)
    Blend: AUG-CC-PVTZ-JKFIT

    Orbital Energies [Eh]
    ---------------------

    Doubly Occupied:

       1A    -20.496474     2A    -15.594539     3A    -11.347815
       4A    -11.274483     5A    -11.259477     6A    -11.251529
       7A    -11.248373     8A    -11.246996     9A    -11.245511
      10A    -11.244304    11A    -11.242901    12A    -11.235964
      13A    -11.232234    14A    -11.229687    15A     -1.341467
      16A     -1.248268    17A     -1.159954    18A     -1.092994
      19A     -1.044233    20A     -1.027873    21A     -1.022294
      22A     -0.939107    23A     -0.874252    24A     -0.846774
      25A     -0.835157    26A     -0.801369    27A     -0.750776
      28A     -0.723412    29A     -0.678775    30A     -0.654135
      31A     -0.642325    32A     -0.635608    33A     -0.623515
      34A     -0.612794    35A     -0.598478    36A     -0.594219
      37A     -0.588630    38A     -0.560059    39A     -0.548252
      40A     -0.530101    41A     -0.511319    42A     -0.504092
      43A     -0.500960    44A     -0.496431    45A     -0.475718
      46A     -0.471914    47A     -0.464872    48A     -0.410449
      49A     -0.370192    50A     -0.344283    51A     -0.339634

  @DF-RHF Final Energy:  -592.66872382746124

   => Energetics <=

    Nuclear Repulsion Energy =            877.4818504489114730
    One-Electron Energy =               -2546.2711984528582434
    Two-Electron Energy =                1076.1206241764855349
    Total Energy =                       -592.6687238274612355
  Basis Set: (AUG-CC-PVTZ AUX)
    Blend: AUG-CC-PVTZ-RI
    Molecular point group: c1

    Geometry (in Angstrom), charge = 0, multiplicity = 1:

       Center              X                  Y                   Z               Mass
    ------------   -----------------  -----------------  -----------------  -----------------
         O           -0.037559487440     2.324715937857    -0.403361778758    15.994914619570
         N            1.145852512560     0.427969937857     0.120159221242    14.003074004430
         C            3.597940512560    -1.068808062143     0.170034221242    12.000000000000
         C            3.447860512560     0.210939937857    -0.652343778758    12.000000000000
         C            2.241654512560    -1.745077062143     0.371030221242    12.000000000000
         C            2.411592512560     1.142701937857    -0.032397778758    12.000000000000
         C            1.239465512560    -0.761567062143     0.965469221242    12.000000000000
         C            0.021171112560     1.043127037857    -0.157493378758    12.000000000000
         C           -1.299919487440     0.344969937857    -0.053311778758    12.000000000000
         C           -2.402518487440     0.928593937857     0.581836221242    12.000000000000
         C           -1.448977487440    -0.876592062143    -0.724102778758    12.000000000000
         C           -3.633355487440     0.273408937857     0.585001221242    12.000000000000
         C           -2.687215487440    -1.520445062143    -0.733535778758    12.000000000000
         C           -3.778354487440    -0.951789062143    -0.072017778758    12.000000000000
         H            4.302335512560    -1.756276062143    -0.311913778758     1.007825032230
         H            4.021438512560    -0.818480062143     1.152437221242     1.007825032230
         H            4.408269512560     0.734419937857    -0.731340778758     1.007825032230
         H            3.127460512560    -0.038131062143    -1.671193778758     1.007825032230
         H            1.856971512560    -2.103934062143    -0.591673778758     1.007825032230
         H            2.336258512560    -2.615244062143     1.032003221242     1.007825032230
         H            2.756729512560     1.496965937857     0.952148221242     1.007825032230
         H            2.222645512560     2.020503937857    -0.651570778758     1.007825032230
         H            0.252246512560    -1.210481062143     1.073169221242     1.007825032230
         H            1.577650512560    -0.456748062143     1.969819221242     1.007825032230
         H           -2.282196487440     1.897415937857     1.060043221242     1.007825032230
         H           -0.601389487440    -1.306191062143    -1.254443778758     1.007825032230
         H           -4.484685487440     0.723474937857     1.090166221242     1.007825032230
         H           -2.802931487440    -2.462641062143    -1.264238778758     1.007825032230
         H           -4.741131487440    -1.457208062143    -0.076195778758     1.007825032230

  Basis Set: AUG-CC-PVTZ
    Blend: AUG-CC-PVTZ
  Basis Set: (AUG-CC-PVTZ AUX)
    Blend: AUG-CC-PVTZ-JKFIT
	 Reference Energy          =    -592.6687238274612355 [Eh]
	 Singles Energy            =      -0.0000000000000000 [Eh]
	 Same-Spin Energy          =      -0.6447416076408951 [Eh]
	 Opposite-Spin Energy      =      -2.0558494828177674 [Eh]
	 Correlation Energy        =      -2.7005910904586625 [Eh]
	 Total Energy              =    -595.3693149179199509 [Eh]

	 ================> DF-SCS-MP2 Energies <==================
	-----------------------------------------------------------
	 SCS Same-Spin Scale       =       0.3333333333333333 [-]
	 SCS Opposite-Spin Scale   =       1.2000000000000000 [-]
	 SCS Same-Spin Energy      =      -0.2149138692136317 [Eh]
	 SCS Opposite-Spin Energy  =      -2.4670193793813207 [Eh]
	 SCS Correlation Energy    =      -2.6819332485949525 [Eh]
	 SCS Total Energy          =    -595.3506570760562226 [Eh]
	-----------------------------------------------------------

  Dipole Moment: [D]
     X:     1.5385      Y:    -3.8965      Z:     1.2771     Total:     4.3796

*** Psi4 exiting successfully. Buy a developer a beer!
