                               Psi4 1.3.2 release

  ==> Input File <==

--------------------------------------------------------------------------
#psi4
#
memory 32 gb

molecule  {
0 1
  O       -0.0931590     2.3556990    -0.4150330
  N        1.0902530     0.4589530     0.1084880
  C        3.5423410    -1.0378250     0.1583630
  C        3.3922610     0.2419230    -0.6640150
  C        2.1860550    -1.7140940     0.3593590
  C        2.3559930     1.1736850    -0.0440690
  C        1.1838660    -0.7305840     0.9537980
  C       -0.0769430     1.1544410    -0.1174940
  C       -1.3030950     0.4539015    -0.0380854
  C       -2.4581180     0.9595770     0.5701650
  C       -1.5045770    -0.8456090    -0.7357740
  C       -3.6889550     0.3043920     0.5733300
  C       -2.7428150    -1.4894620    -0.7452070
  C       -3.8339540    -0.9208060    -0.0836890
  H        4.2467360    -1.7252930    -0.3235850
  H        3.9658390    -0.7874970     1.1407660
  H        4.3526700     0.7654030    -0.7430120
  H        3.0718610    -0.0071480    -1.6828650
  H        1.8013720    -2.0729510    -0.6033450
  H        2.2806590    -2.5842610     1.0203320
  H        2.7011300     1.5279490     0.9404770
  H        2.1670460     2.0514870    -0.6632420
  H        0.1966470    -1.1794980     1.0614980
  H        1.5220510    -0.4257650     1.9581480
  H       -2.3377960     1.9283990     1.0483720
  H       -0.6569890    -1.2752080    -1.2661150
  H       -4.5402850     0.7544580     1.0784950
  H       -2.8585310    -2.4316580    -1.2759100
  H       -4.7967310    -1.4262250    -0.0878670
units angstrom
no_reorient  #important for SAPT in psi4, default
symmetry c1  #important for SAPT in psi4, default
}

set PROPERTIES_ORIGIN ["COM"]
properties('MP2/aug-cc-pvtz', properties = ['dipole'])
--------------------------------------------------------------------------

    Molecular point group: c1
  Charge       = 0
  Multiplicity = 1
  Basis Set: AUG-CC-PVTZ
    Blend: AUG-CC-PVTZ
  Basis Set: (AUG-CC-PVTZ AUX)
    Blend: AUG-CC-PVTZ-JKFIT

    Orbital Energies [Eh]
    ---------------------

    Doubly Occupied:

       1A    -20.512276     2A    -15.581402     3A    -11.345095
       4A    -11.266801     5A    -11.260871     6A    -11.253230
       7A    -11.253179     8A    -11.251345     9A    -11.248873
      10A    -11.246622    11A    -11.244744    12A    -11.230711
      13A    -11.227674    14A    -11.224801    15A     -1.371125
      16A     -1.248210    17A     -1.155213    18A     -1.084894
      19A     -1.044459    20A     -1.027497    21A     -1.018638
      22A     -0.928043    23A     -0.872194    24A     -0.852163
      25A     -0.831915    26A     -0.790956    27A     -0.749339
      28A     -0.722086    29A     -0.687250    30A     -0.653469
      31A     -0.638686    32A     -0.630674    33A     -0.624214
      34A     -0.607588    35A     -0.603131    36A     -0.591435
      37A     -0.587687    38A     -0.560458    39A     -0.550367
      40A     -0.535502    41A     -0.519781    42A     -0.501648
      43A     -0.498239    44A     -0.486977    45A     -0.477999
      46A     -0.468856    47A     -0.460466    48A     -0.426096
      49A     -0.369212    50A     -0.347414    51A     -0.335416

  @DF-RHF Final Energy:  -592.66912456167029

   => Energetics <=

    Nuclear Repulsion Energy =            877.1493461649037044
    One-Electron Energy =               -2545.6230985303386660
    Two-Electron Energy =                1075.8046278037645607
    Total Energy =                       -592.6691245616702872
  Basis Set: (AUG-CC-PVTZ AUX)
    Blend: AUG-CC-PVTZ-RI
    Molecular point group: c1

    Geometry (in Angstrom), charge = 0, multiplicity = 1:

       Center              X                  Y                   Z               Mass
    ------------   -----------------  -----------------  -----------------  -----------------
         O           -0.038188271888     2.314672582527    -0.408347192843    15.994914619570
         N            1.145223728112     0.417926582527     0.115173807157    14.003074004430
         C            3.597311728112    -1.078851417473     0.165048807157    12.000000000000
         C            3.447231728112     0.200896582527    -0.657329192843    12.000000000000
         C            2.241025728112    -1.755120417473     0.366044807157    12.000000000000
         C            2.410963728112     1.132658582527    -0.037383192843    12.000000000000
         C            1.238836728112    -0.771610417473     0.960483807157    12.000000000000
         C           -0.021972271888     1.113414582527    -0.110808192843    12.000000000000
         C           -1.248124271888     0.412875082527    -0.031399592843    12.000000000000
         C           -2.403147271888     0.918550582527     0.576850807157    12.000000000000
         C           -1.449606271888    -0.886635417473    -0.729088192843    12.000000000000
         C           -3.633984271888     0.263365582527     0.580015807157    12.000000000000
         C           -2.687844271888    -1.530488417473    -0.738521192843    12.000000000000
         C           -3.778983271888    -0.961832417473    -0.077003192843    12.000000000000
         H            4.301706728112    -1.766319417473    -0.316899192843     1.007825032230
         H            4.020809728112    -0.828523417473     1.147451807157     1.007825032230
         H            4.407640728112     0.724376582527    -0.736326192843     1.007825032230
         H            3.126831728112    -0.048174417473    -1.676179192843     1.007825032230
         H            1.856342728112    -2.113977417473    -0.596659192843     1.007825032230
         H            2.335629728112    -2.625287417473     1.027017807157     1.007825032230
         H            2.756100728112     1.486922582527     0.947162807157     1.007825032230
         H            2.222016728112     2.010460582527    -0.656556192843     1.007825032230
         H            0.251617728112    -1.220524417473     1.068183807157     1.007825032230
         H            1.577021728112    -0.466791417473     1.964833807157     1.007825032230
         H           -2.282825271888     1.887372582527     1.055057807157     1.007825032230
         H           -0.602018271888    -1.316234417473    -1.259429192843     1.007825032230
         H           -4.485314271888     0.713431582527     1.085180807157     1.007825032230
         H           -2.803560271888    -2.472684417473    -1.269224192843     1.007825032230
         H           -4.741760271888    -1.467251417473    -0.081181192843     1.007825032230

  Basis Set: AUG-CC-PVTZ
    Blend: AUG-CC-PVTZ
  Basis Set: (AUG-CC-PVTZ AUX)
    Blend: AUG-CC-PVTZ-JKFIT
	 Reference Energy          =    -592.6691245616702872 [Eh]
	 Singles Energy            =      -0.0000000000000000 [Eh]
	 Same-Spin Energy          =      -0.6444805363945462 [Eh]
	 Opposite-Spin Energy      =      -2.0554939312598166 [Eh]
	 Correlation Energy        =      -2.6999744676543629 [Eh]
	 Total Energy              =    -595.3690990293246159 [Eh]

	 ================> DF-SCS-MP2 Energies <==================
	-----------------------------------------------------------
	 SCS Same-Spin Scale       =       0.3333333333333333 [-]
	 SCS Opposite-Spin Scale   =       1.2000000000000000 [-]
	 SCS Same-Spin Energy      =      -0.2148268454648487 [Eh]
	 SCS Opposite-Spin Energy  =      -2.4665927175117797 [Eh]
	 SCS Correlation Energy    =      -2.6814195629766284 [Eh]
	 SCS Total Energy          =    -595.3505441246469445 [Eh]
	-----------------------------------------------------------

  Dipole Moment: [D]
     X:     0.9370      Y:    -3.4570      Z:     1.1290     Total:     3.7555

*** Psi4 exiting successfully. Buy a developer a beer!
