                               Psi4 1.3.2 release

  ==> Input File <==

--------------------------------------------------------------------------
#psi4
#
memory 32 gb

molecule  {
0 1
  O       -0.0931590     2.3556990    -0.4150330
  N        1.0902530     0.4589530     0.1084880
  C        3.5423410    -1.0378250     0.1583630
  C        3.3922610     0.2419230    -0.6640150
  C        2.1860550    -1.7140940     0.3593590
  C        2.3559930     1.1736850    -0.0440690
  C        1.1838660    -0.7305840     0.9537980
  C       -0.1256867     1.2309791    -0.0655676
  C       -1.3555190     0.3759530    -0.0649830
  C       -2.4581180     0.9595770     0.5701650
  C       -1.5045770    -0.8456090    -0.7357740
  C       -3.6889550     0.3043920     0.5733300
  C       -2.7428150    -1.4894620    -0.7452070
  C       -3.8339540    -0.9208060    -0.0836890
  H        4.2467360    -1.7252930    -0.3235850
  H        3.9658390    -0.7874970     1.1407660
  H        4.3526700     0.7654030    -0.7430120
  H        3.0718610    -0.0071480    -1.6828650
  H        1.8013720    -2.0729510    -0.6033450
  H        2.2806590    -2.5842610     1.0203320
  H        2.7011300     1.5279490     0.9404770
  H        2.1670460     2.0514870    -0.6632420
  H        0.1966470    -1.1794980     1.0614980
  H        1.5220510    -0.4257650     1.9581480
  H       -2.3377960     1.9283990     1.0483720
  H       -0.6569890    -1.2752080    -1.2661150
  H       -4.5402850     0.7544580     1.0784950
  H       -2.8585310    -2.4316580    -1.2759100
  H       -4.7967310    -1.4262250    -0.0878670
units angstrom
no_reorient  #important for SAPT in psi4, default
symmetry c1  #important for SAPT in psi4, default
}

set PROPERTIES_ORIGIN ["COM"]
properties('MP2/aug-cc-pvtz', properties = ['dipole'])
--------------------------------------------------------------------------

    Molecular point group: c1
  Charge       = 0
  Multiplicity = 1
  Basis Set: AUG-CC-PVTZ
    Blend: AUG-CC-PVTZ
  Basis Set: (AUG-CC-PVTZ AUX)
    Blend: AUG-CC-PVTZ-JKFIT

    Orbital Energies [Eh]
    ---------------------

    Doubly Occupied:

       1A    -20.532378     2A    -15.568710     3A    -11.352284
       4A    -11.259194     5A    -11.252685     6A    -11.251069
       7A    -11.248916     8A    -11.247214     9A    -11.246873
      10A    -11.246202    11A    -11.244104    12A    -11.225993
      13A    -11.223613    14A    -11.220575    15A     -1.412228
      16A     -1.233585    17A     -1.162467    18A     -1.074634
      19A     -1.039445    20A     -1.025585    21A     -1.020059
      22A     -0.910818    23A     -0.861798    24A     -0.846219
      25A     -0.835169    26A     -0.785838    27A     -0.745826
      28A     -0.716640    29A     -0.685054    30A     -0.656632
      31A     -0.638381    32A     -0.628069    33A     -0.625068
      34A     -0.611598    35A     -0.601900    36A     -0.593646
      37A     -0.588498    38A     -0.557272    39A     -0.553976
      40A     -0.538649    41A     -0.518734    42A     -0.504626
      43A     -0.502100    44A     -0.495079    45A     -0.477617
      46A     -0.466235    47A     -0.454980    48A     -0.425081
      49A     -0.363634    50A     -0.345883    51A     -0.344372

  @DF-RHF Final Energy:  -592.67559423026341

   => Energetics <=

    Nuclear Repulsion Energy =            876.5290174225193596
    One-Electron Energy =               -2544.4748161130492008
    Two-Electron Energy =                1075.2702044602665410
    Total Energy =                       -592.6755942302634139
  Basis Set: (AUG-CC-PVTZ AUX)
    Blend: AUG-CC-PVTZ-RI
    Molecular point group: c1

    Geometry (in Angstrom), charge = 0, multiplicity = 1:

       Center              X                  Y                   Z               Mass
    ------------   -----------------  -----------------  -----------------  -----------------
         O           -0.031768844225     2.314762077107    -0.409935353601    15.994914619570
         N            1.151643155775     0.418016077107     0.113585646399    14.003074004430
         C            3.603731155775    -1.078761922893     0.163460646399    12.000000000000
         C            3.453651155775     0.200986077107    -0.658917353601    12.000000000000
         C            2.247445155775    -1.755030922893     0.364456646399    12.000000000000
         C            2.417383155775     1.132748077107    -0.038971353601    12.000000000000
         C            1.245256155775    -0.771520922893     0.958895646399    12.000000000000
         C           -0.064296544225     1.190042177107    -0.060469953601    12.000000000000
         C           -1.294128844225     0.335016077107    -0.059885353601    12.000000000000
         C           -2.396727844225     0.918640077107     0.575262646399    12.000000000000
         C           -1.443186844225    -0.886545922893    -0.730676353601    12.000000000000
         C           -3.627564844225     0.263455077107     0.578427646399    12.000000000000
         C           -2.681424844225    -1.530398922893    -0.740109353601    12.000000000000
         C           -3.772563844225    -0.961742922893    -0.078591353601    12.000000000000
         H            4.308126155775    -1.766229922893    -0.318487353601     1.007825032230
         H            4.027229155775    -0.828433922893     1.145863646399     1.007825032230
         H            4.414060155775     0.724466077107    -0.737914353601     1.007825032230
         H            3.133251155775    -0.048084922893    -1.677767353601     1.007825032230
         H            1.862762155775    -2.113887922893    -0.598247353601     1.007825032230
         H            2.342049155775    -2.625197922893     1.025429646399     1.007825032230
         H            2.762520155775     1.487012077107     0.945574646399     1.007825032230
         H            2.228436155775     2.010550077107    -0.658144353601     1.007825032230
         H            0.258037155775    -1.220434922893     1.066595646399     1.007825032230
         H            1.583441155775    -0.466701922893     1.963245646399     1.007825032230
         H           -2.276405844225     1.887462077107     1.053469646399     1.007825032230
         H           -0.595598844225    -1.316144922893    -1.261017353601     1.007825032230
         H           -4.478894844225     0.713521077107     1.083592646399     1.007825032230
         H           -2.797140844225    -2.472594922893    -1.270812353601     1.007825032230
         H           -4.735340844225    -1.467161922893    -0.082769353601     1.007825032230

  Basis Set: AUG-CC-PVTZ
    Blend: AUG-CC-PVTZ
  Basis Set: (AUG-CC-PVTZ AUX)
    Blend: AUG-CC-PVTZ-JKFIT
	 Reference Energy          =    -592.6755942302634139 [Eh]
	 Singles Energy            =      -0.0000000000000000 [Eh]
	 Same-Spin Energy          =      -0.6427060987640941 [Eh]
	 Opposite-Spin Energy      =      -2.0520332957526231 [Eh]
	 Correlation Energy        =      -2.6947393945167173 [Eh]
	 Total Energy              =    -595.3703336247801872 [Eh]

	 ================> DF-SCS-MP2 Energies <==================
	-----------------------------------------------------------
	 SCS Same-Spin Scale       =       0.3333333333333333 [-]
	 SCS Opposite-Spin Scale   =       1.2000000000000000 [-]
	 SCS Same-Spin Energy      =      -0.2142353662546980 [Eh]
	 SCS Opposite-Spin Energy  =      -2.4624399549031475 [Eh]
	 SCS Correlation Energy    =      -2.6766753211578456 [Eh]
	 SCS Total Energy          =    -595.3522695514212728 [Eh]
	-----------------------------------------------------------

  Dipole Moment: [D]
     X:     0.4665      Y:    -2.8843      Z:     0.9862     Total:     3.0837

*** Psi4 exiting successfully. Buy a developer a beer!
