                               Psi4 1.4a3.dev225

  ==> Input File <==

--------------------------------------------------------------------------
#psi4
#
memory 32 gb

molecule  {
0 1
  O       -0.0931590     2.3556990    -0.4150330
  N        1.0902530     0.4589530     0.1084880
  C        3.5423410    -1.0378250     0.1583630
  C        3.3922610     0.2419230    -0.6640150
  C        2.1860550    -1.7140940     0.3593590
  C        2.3559930     1.1736850    -0.0440690
  C        1.1838660    -0.7305840     0.9537980
  C       -0.0769430     1.1544410    -0.1174940
  C       -1.3384469     0.3863477    -0.0656842
  C       -2.4581180     0.9595770     0.5701650
  C       -1.5045770    -0.8456090    -0.7357740
  C       -3.6889550     0.3043920     0.5733300
  C       -2.7428150    -1.4894620    -0.7452070
  C       -3.8339540    -0.9208060    -0.0836890
  H        4.2467360    -1.7252930    -0.3235850
  H        3.9658390    -0.7874970     1.1407660
  H        4.3526700     0.7654030    -0.7430120
  H        3.0718610    -0.0071480    -1.6828650
  H        1.8013720    -2.0729510    -0.6033450
  H        2.2806590    -2.5842610     1.0203320
  H        2.7011300     1.5279490     0.9404770
  H        2.1670460     2.0514870    -0.6632420
  H        0.1966470    -1.1794980     1.0614980
  H        1.5220510    -0.4257650     1.9581480
  H       -2.3377960     1.9283990     1.0483720
  H       -0.6569890    -1.2752080    -1.2661150
  H       -4.5402850     0.7544580     1.0784950
  H       -2.8585310    -2.4316580    -1.2759100
  H       -4.7967310    -1.4262250    -0.0878670
units angstrom
no_reorient  #important for SAPT in psi4, default
symmetry c1  #important for SAPT in psi4, default
}

set PROPERTIES_ORIGIN ["COM"]
properties('MP2/aug-cc-pvtz', properties = ['dipole'])
--------------------------------------------------------------------------

    Molecular point group: c1
  Charge       = 0
  Multiplicity = 1
  Basis Set: AUG-CC-PVTZ
    Blend: AUG-CC-PVTZ
  Basis Set: (AUG-CC-PVTZ AUX)
    Blend: AUG-CC-PVTZ-JKFIT

    Orbital Energies [Eh]
    ---------------------

    Doubly Occupied:

       1A    -20.514441     2A    -15.581549     3A    -11.349359
       4A    -11.267058     5A    -11.253267     6A    -11.252350
       7A    -11.251022     8A    -11.248684     9A    -11.247257
      10A    -11.245721    11A    -11.243634    12A    -11.230913
      13A    -11.227856    14A    -11.224992    15A     -1.369608
      16A     -1.248191    17A     -1.159504    18A     -1.084124
      19A     -1.041377    20A     -1.025705    21A     -1.022195
      22A     -0.925438    23A     -0.868605    24A     -0.847504
      25A     -0.834738    26A     -0.793100    27A     -0.748090
      28A     -0.720387    29A     -0.682553    30A     -0.651870
      31A     -0.638686    32A     -0.630587    33A     -0.625528
      34A     -0.609997    35A     -0.601105    36A     -0.593257
      37A     -0.588974    38A     -0.560599    39A     -0.550757
      40A     -0.534415    41A     -0.514603    42A     -0.502948
      43A     -0.501089    44A     -0.494141    45A     -0.478589
      46A     -0.468933    47A     -0.460634    48A     -0.424052
      49A     -0.369584    50A     -0.344802    51A     -0.341288

  @DF-RHF Final Energy:  -592.68182944759371

   => Energetics <=

    Nuclear Repulsion Energy =            877.0748051135648211
    One-Electron Energy =               -2545.5219469398548426
    Two-Electron Energy =                1075.7653123786963079
    Total Energy =                       -592.6818294475938274
  Basis Set: (AUG-CC-PVTZ AUX)
    Blend: AUG-CC-PVTZ-RI
    Molecular point group: c1

    Geometry (in Angstrom), charge = 0, multiplicity = 1:

       Center              X                  Y                   Z               Mass
    ------------   -----------------  -----------------  -----------------  -----------------
         O           -0.035945076038     2.318959096232    -0.406595957022    15.994914619570
         N            1.147466923962     0.422213096232     0.116925042978    14.003074004430
         C            3.599554923962    -1.074564903768     0.166800042978    12.000000000000
         C            3.449474923962     0.205183096232    -0.655577957022    12.000000000000
         C            2.243268923962    -1.750833903768     0.367796042978    12.000000000000
         C            2.413206923962     1.136945096232    -0.035631957022    12.000000000000
         C            1.241079923962    -0.767323903768     0.962235042978    12.000000000000
         C           -0.019729076038     1.117701096232    -0.109056957022    12.000000000000
         C           -1.281232976038     0.349607796232    -0.057247157022    12.000000000000
         C           -2.400904076038     0.922837096232     0.578602042978    12.000000000000
         C           -1.447363076038    -0.882348903768    -0.727336957022    12.000000000000
         C           -3.631741076038     0.267652096232     0.581767042978    12.000000000000
         C           -2.685601076038    -1.526201903768    -0.736769957022    12.000000000000
         C           -3.776740076038    -0.957545903768    -0.075251957022    12.000000000000
         H            4.303949923962    -1.762032903768    -0.315147957022     1.007825032230
         H            4.023052923962    -0.824236903768     1.149203042978     1.007825032230
         H            4.409883923962     0.728663096232    -0.734574957022     1.007825032230
         H            3.129074923962    -0.043887903768    -1.674427957022     1.007825032230
         H            1.858585923962    -2.109690903768    -0.594907957022     1.007825032230
         H            2.337872923962    -2.621000903768     1.028769042978     1.007825032230
         H            2.758343923962     1.491209096232     0.948914042978     1.007825032230
         H            2.224259923962     2.014747096232    -0.654804957022     1.007825032230
         H            0.253860923962    -1.216237903768     1.069935042978     1.007825032230
         H            1.579264923962    -0.462504903768     1.966585042978     1.007825032230
         H           -2.280582076038     1.891659096232     1.056809042978     1.007825032230
         H           -0.599775076038    -1.311947903768    -1.257677957022     1.007825032230
         H           -4.483071076038     0.717718096232     1.086932042978     1.007825032230
         H           -2.801317076038    -2.468397903768    -1.267472957022     1.007825032230
         H           -4.739517076038    -1.462964903768    -0.079429957022     1.007825032230

  Basis Set: AUG-CC-PVTZ
    Blend: AUG-CC-PVTZ
  Basis Set: (AUG-CC-PVTZ AUX)
    Blend: AUG-CC-PVTZ-JKFIT
	 Reference Energy          =    -592.6818294475937137 [Eh]
	 Singles Energy            =      -0.0000000000000000 [Eh]
	 Same-Spin Energy          =      -0.6436794574323371 [Eh]
	 Opposite-Spin Energy      =      -2.0537103988591547 [Eh]
	 Correlation Energy        =      -2.6973898562914917 [Eh]
	 Total Energy              =    -595.3792193038851792 [Eh]

	 ================> DF-SCS-MP2 Energies <==================
	-----------------------------------------------------------
	 SCS Same-Spin Scale       =       0.3333333333333333 [-]
	 SCS Opposite-Spin Scale   =       1.2000000000000000 [-]
	 SCS Same-Spin Energy      =      -0.2145598191441124 [Eh]
	 SCS Opposite-Spin Energy  =      -2.4644524786309856 [Eh]
	 SCS Correlation Energy    =      -2.6790122977750981 [Eh]
	 SCS Total Energy          =    -595.3608417453688162 [Eh]
	-----------------------------------------------------------

  Dipole Moment: [D]
     X:     1.0075      Y:    -3.4081      Z:     1.1234     Total:     3.7273

*** Psi4 exiting successfully. Buy a developer a beer!
