                               Psi4 1.3.2 release

  ==> Input File <==

--------------------------------------------------------------------------
#psi4
#
memory 32 gb

molecule  {
0 1
  O       -0.0931590     2.3556990    -0.4150330
  N        1.0902530     0.4589530     0.1084880
  C        3.5423410    -1.0378250     0.1583630
  C        3.3922610     0.2419230    -0.6640150
  C        2.1860550    -1.7140940     0.3593590
  C        2.3559930     1.1736850    -0.0440690
  C        1.1838660    -0.7305840     0.9537980
  C       -0.0769430     1.1544410    -0.1174940
  C       -1.3837624     0.3380218    -0.0772790
  C       -2.4581180     0.9595770     0.5701650
  C       -1.5045770    -0.8456090    -0.7357740
  C       -3.6889550     0.3043920     0.5733300
  C       -2.7428150    -1.4894620    -0.7452070
  C       -3.8339540    -0.9208060    -0.0836890
  H        4.2467360    -1.7252930    -0.3235850
  H        3.9658390    -0.7874970     1.1407660
  H        4.3526700     0.7654030    -0.7430120
  H        3.0718610    -0.0071480    -1.6828650
  H        1.8013720    -2.0729510    -0.6033450
  H        2.2806590    -2.5842610     1.0203320
  H        2.7011300     1.5279490     0.9404770
  H        2.1670460     2.0514870    -0.6632420
  H        0.1966470    -1.1794980     1.0614980
  H        1.5220510    -0.4257650     1.9581480
  H       -2.3377960     1.9283990     1.0483720
  H       -0.6569890    -1.2752080    -1.2661150
  H       -4.5402850     0.7544580     1.0784950
  H       -2.8585310    -2.4316580    -1.2759100
  H       -4.7967310    -1.4262250    -0.0878670
units angstrom
no_reorient  #important for SAPT in psi4, default
symmetry c1  #important for SAPT in psi4, default
}

set PROPERTIES_ORIGIN ["COM"]
properties('MP2/aug-cc-pvtz', properties = ['dipole'])
--------------------------------------------------------------------------

    Molecular point group: c1
  Charge       = 0
  Multiplicity = 1
  Basis Set: AUG-CC-PVTZ
    Blend: AUG-CC-PVTZ
  Basis Set: (AUG-CC-PVTZ AUX)
    Blend: AUG-CC-PVTZ-JKFIT

    Orbital Energies [Eh]
    ---------------------

    Doubly Occupied:

       1A    -20.515767     2A    -15.581614     3A    -11.352063
       4A    -11.267225     5A    -11.253281     6A    -11.249305
       7A    -11.246498     8A    -11.245387     9A    -11.244550
      10A    -11.244163    11A    -11.242827    12A    -11.231037
      13A    -11.227964    14A    -11.225084    15A     -1.368215
      16A     -1.247845    17A     -1.165048    18A     -1.083398
      19A     -1.040147    20A     -1.025599    21A     -1.024167
      22A     -0.923146    23A     -0.866394    24A     -0.842006
      25A     -0.838249    26A     -0.794209    27A     -0.747169
      28A     -0.719505    29A     -0.678099    30A     -0.650081
      31A     -0.639364    32A     -0.630569    33A     -0.626311
      34A     -0.612664    35A     -0.599595    36A     -0.595224
      37A     -0.588811    38A     -0.560537    39A     -0.550860
      40A     -0.533813    41A     -0.511558    42A     -0.506392
      43A     -0.503046    44A     -0.496779    45A     -0.478749
      46A     -0.468935    47A     -0.460690    48A     -0.418946
      49A     -0.369667    50A     -0.348603    51A     -0.341339

  @DF-RHF Final Energy:  -592.68089752068693

   => Energetics <=

    Nuclear Repulsion Energy =            877.0019178682912298
    One-Electron Energy =               -2545.4006439921063247
    Two-Electron Energy =                1075.7178286031280550
    Total Energy =                       -592.6808975206870400
  Basis Set: (AUG-CC-PVTZ AUX)
    Blend: AUG-CC-PVTZ-RI
    Molecular point group: c1

    Geometry (in Angstrom), charge = 0, multiplicity = 1:

       Center              X                  Y                   Z               Mass
    ------------   -----------------  -----------------  -----------------  -----------------
         O           -0.033069656568     2.322025535613    -0.405860228327    15.994914619570
         N            1.150342343432     0.425279535613     0.117660771673    14.003074004430
         C            3.602430343432    -1.071498464387     0.167535771673    12.000000000000
         C            3.452350343432     0.208249535613    -0.654842228327    12.000000000000
         C            2.246144343432    -1.747767464387     0.368531771673    12.000000000000
         C            2.416082343432     1.140011535613    -0.034896228327    12.000000000000
         C            1.243955343432    -0.764257464387     0.962970771673    12.000000000000
         C           -0.016853656568     1.120767535613    -0.108321228327    12.000000000000
         C           -1.323673056568     0.304348335613    -0.068106228327    12.000000000000
         C           -2.398028656568     0.925903535613     0.579337771673    12.000000000000
         C           -1.444487656568    -0.879282464387    -0.726601228327    12.000000000000
         C           -3.628865656568     0.270718535613     0.582502771673    12.000000000000
         C           -2.682725656568    -1.523135464387    -0.736034228327    12.000000000000
         C           -3.773864656568    -0.954479464387    -0.074516228327    12.000000000000
         H            4.306825343432    -1.758966464387    -0.314412228327     1.007825032230
         H            4.025928343432    -0.821170464387     1.149938771673     1.007825032230
         H            4.412759343432     0.731729535613    -0.733839228327     1.007825032230
         H            3.131950343432    -0.040821464387    -1.673692228327     1.007825032230
         H            1.861461343432    -2.106624464387    -0.594172228327     1.007825032230
         H            2.340748343432    -2.617934464387     1.029504771673     1.007825032230
         H            2.761219343432     1.494275535613     0.949649771673     1.007825032230
         H            2.227135343432     2.017813535613    -0.654069228327     1.007825032230
         H            0.256736343432    -1.213171464387     1.070670771673     1.007825032230
         H            1.582140343432    -0.459438464387     1.967320771673     1.007825032230
         H           -2.277706656568     1.894725535613     1.057544771673     1.007825032230
         H           -0.596899656568    -1.308881464387    -1.256942228327     1.007825032230
         H           -4.480195656568     0.720784535613     1.087667771673     1.007825032230
         H           -2.798441656568    -2.465331464387    -1.266737228327     1.007825032230
         H           -4.736641656568    -1.459898464387    -0.078694228327     1.007825032230

  Basis Set: AUG-CC-PVTZ
    Blend: AUG-CC-PVTZ
  Basis Set: (AUG-CC-PVTZ AUX)
    Blend: AUG-CC-PVTZ-JKFIT
	 Reference Energy          =    -592.6808975206869263 [Eh]
	 Singles Energy            =      -0.0000000000000000 [Eh]
	 Same-Spin Energy          =      -0.6432083136591806 [Eh]
	 Opposite-Spin Energy      =      -2.0528442239541165 [Eh]
	 Correlation Energy        =      -2.6960525376132969 [Eh]
	 Total Energy              =    -595.3769500583001673 [Eh]

	 ================> DF-SCS-MP2 Energies <==================
	-----------------------------------------------------------
	 SCS Same-Spin Scale       =       0.3333333333333333 [-]
	 SCS Opposite-Spin Scale   =       1.2000000000000000 [-]
	 SCS Same-Spin Energy      =      -0.2144027712197269 [Eh]
	 SCS Opposite-Spin Energy  =      -2.4634130687449396 [Eh]
	 SCS Correlation Energy    =      -2.6778158399646665 [Eh]
	 SCS Total Energy          =    -595.3587133606515636 [Eh]
	-----------------------------------------------------------

  Dipole Moment: [D]
     X:     1.0739      Y:    -3.3602      Z:     1.1194     Total:     3.7010

*** Psi4 exiting successfully. Buy a developer a beer!
