                               Psi4 1.3.2 release

  ==> Input File <==

--------------------------------------------------------------------------
#psi4
#
memory 32 gb

molecule  {
0 1
  O       -0.0931590     2.3556990    -0.4150330
  N        1.0902530     0.4589530     0.1084880
  C        3.5423410    -1.0378250     0.1583630
  C        3.3922610     0.2419230    -0.6640150
  C        2.1860550    -1.7140940     0.3593590
  C        2.3559930     1.1736850    -0.0440690
  C        1.1838660    -0.7305840     0.9537980
  C       -0.0769430     1.1544410    -0.1174940
  C       -1.2789782     0.4938238    -0.0235166
  C       -2.4581180     0.9595770     0.5701650
  C       -1.5045770    -0.8456090    -0.7357740
  C       -3.6889550     0.3043920     0.5733300
  C       -2.7428150    -1.4894620    -0.7452070
  C       -3.8339540    -0.9208060    -0.0836890
  H        4.2467360    -1.7252930    -0.3235850
  H        3.9658390    -0.7874970     1.1407660
  H        4.3526700     0.7654030    -0.7430120
  H        3.0718610    -0.0071480    -1.6828650
  H        1.8013720    -2.0729510    -0.6033450
  H        2.2806590    -2.5842610     1.0203320
  H        2.7011300     1.5279490     0.9404770
  H        2.1670460     2.0514870    -0.6632420
  H        0.1966470    -1.1794980     1.0614980
  H        1.5220510    -0.4257650     1.9581480
  H       -2.3377960     1.9283990     1.0483720
  H       -0.6569890    -1.2752080    -1.2661150
  H       -4.5402850     0.7544580     1.0784950
  H       -2.8585310    -2.4316580    -1.2759100
  H       -4.7967310    -1.4262250    -0.0878670
units angstrom
no_reorient  #important for SAPT in psi4, default
symmetry c1  #important for SAPT in psi4, default
}

set PROPERTIES_ORIGIN ["COM"]
properties('MP2/aug-cc-pvtz', properties = ['dipole'])
--------------------------------------------------------------------------

    Molecular point group: c1
  Charge       = 0
  Multiplicity = 1
  Basis Set: AUG-CC-PVTZ
    Blend: AUG-CC-PVTZ
  Basis Set: (AUG-CC-PVTZ AUX)
    Blend: AUG-CC-PVTZ-JKFIT

    Orbital Energies [Eh]
    ---------------------

    Doubly Occupied:

       1A    -20.510918     2A    -15.581095     3A    -11.341864
       4A    -11.266538     5A    -11.265609     6A    -11.254308
       7A    -11.253233     8A    -11.253078     9A    -11.250878
      10A    -11.247252    11A    -11.245540    12A    -11.230515
      13A    -11.227493    14A    -11.224601    15A     -1.372359
      16A     -1.248103    17A     -1.153120    18A     -1.085523
      19A     -1.047221    20A     -1.027915    21A     -1.017212
      22A     -0.929950    23A     -0.875157    24A     -0.854017
      25A     -0.830858    26A     -0.789503    27A     -0.750209
      28A     -0.723286    29A     -0.690265    30A     -0.654168
      31A     -0.639002    32A     -0.630617    33A     -0.623427
      34A     -0.606591    35A     -0.603706    36A     -0.591213
      37A     -0.585959    38A     -0.560268    39A     -0.550112
      40A     -0.536434    41A     -0.523298    42A     -0.501481
      43A     -0.496499    44A     -0.481325    45A     -0.476434
      46A     -0.468728    47A     -0.460267    48A     -0.426158
      49A     -0.368900    50A     -0.349370    51A     -0.331702

  @DF-RHF Final Energy:  -592.65375390742440

   => Energetics <=

    Nuclear Repulsion Energy =            877.2483802417876859
    One-Electron Energy =               -2545.7777132118235386
    Two-Electron Energy =                1075.8755790626112230
    Total Energy =                       -592.6537539074245160
  Basis Set: (AUG-CC-PVTZ AUX)
    Blend: AUG-CC-PVTZ-RI
    Molecular point group: c1

    Geometry (in Angstrom), charge = 0, multiplicity = 1:

       Center              X                  Y                   Z               Mass
    ------------   -----------------  -----------------  -----------------  -----------------
         O           -0.039718563208     2.312139379568    -0.409271631748    15.994914619570
         N            1.143693436792     0.415393379568     0.114249368252    14.003074004430
         C            3.595781436792    -1.081384620432     0.164124368252    12.000000000000
         C            3.445701436792     0.198363379568    -0.658253631748    12.000000000000
         C            2.239495436792    -1.757653620432     0.365120368252    12.000000000000
         C            2.409433436792     1.130125379568    -0.038307631748    12.000000000000
         C            1.237306436792    -0.774143620432     0.959559368252    12.000000000000
         C           -0.023502563208     1.110881379568    -0.111732631748    12.000000000000
         C           -1.225537763208     0.450264179568    -0.017755231748    12.000000000000
         C           -2.404677563208     0.916017379568     0.575926368252    12.000000000000
         C           -1.451136563208    -0.889168620432    -0.730012631748    12.000000000000
         C           -3.635514563208     0.260832379568     0.579091368252    12.000000000000
         C           -2.689374563208    -1.533021620432    -0.739445631748    12.000000000000
         C           -3.780513563208    -0.964365620432    -0.077927631748    12.000000000000
         H            4.300176436792    -1.768852620432    -0.317823631748     1.007825032230
         H            4.019279436792    -0.831056620432     1.146527368252     1.007825032230
         H            4.406110436792     0.721843379568    -0.737250631748     1.007825032230
         H            3.125301436792    -0.050707620432    -1.677103631748     1.007825032230
         H            1.854812436792    -2.116510620432    -0.597583631748     1.007825032230
         H            2.334099436792    -2.627820620432     1.026093368252     1.007825032230
         H            2.754570436792     1.484389379568     0.946238368252     1.007825032230
         H            2.220486436792     2.007927379568    -0.657480631748     1.007825032230
         H            0.250087436792    -1.223057620432     1.067259368252     1.007825032230
         H            1.575491436792    -0.469324620432     1.963909368252     1.007825032230
         H           -2.284355563208     1.884839379568     1.054133368252     1.007825032230
         H           -0.603548563208    -1.318767620432    -1.260353631748     1.007825032230
         H           -4.486844563208     0.710898379568     1.084256368252     1.007825032230
         H           -2.805090563208    -2.475217620432    -1.270148631748     1.007825032230
         H           -4.743290563208    -1.469784620432    -0.082105631748     1.007825032230

  Basis Set: AUG-CC-PVTZ
    Blend: AUG-CC-PVTZ
  Basis Set: (AUG-CC-PVTZ AUX)
    Blend: AUG-CC-PVTZ-JKFIT
	 Reference Energy          =    -592.6537539074244023 [Eh]
	 Singles Energy            =      -0.0000000000000000 [Eh]
	 Same-Spin Energy          =      -0.6452352780107332 [Eh]
	 Opposite-Spin Energy      =      -2.0571797730397661 [Eh]
	 Correlation Energy        =      -2.7024150510504992 [Eh]
	 Total Energy              =    -595.3561689584748819 [Eh]

	 ================> DF-SCS-MP2 Energies <==================
	-----------------------------------------------------------
	 SCS Same-Spin Scale       =       0.3333333333333333 [-]
	 SCS Opposite-Spin Scale   =       1.2000000000000000 [-]
	 SCS Same-Spin Energy      =      -0.2150784260035777 [Eh]
	 SCS Opposite-Spin Energy  =      -2.4686157276477192 [Eh]
	 SCS Correlation Energy    =      -2.6836941536512970 [Eh]
	 SCS Total Energy          =    -595.3374480610757473 [Eh]
	-----------------------------------------------------------

  Dipole Moment: [D]
     X:     0.8929      Y:    -3.4827      Z:     1.1309     Total:     3.7690

*** Psi4 exiting successfully. Buy a developer a beer!
