                               Psi4 1.3.2 release

  ==> Input File <==

--------------------------------------------------------------------------
#psi4
#
memory 32 gb

molecule  {
0 1
  O       -0.0931590     2.3556990    -0.4150330
  N        1.0902530     0.4589530     0.1084880
  C        3.5423410    -1.0378250     0.1583630
  C        3.3922610     0.2419230    -0.6640150
  C        2.1860550    -1.7140940     0.3593590
  C        2.3559930     1.1736850    -0.0440690
  C        1.1838660    -0.7305840     0.9537980
  C       -0.0782532     1.2514995    -0.1415344
  C       -1.3555190     0.3759530    -0.0649830
  C       -2.4581180     0.9595770     0.5701650
  C       -1.5045770    -0.8456090    -0.7357740
  C       -3.6889550     0.3043920     0.5733300
  C       -2.7428150    -1.4894620    -0.7452070
  C       -3.8339540    -0.9208060    -0.0836890
  H        4.2467360    -1.7252930    -0.3235850
  H        3.9658390    -0.7874970     1.1407660
  H        4.3526700     0.7654030    -0.7430120
  H        3.0718610    -0.0071480    -1.6828650
  H        1.8013720    -2.0729510    -0.6033450
  H        2.2806590    -2.5842610     1.0203320
  H        2.7011300     1.5279490     0.9404770
  H        2.1670460     2.0514870    -0.6632420
  H        0.1966470    -1.1794980     1.0614980
  H        1.5220510    -0.4257650     1.9581480
  H       -2.3377960     1.9283990     1.0483720
  H       -0.6569890    -1.2752080    -1.2661150
  H       -4.5402850     0.7544580     1.0784950
  H       -2.8585310    -2.4316580    -1.2759100
  H       -4.7967310    -1.4262250    -0.0878670
units angstrom
no_reorient  #important for SAPT in psi4, default
symmetry c1  #important for SAPT in psi4, default
}

set PROPERTIES_ORIGIN ["COM"]
properties('MP2/aug-cc-pvtz', properties = ['dipole'])
--------------------------------------------------------------------------

    Molecular point group: c1
  Charge       = 0
  Multiplicity = 1
  Basis Set: AUG-CC-PVTZ
    Blend: AUG-CC-PVTZ
  Basis Set: (AUG-CC-PVTZ AUX)
    Blend: AUG-CC-PVTZ-JKFIT

    Orbital Energies [Eh]
    ---------------------

    Doubly Occupied:

       1A    -20.536345     2A    -15.567762     3A    -11.349709
       4A    -11.261843     5A    -11.248457     6A    -11.247851
       7A    -11.247105     8A    -11.245260     9A    -11.243642
      10A    -11.242823    11A    -11.241465    12A    -11.226786
      13A    -11.224296    14A    -11.220954    15A     -1.442788
      16A     -1.238535    17A     -1.157675    18A     -1.075733
      19A     -1.033762    20A     -1.022400    21A     -1.018997
      22A     -0.910930    23A     -0.861369    24A     -0.840480
      25A     -0.832119    26A     -0.786767    27A     -0.743459
      28A     -0.717868    29A     -0.688239    30A     -0.660218
      31A     -0.638672    32A     -0.630237    33A     -0.625597
      34A     -0.613901    35A     -0.602568    36A     -0.592426
      37A     -0.590150    38A     -0.562381    39A     -0.558140
      40A     -0.540631    41A     -0.521458    42A     -0.503088
      43A     -0.500343    44A     -0.495697    45A     -0.479910
      46A     -0.467361    47A     -0.456796    48A     -0.419300
      49A     -0.365848    50A     -0.342915    51A     -0.340957

  @DF-RHF Final Energy:  -592.67274353228174

   => Energetics <=

    Nuclear Repulsion Energy =            876.7503426858487501
    One-Electron Energy =               -2544.8781454186805604
    Two-Electron Energy =                1075.4550592005500675
    Total Energy =                       -592.6727435322816291
  Basis Set: (AUG-CC-PVTZ AUX)
    Blend: AUG-CC-PVTZ-RI
    Molecular point group: c1

    Geometry (in Angstrom), charge = 0, multiplicity = 1:

       Center              X                  Y                   Z               Mass
    ------------   -----------------  -----------------  -----------------  -----------------
         O           -0.034778657852     2.313459989351    -0.405115007014    15.994914619570
         N            1.148633342148     0.416713989351     0.118405992986    14.003074004430
         C            3.600721342148    -1.080064010649     0.168280992986    12.000000000000
         C            3.450641342148     0.199683989351    -0.654097007014    12.000000000000
         C            2.244435342148    -1.756333010649     0.369276992986    12.000000000000
         C            2.414373342148     1.131445989351    -0.034151007014    12.000000000000
         C            1.242246342148    -0.772823010649     0.963715992986    12.000000000000
         C           -0.019872857852     1.209260489351    -0.131616407014    12.000000000000
         C           -1.297138657852     0.333713989351    -0.055065007014    12.000000000000
         C           -2.399737657852     0.917337989351     0.580082992986    12.000000000000
         C           -1.446196657852    -0.887848010649    -0.725856007014    12.000000000000
         C           -3.630574657852     0.262152989351     0.583247992986    12.000000000000
         C           -2.684434657852    -1.531701010649    -0.735289007014    12.000000000000
         C           -3.775573657852    -0.963045010649    -0.073771007014    12.000000000000
         H            4.305116342148    -1.767532010649    -0.313667007014     1.007825032230
         H            4.024219342148    -0.829736010649     1.150683992986     1.007825032230
         H            4.411050342148     0.723163989351    -0.733094007014     1.007825032230
         H            3.130241342148    -0.049387010649    -1.672947007014     1.007825032230
         H            1.859752342148    -2.115190010649    -0.593427007014     1.007825032230
         H            2.339039342148    -2.626500010649     1.030249992986     1.007825032230
         H            2.759510342148     1.485709989351     0.950394992986     1.007825032230
         H            2.225426342148     2.009247989351    -0.653324007014     1.007825032230
         H            0.255027342148    -1.221737010649     1.071415992986     1.007825032230
         H            1.580431342148    -0.468004010649     1.968065992986     1.007825032230
         H           -2.279415657852     1.886159989351     1.058289992986     1.007825032230
         H           -0.598608657852    -1.317447010649    -1.256197007014     1.007825032230
         H           -4.481904657852     0.712218989351     1.088412992986     1.007825032230
         H           -2.800150657852    -2.473897010649    -1.265992007014     1.007825032230
         H           -4.738350657852    -1.468464010649    -0.077949007014     1.007825032230

  Basis Set: AUG-CC-PVTZ
    Blend: AUG-CC-PVTZ
  Basis Set: (AUG-CC-PVTZ AUX)
    Blend: AUG-CC-PVTZ-JKFIT
	 Reference Energy          =    -592.6727435322817428 [Eh]
	 Singles Energy            =      -0.0000000000000000 [Eh]
	 Same-Spin Energy          =      -0.6413844448271682 [Eh]
	 Opposite-Spin Energy      =      -2.0492361143929467 [Eh]
	 Correlation Energy        =      -2.6906205592201147 [Eh]
	 Total Energy              =    -595.3633640915018077 [Eh]

	 ================> DF-SCS-MP2 Energies <==================
	-----------------------------------------------------------
	 SCS Same-Spin Scale       =       0.3333333333333333 [-]
	 SCS Opposite-Spin Scale   =       1.2000000000000000 [-]
	 SCS Same-Spin Energy      =      -0.2137948149423894 [Eh]
	 SCS Opposite-Spin Energy  =      -2.4590833372715362 [Eh]
	 SCS Correlation Energy    =      -2.6728781522139258 [Eh]
	 SCS Total Energy          =    -595.3456216844956543 [Eh]
	-----------------------------------------------------------

  Dipole Moment: [D]
     X:     0.7321      Y:    -2.6703      Z:     0.9211     Total:     2.9181

*** Psi4 exiting successfully. Buy a developer a beer!
