                               Psi4 1.3.2 release

  ==> Input File <==

--------------------------------------------------------------------------
#psi4
#
memory 32 gb

molecule  {
0 1
  O       -0.0931590     2.3556990    -0.4150330
  N        1.0902530     0.4589530     0.1084880
  C        3.5423410    -1.0378250     0.1583630
  C        3.3922610     0.2419230    -0.6640150
  C        2.1860550    -1.7140940     0.3593590
  C        2.3322204     1.2076077    -0.0738476
  C        1.1838660    -0.7305840     0.9537980
  C       -0.0769430     1.1544410    -0.1174940
  C       -1.3555190     0.3759530    -0.0649830
  C       -2.4581180     0.9595770     0.5701650
  C       -1.5045770    -0.8456090    -0.7357740
  C       -3.6889550     0.3043920     0.5733300
  C       -2.7428150    -1.4894620    -0.7452070
  C       -3.8339540    -0.9208060    -0.0836890
  H        4.2467360    -1.7252930    -0.3235850
  H        3.9658390    -0.7874970     1.1407660
  H        4.3526700     0.7654030    -0.7430120
  H        3.0718610    -0.0071480    -1.6828650
  H        1.8013720    -2.0729510    -0.6033450
  H        2.2806590    -2.5842610     1.0203320
  H        2.7011300     1.5279490     0.9404770
  H        2.1670460     2.0514870    -0.6632420
  H        0.1966470    -1.1794980     1.0614980
  H        1.5220510    -0.4257650     1.9581480
  H       -2.3377960     1.9283990     1.0483720
  H       -0.6569890    -1.2752080    -1.2661150
  H       -4.5402850     0.7544580     1.0784950
  H       -2.8585310    -2.4316580    -1.2759100
  H       -4.7967310    -1.4262250    -0.0878670
units angstrom
no_reorient  #important for SAPT in psi4, default
symmetry c1  #important for SAPT in psi4, default
}

set PROPERTIES_ORIGIN ["COM"]
properties('MP2/aug-cc-pvtz', properties = ['dipole'])
--------------------------------------------------------------------------

    Molecular point group: c1
  Charge       = 0
  Multiplicity = 1
  Basis Set: AUG-CC-PVTZ
    Blend: AUG-CC-PVTZ
  Basis Set: (AUG-CC-PVTZ AUX)
    Blend: AUG-CC-PVTZ-JKFIT

    Orbital Energies [Eh]
    ---------------------

    Doubly Occupied:

       1A    -20.514768     2A    -15.582123     3A    -11.349687
       4A    -11.268380     5A    -11.253537     6A    -11.250856
       7A    -11.249693     8A    -11.247790     9A    -11.245550
      10A    -11.245424    11A    -11.243306    12A    -11.231248
      13A    -11.228686    14A    -11.225921    15A     -1.369599
      16A     -1.247620    17A     -1.160989    18A     -1.082444
      19A     -1.040978    20A     -1.024997    21A     -1.022466
      22A     -0.924227    23A     -0.868768    24A     -0.847154
      25A     -0.835811    26A     -0.791857    27A     -0.748125
      28A     -0.720516    29A     -0.681577    30A     -0.652663
      31A     -0.637993    32A     -0.630974    33A     -0.625880
      34A     -0.610123    35A     -0.600807    36A     -0.593591
      37A     -0.589066    38A     -0.566463    39A     -0.549370
      40A     -0.534145    41A     -0.512612    42A     -0.503458
      43A     -0.500219    44A     -0.495078    45A     -0.475468
      46A     -0.471155    47A     -0.464542    48A     -0.422891
      49A     -0.367792    50A     -0.344900    51A     -0.342161

  @DF-RHF Final Energy:  -592.68023333302085

   => Energetics <=

    Nuclear Repulsion Energy =            876.7974160800491745
    One-Electron Energy =               -2544.9643974761515892
    Two-Electron Energy =                1075.4867480630816772
    Total Energy =                       -592.6802333330208512
  Basis Set: (AUG-CC-PVTZ AUX)
    Blend: AUG-CC-PVTZ-RI
    Molecular point group: c1

    Geometry (in Angstrom), charge = 0, multiplicity = 1:

       Center              X                  Y                   Z               Mass
    ------------   -----------------  -----------------  -----------------  -----------------
         O           -0.033353343725     2.317466166235    -0.404750899104    15.994914619570
         N            1.150058656275     0.420720166235     0.118770100896    14.003074004430
         C            3.602146656275    -1.076057833765     0.168645100896    12.000000000000
         C            3.452066656275     0.203690166235    -0.653732899104    12.000000000000
         C            2.245860656275    -1.752326833765     0.369641100896    12.000000000000
         C            2.392026056275     1.169374866235    -0.063565499104    12.000000000000
         C            1.243671656275    -0.768816833765     0.964080100896    12.000000000000
         C           -0.017137343725     1.116208166235    -0.107211899104    12.000000000000
         C           -1.295713343725     0.337720166235    -0.054700899104    12.000000000000
         C           -2.398312343725     0.921344166235     0.580447100896    12.000000000000
         C           -1.444771343725    -0.883841833765    -0.725491899104    12.000000000000
         C           -3.629149343725     0.266159166235     0.583612100896    12.000000000000
         C           -2.683009343725    -1.527694833765    -0.734924899104    12.000000000000
         C           -3.774148343725    -0.959038833765    -0.073406899104    12.000000000000
         H            4.306541656275    -1.763525833765    -0.313302899104     1.007825032230
         H            4.025644656275    -0.825729833765     1.151048100896     1.007825032230
         H            4.412475656275     0.727170166235    -0.732729899104     1.007825032230
         H            3.131666656275    -0.045380833765    -1.672582899104     1.007825032230
         H            1.861177656275    -2.111183833765    -0.593062899104     1.007825032230
         H            2.340464656275    -2.622493833765     1.030614100896     1.007825032230
         H            2.760935656275     1.489716166235     0.950759100896     1.007825032230
         H            2.226851656275     2.013254166235    -0.652959899104     1.007825032230
         H            0.256452656275    -1.217730833765     1.071780100896     1.007825032230
         H            1.581856656275    -0.463997833765     1.968430100896     1.007825032230
         H           -2.277990343725     1.890166166235     1.058654100896     1.007825032230
         H           -0.597183343725    -1.313440833765    -1.255832899104     1.007825032230
         H           -4.480479343725     0.716225166235     1.088777100896     1.007825032230
         H           -2.798725343725    -2.469890833765    -1.265627899104     1.007825032230
         H           -4.736925343725    -1.464457833765    -0.077584899104     1.007825032230

  Basis Set: AUG-CC-PVTZ
    Blend: AUG-CC-PVTZ
  Basis Set: (AUG-CC-PVTZ AUX)
    Blend: AUG-CC-PVTZ-JKFIT
	 Reference Energy          =    -592.6802333330208512 [Eh]
	 Singles Energy            =      -0.0000000000000000 [Eh]
	 Same-Spin Energy          =      -0.6432430781933538 [Eh]
	 Opposite-Spin Energy      =      -2.0531172151037436 [Eh]
	 Correlation Energy        =      -2.6963602932970971 [Eh]
	 Total Energy              =    -595.3765936263179128 [Eh]

	 ================> DF-SCS-MP2 Energies <==================
	-----------------------------------------------------------
	 SCS Same-Spin Scale       =       0.3333333333333333 [-]
	 SCS Opposite-Spin Scale   =       1.2000000000000000 [-]
	 SCS Same-Spin Energy      =      -0.2144143593977846 [Eh]
	 SCS Opposite-Spin Energy  =      -2.4637406581244923 [Eh]
	 SCS Correlation Energy    =      -2.6781550175222768 [Eh]
	 SCS Total Energy          =    -595.3583883505431231 [Eh]
	-----------------------------------------------------------

  Dipole Moment: [D]
     X:     1.0268      Y:    -3.4097      Z:     1.1081     Total:     3.7294

*** Psi4 exiting successfully. Buy a developer a beer!
