                               Psi4 1.3.2 release

  ==> Input File <==

--------------------------------------------------------------------------
#psi4
#
memory 32 gb

molecule  {
0 1
  O       -0.0931590     2.3556990    -0.4150330
  N        1.0902530     0.4589530     0.1084880
  C        3.5423410    -1.0378250     0.1583630
  C        3.3922610     0.2419230    -0.6640150
  C        2.1860550    -1.7140940     0.3593590
  C        2.3559930     1.1736850    -0.0440690
  C        1.1838660    -0.7305840     0.9537980
  C       -0.1523214     1.2677087    -0.0395875
  C       -1.3555190     0.3759530    -0.0649830
  C       -2.4581180     0.9595770     0.5701650
  C       -1.5045770    -0.8456090    -0.7357740
  C       -3.6889550     0.3043920     0.5733300
  C       -2.7428150    -1.4894620    -0.7452070
  C       -3.8339540    -0.9208060    -0.0836890
  H        4.2467360    -1.7252930    -0.3235850
  H        3.9658390    -0.7874970     1.1407660
  H        4.3526700     0.7654030    -0.7430120
  H        3.0718610    -0.0071480    -1.6828650
  H        1.8013720    -2.0729510    -0.6033450
  H        2.2806590    -2.5842610     1.0203320
  H        2.7011300     1.5279490     0.9404770
  H        2.1670460     2.0514870    -0.6632420
  H        0.1966470    -1.1794980     1.0614980
  H        1.5220510    -0.4257650     1.9581480
  H       -2.3377960     1.9283990     1.0483720
  H       -0.6569890    -1.2752080    -1.2661150
  H       -4.5402850     0.7544580     1.0784950
  H       -2.8585310    -2.4316580    -1.2759100
  H       -4.7967310    -1.4262250    -0.0878670
units angstrom
no_reorient  #important for SAPT in psi4, default
symmetry c1  #important for SAPT in psi4, default
}

set PROPERTIES_ORIGIN ["COM"]
properties('MP2/aug-cc-pvtz', properties = ['dipole'])
--------------------------------------------------------------------------

    Molecular point group: c1
  Charge       = 0
  Multiplicity = 1
  Basis Set: AUG-CC-PVTZ
    Blend: AUG-CC-PVTZ
  Basis Set: (AUG-CC-PVTZ AUX)
    Blend: AUG-CC-PVTZ-JKFIT

    Orbital Energies [Eh]
    ---------------------

    Doubly Occupied:

       1A    -20.540825     2A    -15.562128     3A    -11.353441
       4A    -11.255076     5A    -11.253881     6A    -11.252110
       7A    -11.249561     8A    -11.247689     9A    -11.246662
      10A    -11.244605    11A    -11.244174    12A    -11.223512
      13A    -11.221482    14A    -11.218404    15A     -1.434428
      16A     -1.225129    17A     -1.163315    18A     -1.070228
      19A     -1.039624    20A     -1.026024    21A     -1.017685
      22A     -0.904655    23A     -0.859140    24A     -0.846286
      25A     -0.834603    26A     -0.782456    27A     -0.745120
      28A     -0.715264    29A     -0.687972    30A     -0.662110
      31A     -0.639513    32A     -0.627362    33A     -0.622615
      34A     -0.612494    35A     -0.601411    36A     -0.593179
      37A     -0.588580    38A     -0.559734    39A     -0.554136
      40A     -0.538499    41A     -0.521217    42A     -0.505848
      43A     -0.502980    44A     -0.492802    45A     -0.476352
      46A     -0.465514    47A     -0.451982    48A     -0.421898
      49A     -0.359523    50A     -0.346659    51A     -0.344921

  @DF-RHF Final Energy:  -592.66424186252948

   => Energetics <=

    Nuclear Repulsion Energy =            876.2610983061988463
    One-Electron Energy =               -2543.9410608012640296
    Two-Electron Energy =                1075.0157206325357038
    Total Energy =                       -592.6642418625294795
  Basis Set: (AUG-CC-PVTZ AUX)
    Blend: AUG-CC-PVTZ-RI
    Molecular point group: c1

    Geometry (in Angstrom), charge = 0, multiplicity = 1:

       Center              X                  Y                   Z               Mass
    ------------   -----------------  -----------------  -----------------  -----------------
         O           -0.030078783761     2.312431461601    -0.411583877514    15.994914619570
         N            1.153333216239     0.415685461601     0.111937122486    14.003074004430
         C            3.605421216239    -1.081092538399     0.161812122486    12.000000000000
         C            3.455341216239     0.198655461601    -0.660565877514    12.000000000000
         C            2.249135216239    -1.757361538399     0.362808122486    12.000000000000
         C            2.419073216239     1.130417461601    -0.040619877514    12.000000000000
         C            1.246946216239    -0.773851538399     0.957247122486    12.000000000000
         C           -0.089241183761     1.224441161601    -0.036138377514    12.000000000000
         C           -1.292438783761     0.332685461601    -0.061533877514    12.000000000000
         C           -2.395037783761     0.916309461601     0.573614122486    12.000000000000
         C           -1.441496783761    -0.888876538399    -0.732324877514    12.000000000000
         C           -3.625874783761     0.261124461601     0.576779122486    12.000000000000
         C           -2.679734783761    -1.532729538399    -0.741757877514    12.000000000000
         C           -3.770873783761    -0.964073538399    -0.080239877514    12.000000000000
         H            4.309816216239    -1.768560538399    -0.320135877514     1.007825032230
         H            4.028919216239    -0.830764538399     1.144215122486     1.007825032230
         H            4.415750216239     0.722135461601    -0.739562877514     1.007825032230
         H            3.134941216239    -0.050415538399    -1.679415877514     1.007825032230
         H            1.864452216239    -2.116218538399    -0.599895877514     1.007825032230
         H            2.343739216239    -2.627528538399     1.023781122486     1.007825032230
         H            2.764210216239     1.484681461601     0.943926122486     1.007825032230
         H            2.230126216239     2.008219461601    -0.659792877514     1.007825032230
         H            0.259727216239    -1.222765538399     1.064947122486     1.007825032230
         H            1.585131216239    -0.469032538399     1.961597122486     1.007825032230
         H           -2.274715783761     1.885131461601     1.051821122486     1.007825032230
         H           -0.593908783761    -1.318475538399    -1.262665877514     1.007825032230
         H           -4.477204783761     0.711190461601     1.081944122486     1.007825032230
         H           -2.795450783761    -2.474925538399    -1.272460877514     1.007825032230
         H           -4.733650783761    -1.469492538399    -0.084417877514     1.007825032230

  Basis Set: AUG-CC-PVTZ
    Blend: AUG-CC-PVTZ
  Basis Set: (AUG-CC-PVTZ AUX)
    Blend: AUG-CC-PVTZ-JKFIT
	 Reference Energy          =    -592.6642418625294795 [Eh]
	 Singles Energy            =      -0.0000000000000000 [Eh]
	 Same-Spin Energy          =      -0.6426087965871963 [Eh]
	 Opposite-Spin Energy      =      -2.0520332510014954 [Eh]
	 Correlation Energy        =      -2.6946420475886916 [Eh]
	 Total Energy              =    -595.3588839101181520 [Eh]

	 ================> DF-SCS-MP2 Energies <==================
	-----------------------------------------------------------
	 SCS Same-Spin Scale       =       0.3333333333333333 [-]
	 SCS Opposite-Spin Scale   =       1.2000000000000000 [-]
	 SCS Same-Spin Energy      =      -0.2142029321957321 [Eh]
	 SCS Opposite-Spin Energy  =      -2.4624399012017943 [Eh]
	 SCS Correlation Energy    =      -2.6766428333975263 [Eh]
	 SCS Total Energy          =    -595.3408846959270022 [Eh]
	-----------------------------------------------------------

  Dipole Moment: [D]
     X:     0.1700      Y:    -2.6323      Z:     0.9243     Total:     2.7951

*** Psi4 exiting successfully. Buy a developer a beer!
