                               Psi4 1.3.2 release

  ==> Input File <==

--------------------------------------------------------------------------
#psi4
#
memory 32 gb

molecule  {
0 1
  O       -0.0931590     2.3556990    -0.4150330
  N        1.0902530     0.4589530     0.1084880
  C        3.5423410    -1.0378250     0.1583630
  C        3.3922610     0.2419230    -0.6640150
  C        2.1860550    -1.7140940     0.3593590
  C        2.3442977     1.1907578    -0.0589838
  C        1.1838660    -0.7305840     0.9537980
  C       -0.0769430     1.1544410    -0.1174940
  C       -1.3555190     0.3759530    -0.0649830
  C       -2.4581180     0.9595770     0.5701650
  C       -1.5045770    -0.8456090    -0.7357740
  C       -3.6889550     0.3043920     0.5733300
  C       -2.7428150    -1.4894620    -0.7452070
  C       -3.8339540    -0.9208060    -0.0836890
  H        4.2467360    -1.7252930    -0.3235850
  H        3.9658390    -0.7874970     1.1407660
  H        4.3526700     0.7654030    -0.7430120
  H        3.0718610    -0.0071480    -1.6828650
  H        1.8013720    -2.0729510    -0.6033450
  H        2.2806590    -2.5842610     1.0203320
  H        2.7011300     1.5279490     0.9404770
  H        2.1670460     2.0514870    -0.6632420
  H        0.1966470    -1.1794980     1.0614980
  H        1.5220510    -0.4257650     1.9581480
  H       -2.3377960     1.9283990     1.0483720
  H       -0.6569890    -1.2752080    -1.2661150
  H       -4.5402850     0.7544580     1.0784950
  H       -2.8585310    -2.4316580    -1.2759100
  H       -4.7967310    -1.4262250    -0.0878670
units angstrom
no_reorient  #important for SAPT in psi4, default
symmetry c1  #important for SAPT in psi4, default
}

set PROPERTIES_ORIGIN ["COM"]
properties('MP2/aug-cc-pvtz', properties = ['dipole'])
--------------------------------------------------------------------------

    Molecular point group: c1
  Charge       = 0
  Multiplicity = 1
  Basis Set: AUG-CC-PVTZ
    Blend: AUG-CC-PVTZ
  Basis Set: (AUG-CC-PVTZ AUX)
    Blend: AUG-CC-PVTZ-JKFIT

    Orbital Energies [Eh]
    ---------------------

    Doubly Occupied:

       1A    -20.514748     2A    -15.581862     3A    -11.349986
       4A    -11.267743     5A    -11.253358     6A    -11.250957
       7A    -11.249779     8A    -11.247823     9A    -11.245615
      10A    -11.245443    11A    -11.243338    12A    -11.231100
      13A    -11.228295    14A    -11.225458    15A     -1.369344
      16A     -1.247830    17A     -1.161038    18A     -1.083104
      19A     -1.040826    20A     -1.025370    21A     -1.022674
      22A     -0.924414    23A     -0.868244    24A     -0.846565
      25A     -0.835756    26A     -0.792604    27A     -0.747820
      28A     -0.720281    29A     -0.681285    30A     -0.651865
      31A     -0.638331    32A     -0.630811    33A     -0.625890
      34A     -0.610400    35A     -0.600878    36A     -0.593682
      37A     -0.588955    38A     -0.563496    39A     -0.550041
      40A     -0.534216    41A     -0.512868    42A     -0.503639
      43A     -0.500932    44A     -0.495548    45A     -0.477103
      46A     -0.469795    47A     -0.463221    48A     -0.422765
      49A     -0.368740    50A     -0.344911    51A     -0.342225

  @DF-RHF Final Energy:  -592.68241018089975

   => Energetics <=

    Nuclear Repulsion Energy =            876.9072338500277510
    One-Electron Energy =               -2545.1933397962552590
    Two-Electron Energy =                1075.6036957653277568
    Total Energy =                       -592.6824101808997511
  Basis Set: (AUG-CC-PVTZ AUX)
    Blend: AUG-CC-PVTZ-RI
    Molecular point group: c1

    Geometry (in Angstrom), charge = 0, multiplicity = 1:

       Center              X                  Y                   Z               Mass
    ------------   -----------------  -----------------  -----------------  -----------------
         O           -0.034119688653     2.318535348535    -0.405694056741    15.994914619570
         N            1.149292311347     0.421789348535     0.117826943259    14.003074004430
         C            3.601380311347    -1.074988651465     0.167701943259    12.000000000000
         C            3.451300311347     0.204759348535    -0.654676056741    12.000000000000
         C            2.245094311347    -1.751257651465     0.368697943259    12.000000000000
         C            2.403337011347     1.153594148535    -0.049644856741    12.000000000000
         C            1.242905311347    -0.767747651465     0.963136943259    12.000000000000
         C           -0.017903688653     1.117277348535    -0.108155056741    12.000000000000
         C           -1.296479688653     0.338789348535    -0.055644056741    12.000000000000
         C           -2.399078688653     0.922413348535     0.579503943259    12.000000000000
         C           -1.445537688653    -0.882772651465    -0.726435056741    12.000000000000
         C           -3.629915688653     0.267228348535     0.582668943259    12.000000000000
         C           -2.683775688653    -1.526625651465    -0.735868056741    12.000000000000
         C           -3.774914688653    -0.957969651465    -0.074350056741    12.000000000000
         H            4.305775311347    -1.762456651465    -0.314246056741     1.007825032230
         H            4.024878311347    -0.824660651465     1.150104943259     1.007825032230
         H            4.411709311347     0.728239348535    -0.733673056741     1.007825032230
         H            3.130900311347    -0.044311651465    -1.673526056741     1.007825032230
         H            1.860411311347    -2.110114651465    -0.594006056741     1.007825032230
         H            2.339698311347    -2.621424651465     1.029670943259     1.007825032230
         H            2.760169311347     1.490785348535     0.949815943259     1.007825032230
         H            2.226085311347     2.014323348535    -0.653903056741     1.007825032230
         H            0.255686311347    -1.216661651465     1.070836943259     1.007825032230
         H            1.581090311347    -0.462928651465     1.967486943259     1.007825032230
         H           -2.278756688653     1.891235348535     1.057710943259     1.007825032230
         H           -0.597949688653    -1.312371651465    -1.256776056741     1.007825032230
         H           -4.481245688653     0.717294348535     1.087833943259     1.007825032230
         H           -2.799491688653    -2.468821651465    -1.266571056741     1.007825032230
         H           -4.737691688653    -1.463388651465    -0.078528056741     1.007825032230

  Basis Set: AUG-CC-PVTZ
    Blend: AUG-CC-PVTZ
  Basis Set: (AUG-CC-PVTZ AUX)
    Blend: AUG-CC-PVTZ-JKFIT
	 Reference Energy          =    -592.6824101808997511 [Eh]
	 Singles Energy            =      -0.0000000000000000 [Eh]
	 Same-Spin Energy          =      -0.6433341876059663 [Eh]
	 Opposite-Spin Energy      =      -2.0531612134467974 [Eh]
	 Correlation Energy        =      -2.6964954010527635 [Eh]
	 Total Energy              =    -595.3789055819524947 [Eh]

	 ================> DF-SCS-MP2 Energies <==================
	-----------------------------------------------------------
	 SCS Same-Spin Scale       =       0.3333333333333333 [-]
	 SCS Opposite-Spin Scale   =       1.2000000000000000 [-]
	 SCS Same-Spin Energy      =      -0.2144447292019888 [Eh]
	 SCS Opposite-Spin Energy  =      -2.4637934561361567 [Eh]
	 SCS Correlation Energy    =      -2.6782381853381456 [Eh]
	 SCS Total Energy          =    -595.3606483662379105 [Eh]
	-----------------------------------------------------------

  Dipole Moment: [D]
     X:     1.0295      Y:    -3.4007      Z:     1.1156     Total:     3.7242

*** Psi4 exiting successfully. Buy a developer a beer!
