                               Psi4 1.4a3.dev225

  ==> Input File <==

--------------------------------------------------------------------------
#psi4
#
memory 32 gb

molecule  {
0 1
  O       -0.0931590     2.3556990    -0.4150330
  N        1.0902530     0.4589530     0.1084880
  C        3.5423410    -1.0378250     0.1583630
  C        3.3922610     0.2419230    -0.6640150
  C        2.1860550    -1.7140940     0.3593590
  C        2.3559930     1.1736850    -0.0440690
  C        1.1838660    -0.7305840     0.9537980
  C       -0.0599947     1.1443421    -0.1142126
  C       -1.3555190     0.3759530    -0.0649830
  C       -2.4581180     0.9595770     0.5701650
  C       -1.5045770    -0.8456090    -0.7357740
  C       -3.6889550     0.3043920     0.5733300
  C       -2.7428150    -1.4894620    -0.7452070
  C       -3.8339540    -0.9208060    -0.0836890
  H        4.2467360    -1.7252930    -0.3235850
  H        3.9658390    -0.7874970     1.1407660
  H        4.3526700     0.7654030    -0.7430120
  H        3.0718610    -0.0071480    -1.6828650
  H        1.8013720    -2.0729510    -0.6033450
  H        2.2806590    -2.5842610     1.0203320
  H        2.7011300     1.5279490     0.9404770
  H        2.1670460     2.0514870    -0.6632420
  H        0.1966470    -1.1794980     1.0614980
  H        1.5220510    -0.4257650     1.9581480
  H       -2.3377960     1.9283990     1.0483720
  H       -0.6569890    -1.2752080    -1.2661150
  H       -4.5402850     0.7544580     1.0784950
  H       -2.8585310    -2.4316580    -1.2759100
  H       -4.7967310    -1.4262250    -0.0878670
units angstrom
no_reorient  #important for SAPT in psi4, default
symmetry c1  #important for SAPT in psi4, default
}

set PROPERTIES_ORIGIN ["COM"]
properties('MP2/aug-cc-pvtz', properties = ['dipole'])
--------------------------------------------------------------------------

    Molecular point group: c1
  Charge       = 0
  Multiplicity = 1
  Basis Set: AUG-CC-PVTZ
    Blend: AUG-CC-PVTZ
  Basis Set: (AUG-CC-PVTZ AUX)
    Blend: AUG-CC-PVTZ-JKFIT

    Orbital Energies [Eh]
    ---------------------

    Doubly Occupied:

       1A    -20.511162     2A    -15.585142     3A    -11.349545
       4A    -11.269321     5A    -11.255128     6A    -11.250809
       7A    -11.248982     8A    -11.246882     9A    -11.244766
      10A    -11.244655    11A    -11.242647    12A    -11.232490
      13A    -11.229203    14A    -11.226460    15A     -1.363165
      16A     -1.252015    17A     -1.159961    18A     -1.086594
      19A     -1.040668    20A     -1.025895    21A     -1.022292
      22A     -0.928469    23A     -0.869421    24A     -0.845194
      25A     -0.834967    26A     -0.795380    27A     -0.748371
      28A     -0.720796    29A     -0.679825    30A     -0.651889
      31A     -0.639232    32A     -0.632068    33A     -0.625153
      34A     -0.611500    35A     -0.600107    36A     -0.593435
      37A     -0.589526    38A     -0.561094    39A     -0.551066
      40A     -0.533347    41A     -0.511848    42A     -0.503915
      43A     -0.502079    44A     -0.495549    45A     -0.478583
      46A     -0.470181    47A     -0.462293    48A     -0.420258
      49A     -0.371773    50A     -0.344208    51A     -0.340926

  @DF-RHF Final Energy:  -592.68209289385277

   => Energetics <=

    Nuclear Repulsion Energy =            877.1303720348367960
    One-Electron Energy =               -2545.6244612494278954
    Two-Electron Energy =                1075.8119963207382170
    Total Energy =                       -592.6820928938527686
  Basis Set: (AUG-CC-PVTZ AUX)
    Blend: AUG-CC-PVTZ-RI
    Molecular point group: c1

    Geometry (in Angstrom), charge = 0, multiplicity = 1:

       Center              X                  Y                   Z               Mass
    ------------   -----------------  -----------------  -----------------  -----------------
         O           -0.035937220516     2.320259483438    -0.406848666262    15.994914619570
         N            1.147474779484     0.423513483438     0.116672333738    14.003074004430
         C            3.599562779484    -1.073264516562     0.166547333738    12.000000000000
         C            3.449482779484     0.206483483438    -0.655830666262    12.000000000000
         C            2.243276779484    -1.749533516562     0.367543333738    12.000000000000
         C            2.413214779484     1.138245483438    -0.035884666262    12.000000000000
         C            1.241087779484    -0.766023516562     0.961982333738    12.000000000000
         C           -0.002772920516     1.108902583438    -0.106028266262    12.000000000000
         C           -1.298297220516     0.340513483438    -0.056798666262    12.000000000000
         C           -2.400896220516     0.924137483438     0.578349333738    12.000000000000
         C           -1.447355220516    -0.881048516562    -0.727589666262    12.000000000000
         C           -3.631733220516     0.268952483438     0.581514333738    12.000000000000
         C           -2.685593220516    -1.524901516562    -0.737022666262    12.000000000000
         C           -3.776732220516    -0.956245516562    -0.075504666262    12.000000000000
         H            4.303957779484    -1.760732516562    -0.315400666262     1.007825032230
         H            4.023060779484    -0.822936516562     1.148950333738     1.007825032230
         H            4.409891779484     0.729963483438    -0.734827666262     1.007825032230
         H            3.129082779484    -0.042587516562    -1.674680666262     1.007825032230
         H            1.858593779484    -2.108390516562    -0.595160666262     1.007825032230
         H            2.337880779484    -2.619700516562     1.028516333738     1.007825032230
         H            2.758351779484     1.492509483438     0.948661333738     1.007825032230
         H            2.224267779484     2.016047483438    -0.655057666262     1.007825032230
         H            0.253868779484    -1.214937516562     1.069682333738     1.007825032230
         H            1.579272779484    -0.461204516562     1.966332333738     1.007825032230
         H           -2.280574220516     1.892959483438     1.056556333738     1.007825032230
         H           -0.599767220516    -1.310647516562    -1.257930666262     1.007825032230
         H           -4.483063220516     0.719018483438     1.086679333738     1.007825032230
         H           -2.801309220516    -2.467097516562    -1.267725666262     1.007825032230
         H           -4.739509220516    -1.461664516562    -0.079682666262     1.007825032230

  Basis Set: AUG-CC-PVTZ
    Blend: AUG-CC-PVTZ
  Basis Set: (AUG-CC-PVTZ AUX)
    Blend: AUG-CC-PVTZ-JKFIT
	 Reference Energy          =    -592.6820928938527686 [Eh]
	 Singles Energy            =      -0.0000000000000000 [Eh]
	 Same-Spin Energy          =      -0.6435740648814703 [Eh]
	 Opposite-Spin Energy      =      -2.0535195680653944 [Eh]
	 Correlation Energy        =      -2.6970936329468644 [Eh]
	 Total Energy              =    -595.3791865267996855 [Eh]

	 ================> DF-SCS-MP2 Energies <==================
	-----------------------------------------------------------
	 SCS Same-Spin Scale       =       0.3333333333333333 [-]
	 SCS Opposite-Spin Scale   =       1.2000000000000000 [-]
	 SCS Same-Spin Energy      =      -0.2145246882938234 [Eh]
	 SCS Opposite-Spin Energy  =      -2.4642234816784732 [Eh]
	 SCS Correlation Energy    =      -2.6787481699722964 [Eh]
	 SCS Total Energy          =    -595.3608410638250916 [Eh]
	-----------------------------------------------------------

  Dipole Moment: [D]
     X:     1.2228      Y:    -3.4852      Z:     1.1672     Total:     3.8736

*** Psi4 exiting successfully. Buy a developer a beer!
