                               Psi4 1.3.2 release

  ==> Input File <==

--------------------------------------------------------------------------
#psi4
#
memory 32 gb

molecule  {
0 1
  O       -0.0931590     2.3556990    -0.4150330
  N        1.0902530     0.4589530     0.1084880
  C        3.5423410    -1.0378250     0.1583630
  C        3.3922610     0.2419230    -0.6640150
  C        2.1860550    -1.7140940     0.3593590
  C        2.3559930     1.1736850    -0.0440690
  C        1.1838660    -0.7305840     0.9537980
  C        0.0925402     1.0534524    -0.0846802
  C       -1.3555190     0.3759530    -0.0649830
  C       -2.4581180     0.9595770     0.5701650
  C       -1.5045770    -0.8456090    -0.7357740
  C       -3.6889550     0.3043920     0.5733300
  C       -2.7428150    -1.4894620    -0.7452070
  C       -3.8339540    -0.9208060    -0.0836890
  H        4.2467360    -1.7252930    -0.3235850
  H        3.9658390    -0.7874970     1.1407660
  H        4.3526700     0.7654030    -0.7430120
  H        3.0718610    -0.0071480    -1.6828650
  H        1.8013720    -2.0729510    -0.6033450
  H        2.2806590    -2.5842610     1.0203320
  H        2.7011300     1.5279490     0.9404770
  H        2.1670460     2.0514870    -0.6632420
  H        0.1966470    -1.1794980     1.0614980
  H        1.5220510    -0.4257650     1.9581480
  H       -2.3377960     1.9283990     1.0483720
  H       -0.6569890    -1.2752080    -1.2661150
  H       -4.5402850     0.7544580     1.0784950
  H       -2.8585310    -2.4316580    -1.2759100
  H       -4.7967310    -1.4262250    -0.0878670
units angstrom
no_reorient  #important for SAPT in psi4, default
symmetry c1  #important for SAPT in psi4, default
}

set PROPERTIES_ORIGIN ["COM"]
properties('MP2/aug-cc-pvtz', properties = ['dipole'])
--------------------------------------------------------------------------

    Molecular point group: c1
  Charge       = 0
  Multiplicity = 1
  Basis Set: AUG-CC-PVTZ
    Blend: AUG-CC-PVTZ
  Basis Set: (AUG-CC-PVTZ AUX)
    Blend: AUG-CC-PVTZ-JKFIT

    Orbital Energies [Eh]
    ---------------------

    Doubly Occupied:

       1A    -20.476877     2A    -15.612332     3A    -11.336594
       4A    -11.288938     5A    -11.271668     6A    -11.251779
       7A    -11.246344     8A    -11.241044     9A    -11.239919
      10A    -11.239529    11A    -11.238771    12A    -11.237792
      13A    -11.236769    14A    -11.235384    15A     -1.376587
      16A     -1.236155    17A     -1.150257    18A     -1.113708
      19A     -1.053833    20A     -1.018614    21A     -1.014042
      22A     -0.967362    23A     -0.888098    24A     -0.837532
      25A     -0.826195    26A     -0.811763    27A     -0.762392
      28A     -0.718648    29A     -0.673406    30A     -0.666983
      31A     -0.657177    32A     -0.642270    33A     -0.620074
      34A     -0.613751    35A     -0.603962    36A     -0.600016
      37A     -0.586542    38A     -0.567713    39A     -0.541147
      40A     -0.532938    41A     -0.519847    42A     -0.500994
      43A     -0.494143    44A     -0.489740    45A     -0.482478
      46A     -0.477280    47A     -0.466752    48A     -0.390453
      49A     -0.375345    50A     -0.337892    51A     -0.326691

  @DF-RHF Final Energy:  -592.61920458993859

   => Energetics <=

    Nuclear Repulsion Energy =            878.5210693797740760
    One-Electron Energy =               -2548.0875034236996726
    Two-Electron Energy =                1076.9472294539871200
    Total Energy =                       -592.6192045899385903
  Basis Set: (AUG-CC-PVTZ AUX)
    Blend: AUG-CC-PVTZ-RI
    Molecular point group: c1

    Geometry (in Angstrom), charge = 0, multiplicity = 1:

       Center              X                  Y                   Z               Mass
    ------------   -----------------  -----------------  -----------------  -----------------
         O           -0.045616068179     2.326026737755    -0.408722595447    15.994914619570
         N            1.137795931821     0.429280737755     0.114798404553    14.003074004430
         C            3.589883931821    -1.067497262245     0.164673404553    12.000000000000
         C            3.439803931821     0.212250737755    -0.657704595447    12.000000000000
         C            2.233597931821    -1.743766262245     0.365669404553    12.000000000000
         C            2.403535931821     1.144012737755    -0.037758595447    12.000000000000
         C            1.231408931821    -0.760256262245     0.960108404553    12.000000000000
         C            0.140083131821     1.023780137755    -0.078369795447    12.000000000000
         C           -1.307976068179     0.346280737755    -0.058672595447    12.000000000000
         C           -2.410575068179     0.929904737755     0.576475404553    12.000000000000
         C           -1.457034068179    -0.875281262245    -0.729463595447    12.000000000000
         C           -3.641412068179     0.274719737755     0.579640404553    12.000000000000
         C           -2.695272068179    -1.519134262245    -0.738896595447    12.000000000000
         C           -3.786411068179    -0.950478262245    -0.077378595447    12.000000000000
         H            4.294278931821    -1.754965262245    -0.317274595447     1.007825032230
         H            4.013381931821    -0.817169262245     1.147076404553     1.007825032230
         H            4.400212931821     0.735730737755    -0.736701595447     1.007825032230
         H            3.119403931821    -0.036820262245    -1.676554595447     1.007825032230
         H            1.848914931821    -2.102623262245    -0.597034595447     1.007825032230
         H            2.328201931821    -2.613933262245     1.026642404553     1.007825032230
         H            2.748672931821     1.498276737755     0.946787404553     1.007825032230
         H            2.214588931821     2.021814737755    -0.656931595447     1.007825032230
         H            0.244189931821    -1.209170262245     1.067808404553     1.007825032230
         H            1.569593931821    -0.455437262245     1.964458404553     1.007825032230
         H           -2.290253068179     1.898726737755     1.054682404553     1.007825032230
         H           -0.609446068179    -1.304880262245    -1.259804595447     1.007825032230
         H           -4.492742068179     0.724785737755     1.084805404553     1.007825032230
         H           -2.810988068179    -2.461330262245    -1.269599595447     1.007825032230
         H           -4.749188068179    -1.455897262245    -0.081556595447     1.007825032230

  Basis Set: AUG-CC-PVTZ
    Blend: AUG-CC-PVTZ
  Basis Set: (AUG-CC-PVTZ AUX)
    Blend: AUG-CC-PVTZ-JKFIT
	 Reference Energy          =    -592.6192045899385903 [Eh]
	 Singles Energy            =      -0.0000000000000000 [Eh]
	 Same-Spin Energy          =      -0.6448098322123079 [Eh]
	 Opposite-Spin Energy      =      -2.0560640963523586 [Eh]
	 Correlation Energy        =      -2.7008739285646666 [Eh]
	 Total Energy              =    -595.3200785185032373 [Eh]

	 ================> DF-SCS-MP2 Energies <==================
	-----------------------------------------------------------
	 SCS Same-Spin Scale       =       0.3333333333333333 [-]
	 SCS Opposite-Spin Scale   =       1.2000000000000000 [-]
	 SCS Same-Spin Energy      =      -0.2149366107374360 [Eh]
	 SCS Opposite-Spin Energy  =      -2.4672769156228305 [Eh]
	 SCS Correlation Energy    =      -2.6822135263602664 [Eh]
	 SCS Total Energy          =    -595.3014181162988052 [Eh]
	-----------------------------------------------------------

  Dipole Moment: [D]
     X:     2.8303      Y:    -4.3649      Z:     1.5636     Total:     5.4321

*** Psi4 exiting successfully. Buy a developer a beer!
