                               Psi4 1.4a3.dev225

  ==> Input File <==

--------------------------------------------------------------------------
#psi4
#
memory 32 gb

molecule  {
0 1
  O       -0.0931590     2.3556990    -0.4150330
  N        1.0902530     0.4589530     0.1084880
  C        3.5423410    -1.0378250     0.1583630
  C        3.3922610     0.2419230    -0.6640150
  C        2.1860550    -1.7140940     0.3593590
  C        2.3559930     1.1736850    -0.0440690
  C        1.1838660    -0.7305840     0.9537980
  C       -0.0769430     1.1544410    -0.1174940
  C       -1.3725911     0.3655583    -0.0642818
  C       -2.4581180     0.9595770     0.5701650
  C       -1.5045770    -0.8456090    -0.7357740
  C       -3.6889550     0.3043920     0.5733300
  C       -2.7428150    -1.4894620    -0.7452070
  C       -3.8339540    -0.9208060    -0.0836890
  H        4.2467360    -1.7252930    -0.3235850
  H        3.9658390    -0.7874970     1.1407660
  H        4.3526700     0.7654030    -0.7430120
  H        3.0718610    -0.0071480    -1.6828650
  H        1.8013720    -2.0729510    -0.6033450
  H        2.2806590    -2.5842610     1.0203320
  H        2.7011300     1.5279490     0.9404770
  H        2.1670460     2.0514870    -0.6632420
  H        0.1966470    -1.1794980     1.0614980
  H        1.5220510    -0.4257650     1.9581480
  H       -2.3377960     1.9283990     1.0483720
  H       -0.6569890    -1.2752080    -1.2661150
  H       -4.5402850     0.7544580     1.0784950
  H       -2.8585310    -2.4316580    -1.2759100
  H       -4.7967310    -1.4262250    -0.0878670
units angstrom
no_reorient  #important for SAPT in psi4, default
symmetry c1  #important for SAPT in psi4, default
}

set PROPERTIES_ORIGIN ["COM"]
properties('MP2/aug-cc-pvtz', properties = ['dipole'])
--------------------------------------------------------------------------

    Molecular point group: c1
  Charge       = 0
  Multiplicity = 1
  Basis Set: AUG-CC-PVTZ
    Blend: AUG-CC-PVTZ
  Basis Set: (AUG-CC-PVTZ AUX)
    Blend: AUG-CC-PVTZ-JKFIT

    Orbital Energies [Eh]
    ---------------------

    Doubly Occupied:

       1A    -20.515016     2A    -15.581761     3A    -11.351096
       4A    -11.267218     5A    -11.253391     6A    -11.250205
       7A    -11.248430     8A    -11.247106     9A    -11.245242
      10A    -11.244327    11A    -11.243011    12A    -11.231024
      13A    -11.227959    14A    -11.225090    15A     -1.368633
      16A     -1.247969    17A     -1.162800    18A     -1.083616
      19A     -1.040057    20A     -1.025958    21A     -1.023543
      22A     -0.923912    23A     -0.867106    24A     -0.844512
      25A     -0.836656    26A     -0.793616    27A     -0.747541
      28A     -0.719888    29A     -0.679527    30A     -0.650934
      31A     -0.638843    32A     -0.630688    33A     -0.625882
      34A     -0.611573    35A     -0.600854    36A     -0.594250
      37A     -0.588872    38A     -0.560585    39A     -0.550703
      40A     -0.533959    41A     -0.511805    42A     -0.505326
      43A     -0.502211    44A     -0.497195    45A     -0.478685
      46A     -0.468983    47A     -0.460715    48A     -0.420929
      49A     -0.369623    50A     -0.345189    51A     -0.343192

  @DF-RHF Final Energy:  -592.68292509553066

   => Energetics <=

    Nuclear Repulsion Energy =            876.9792377434546324
    One-Electron Energy =               -2545.3499149167209907
    Two-Electron Energy =                1075.6877520777356949
    Total Energy =                       -592.6829250955306634
  Basis Set: (AUG-CC-PVTZ AUX)
    Blend: AUG-CC-PVTZ-RI
    Molecular point group: c1

    Geometry (in Angstrom), charge = 0, multiplicity = 1:

       Center              X                  Y                   Z               Mass
    ------------   -----------------  -----------------  -----------------  -----------------
         O           -0.033778512777     2.320278252934    -0.406684943975    15.994914619570
         N            1.149633487223     0.423532252934     0.116836056025    14.003074004430
         C            3.601721487223    -1.073245747066     0.166711056025    12.000000000000
         C            3.451641487223     0.206502252934    -0.655666943975    12.000000000000
         C            2.245435487223    -1.749514747066     0.367707056025    12.000000000000
         C            2.415373487223     1.138264252934    -0.035720943975    12.000000000000
         C            1.243246487223    -0.766004747066     0.962146056025    12.000000000000
         C           -0.017562512777     1.119020252934    -0.109145943975    12.000000000000
         C           -1.313210612777     0.330137552934    -0.055933743975    12.000000000000
         C           -2.398737512777     0.924156252934     0.578513056025    12.000000000000
         C           -1.445196512777    -0.881029747066    -0.727425943975    12.000000000000
         C           -3.629574512777     0.268971252934     0.581678056025    12.000000000000
         C           -2.683434512777    -1.524882747066    -0.736858943975    12.000000000000
         C           -3.774573512777    -0.956226747066    -0.075340943975    12.000000000000
         H            4.306116487223    -1.760713747066    -0.315236943975     1.007825032230
         H            4.025219487223    -0.822917747066     1.149114056025     1.007825032230
         H            4.412050487223     0.729982252934    -0.734663943975     1.007825032230
         H            3.131241487223    -0.042568747066    -1.674516943975     1.007825032230
         H            1.860752487223    -2.108371747066    -0.594996943975     1.007825032230
         H            2.340039487223    -2.619681747066     1.028680056025     1.007825032230
         H            2.760510487223     1.492528252934     0.948825056025     1.007825032230
         H            2.226426487223     2.016066252934    -0.654893943975     1.007825032230
         H            0.256027487223    -1.214918747066     1.069846056025     1.007825032230
         H            1.581431487223    -0.461185747066     1.966496056025     1.007825032230
         H           -2.278415512777     1.892978252934     1.056720056025     1.007825032230
         H           -0.597608512777    -1.310628747066    -1.257766943975     1.007825032230
         H           -4.480904512777     0.719037252934     1.086843056025     1.007825032230
         H           -2.799150512777    -2.467078747066    -1.267561943975     1.007825032230
         H           -4.737350512777    -1.461645747066    -0.079518943975     1.007825032230

  Basis Set: AUG-CC-PVTZ
    Blend: AUG-CC-PVTZ
  Basis Set: (AUG-CC-PVTZ AUX)
    Blend: AUG-CC-PVTZ-JKFIT
	 Reference Energy          =    -592.6829250955306634 [Eh]
	 Singles Energy            =      -0.0000000000000000 [Eh]
	 Same-Spin Energy          =      -0.6433069242367252 [Eh]
	 Opposite-Spin Energy      =      -2.0529961704716770 [Eh]
	 Correlation Energy        =      -2.6963030947084023 [Eh]
	 Total Energy              =    -595.3792281902390187 [Eh]

	 ================> DF-SCS-MP2 Energies <==================
	-----------------------------------------------------------
	 SCS Same-Spin Scale       =       0.3333333333333333 [-]
	 SCS Opposite-Spin Scale   =       1.2000000000000000 [-]
	 SCS Same-Spin Energy      =      -0.2144356414122417 [Eh]
	 SCS Opposite-Spin Energy  =      -2.4635954045660124 [Eh]
	 SCS Correlation Energy    =      -2.6780310459782544 [Eh]
	 SCS Total Energy          =    -595.3609561415089502 [Eh]
	-----------------------------------------------------------

  Dipole Moment: [D]
     X:     1.0515      Y:    -3.3803      Z:     1.1227     Total:     3.7138

*** Psi4 exiting successfully. Buy a developer a beer!
