                               Psi4 1.3.2 release

  ==> Input File <==

--------------------------------------------------------------------------
#psi4
#
memory 32 gb

molecule  {
0 1
  O       -0.0931590     2.3556990    -0.4150330
  N        1.0902530     0.4589530     0.1084880
  C        3.5423410    -1.0378250     0.1583630
  C        3.3922610     0.2419230    -0.6640150
  C        2.1860550    -1.7140940     0.3593590
  C        2.2693921     1.1247836    -0.0336312
  C        1.1838660    -0.7305840     0.9537980
  C       -0.0769430     1.1544410    -0.1174940
  C       -1.3555190     0.3759530    -0.0649830
  C       -2.4581180     0.9595770     0.5701650
  C       -1.5045770    -0.8456090    -0.7357740
  C       -3.6889550     0.3043920     0.5733300
  C       -2.7428150    -1.4894620    -0.7452070
  C       -3.8339540    -0.9208060    -0.0836890
  H        4.2467360    -1.7252930    -0.3235850
  H        3.9658390    -0.7874970     1.1407660
  H        4.3526700     0.7654030    -0.7430120
  H        3.0718610    -0.0071480    -1.6828650
  H        1.8013720    -2.0729510    -0.6033450
  H        2.2806590    -2.5842610     1.0203320
  H        2.7011300     1.5279490     0.9404770
  H        2.1670460     2.0514870    -0.6632420
  H        0.1966470    -1.1794980     1.0614980
  H        1.5220510    -0.4257650     1.9581480
  H       -2.3377960     1.9283990     1.0483720
  H       -0.6569890    -1.2752080    -1.2661150
  H       -4.5402850     0.7544580     1.0784950
  H       -2.8585310    -2.4316580    -1.2759100
  H       -4.7967310    -1.4262250    -0.0878670
units angstrom
no_reorient  #important for SAPT in psi4, default
symmetry c1  #important for SAPT in psi4, default
}

set PROPERTIES_ORIGIN ["COM"]
properties('MP2/aug-cc-pvtz', properties = ['dipole'])
--------------------------------------------------------------------------

    Molecular point group: c1
  Charge       = 0
  Multiplicity = 1
  Basis Set: AUG-CC-PVTZ
    Blend: AUG-CC-PVTZ
  Basis Set: (AUG-CC-PVTZ AUX)
    Blend: AUG-CC-PVTZ-JKFIT

    Orbital Energies [Eh]
    ---------------------

    Doubly Occupied:

       1A    -20.518965     2A    -15.584215     3A    -11.353789
       4A    -11.269494     5A    -11.253005     6A    -11.252021
       7A    -11.251736     8A    -11.249412     9A    -11.247402
      10A    -11.246981    11A    -11.244857    12A    -11.231728
      13A    -11.225763    14A    -11.223726    15A     -1.375928
      16A     -1.269280    17A     -1.163094    18A     -1.083413
      19A     -1.044756    20A     -1.025635    21A     -1.021320
      22A     -0.926158    23A     -0.874198    24A     -0.844746
      25A     -0.836685    26A     -0.796796    27A     -0.747406
      28A     -0.725946    29A     -0.683157    30A     -0.655340
      31A     -0.642198    32A     -0.630333    33A     -0.627800
      34A     -0.613826    35A     -0.601342    36A     -0.596858
      37A     -0.592842    38A     -0.565306    39A     -0.548280
      40A     -0.532292    41A     -0.514625    42A     -0.504891
      43A     -0.500733    44A     -0.492459    45A     -0.474020
      46A     -0.471158    47A     -0.451473    48A     -0.427145
      49A     -0.366582    50A     -0.346497    51A     -0.343900

  @DF-RHF Final Energy:  -592.67215833254079

   => Energetics <=

    Nuclear Repulsion Energy =            879.0475078507748776
    One-Electron Energy =               -2549.2963051349111083
    Two-Electron Energy =                1077.5766389515956689
    Total Energy =                       -592.6721583325406755
  Basis Set: (AUG-CC-PVTZ AUX)
    Blend: AUG-CC-PVTZ-RI
    Molecular point group: c1

    Geometry (in Angstrom), charge = 0, multiplicity = 1:

       Center              X                  Y                   Z               Mass
    ------------   -----------------  -----------------  -----------------  -----------------
         O           -0.029366678742     2.322721631356    -0.407302763688    15.994914619570
         N            1.154045321258     0.425975631356     0.116218236312    14.003074004430
         C            3.606133321258    -1.070802368644     0.166093236312    12.000000000000
         C            3.456053321258     0.208945631356    -0.656284763688    12.000000000000
         C            2.249847321258    -1.747071368644     0.367089236312    12.000000000000
         C            2.333184421258     1.091806231356    -0.025900963688    12.000000000000
         C            1.247658321258    -0.763561368644     0.961528236312    12.000000000000
         C           -0.013150678742     1.121463631356    -0.109763763688    12.000000000000
         C           -1.291726678742     0.342975631356    -0.057252763688    12.000000000000
         C           -2.394325678742     0.926599631356     0.577895236312    12.000000000000
         C           -1.440784678742    -0.878586368644    -0.728043763688    12.000000000000
         C           -3.625162678742     0.271414631356     0.581060236312    12.000000000000
         C           -2.679022678742    -1.522439368644    -0.737476763688    12.000000000000
         C           -3.770161678742    -0.953783368644    -0.075958763688    12.000000000000
         H            4.310528321258    -1.758270368644    -0.315854763688     1.007825032230
         H            4.029631321258    -0.820474368644     1.148496236312     1.007825032230
         H            4.416462321258     0.732425631356    -0.735281763688     1.007825032230
         H            3.135653321258    -0.040125368644    -1.675134763688     1.007825032230
         H            1.865164321258    -2.105928368644    -0.595614763688     1.007825032230
         H            2.344451321258    -2.617238368644     1.028062236312     1.007825032230
         H            2.764922321258     1.494971631356     0.948207236312     1.007825032230
         H            2.230838321258     2.018509631356    -0.655511763688     1.007825032230
         H            0.260439321258    -1.212475368644     1.069228236312     1.007825032230
         H            1.585843321258    -0.458742368644     1.965878236312     1.007825032230
         H           -2.274003678742     1.895421631356     1.056102236312     1.007825032230
         H           -0.593196678742    -1.308185368644    -1.258384763688     1.007825032230
         H           -4.476492678742     0.721480631356     1.086225236312     1.007825032230
         H           -2.794738678742    -2.464635368644    -1.268179763688     1.007825032230
         H           -4.732938678742    -1.459202368644    -0.080136763688     1.007825032230

  Basis Set: AUG-CC-PVTZ
    Blend: AUG-CC-PVTZ
  Basis Set: (AUG-CC-PVTZ AUX)
    Blend: AUG-CC-PVTZ-JKFIT
	 Reference Energy          =    -592.6721583325407892 [Eh]
	 Singles Energy            =      -0.0000000000000000 [Eh]
	 Same-Spin Energy          =      -0.6444127115864389 [Eh]
	 Opposite-Spin Energy      =      -2.0541046142343453 [Eh]
	 Correlation Energy        =      -2.6985173258207844 [Eh]
	 Total Energy              =    -595.3706756583616198 [Eh]

	 ================> DF-SCS-MP2 Energies <==================
	-----------------------------------------------------------
	 SCS Same-Spin Scale       =       0.3333333333333333 [-]
	 SCS Opposite-Spin Scale   =       1.2000000000000000 [-]
	 SCS Same-Spin Energy      =      -0.2148042371954796 [Eh]
	 SCS Opposite-Spin Energy  =      -2.4649255370812142 [Eh]
	 SCS Correlation Energy    =      -2.6797297742766939 [Eh]
	 SCS Total Energy          =    -595.3518881068174551 [Eh]
	-----------------------------------------------------------

  Dipole Moment: [D]
     X:     0.7024      Y:    -3.4593      Z:     1.0928     Total:     3.6952

*** Psi4 exiting successfully. Buy a developer a beer!
