                               Psi4 1.3.2 release

  ==> Input File <==

--------------------------------------------------------------------------
#psi4
#
memory 32 gb

molecule  {
0 1
  O       -0.0931590     2.3556990    -0.4150330
  N        1.0902530     0.4589530     0.1084880
  C        3.5423410    -1.0378250     0.1583630
  C        3.3922610     0.2419230    -0.6640150
  C        2.1860550    -1.7140940     0.3593590
  C        2.3559930     1.1736850    -0.0440690
  C        1.1838660    -0.7305840     0.9537980
  C       -0.0795634     1.3485579    -0.1655747
  C       -1.3555190     0.3759530    -0.0649830
  C       -2.4581180     0.9595770     0.5701650
  C       -1.5045770    -0.8456090    -0.7357740
  C       -3.6889550     0.3043920     0.5733300
  C       -2.7428150    -1.4894620    -0.7452070
  C       -3.8339540    -0.9208060    -0.0836890
  H        4.2467360    -1.7252930    -0.3235850
  H        3.9658390    -0.7874970     1.1407660
  H        4.3526700     0.7654030    -0.7430120
  H        3.0718610    -0.0071480    -1.6828650
  H        1.8013720    -2.0729510    -0.6033450
  H        2.2806590    -2.5842610     1.0203320
  H        2.7011300     1.5279490     0.9404770
  H        2.1670460     2.0514870    -0.6632420
  H        0.1966470    -1.1794980     1.0614980
  H        1.5220510    -0.4257650     1.9581480
  H       -2.3377960     1.9283990     1.0483720
  H       -0.6569890    -1.2752080    -1.2661150
  H       -4.5402850     0.7544580     1.0784950
  H       -2.8585310    -2.4316580    -1.2759100
  H       -4.7967310    -1.4262250    -0.0878670
units angstrom
no_reorient  #important for SAPT in psi4, default
symmetry c1  #important for SAPT in psi4, default
}

set PROPERTIES_ORIGIN ["COM"]
properties('MP2/aug-cc-pvtz', properties = ['dipole'])
--------------------------------------------------------------------------

    Molecular point group: c1
  Charge       = 0
  Multiplicity = 1
  Basis Set: AUG-CC-PVTZ
    Blend: AUG-CC-PVTZ
  Basis Set: (AUG-CC-PVTZ AUX)
    Blend: AUG-CC-PVTZ-JKFIT

    Orbital Energies [Eh]
    ---------------------

    Doubly Occupied:

       1A    -20.558771     2A    -15.553165     3A    -11.347952
       4A    -11.256027     5A    -11.244690     6A    -11.243531
       7A    -11.242787     8A    -11.242341     9A    -11.241212
      10A    -11.240027    11A    -11.238740    12A    -11.222394
      13A    -11.220640    14A    -11.216962    15A     -1.534578
      16A     -1.223957    17A     -1.153781    18A     -1.067301
      19A     -1.027114    20A     -1.019394    21A     -1.014084
      22A     -0.896217    23A     -0.855897    24A     -0.836190
      25A     -0.827546    26A     -0.780494    27A     -0.743082
      28A     -0.724713    29A     -0.710301    30A     -0.671357
      31A     -0.657355    32A     -0.630316    33A     -0.622248
      34A     -0.618662    35A     -0.603948    36A     -0.596725
      37A     -0.588872    38A     -0.579570    39A     -0.553762
      40A     -0.537842    41A     -0.527637    42A     -0.502091
      43A     -0.497547    44A     -0.491963    45A     -0.478142
      46A     -0.465166    47A     -0.452155    48A     -0.401524
      49A     -0.357468    50A     -0.340818    51A     -0.337363

  @DF-RHF Final Energy:  -592.61113842093243

   => Energetics <=

    Nuclear Repulsion Energy =            876.8145197636017656
    One-Electron Energy =               -2544.8584821764802655
    Two-Electron Energy =                1075.4328239919461794
    Total Energy =                       -592.6111384209323205
  Basis Set: (AUG-CC-PVTZ AUX)
    Blend: AUG-CC-PVTZ-RI
    Molecular point group: c1

    Geometry (in Angstrom), charge = 0, multiplicity = 1:

       Center              X                  Y                   Z               Mass
    ------------   -----------------  -----------------  -----------------  -----------------
         O           -0.034695521296     2.307301310465    -0.403589569875    15.994914619570
         N            1.148716478704     0.410555310465     0.119931430125    14.003074004430
         C            3.600804478704    -1.086222689535     0.169806430125    12.000000000000
         C            3.450724478704     0.193525310465    -0.652571569875    12.000000000000
         C            2.244518478704    -1.762491689535     0.370802430125    12.000000000000
         C            2.414456478704     1.125287310465    -0.032625569875    12.000000000000
         C            1.242329478704    -0.778981689535     0.965241430125    12.000000000000
         C           -0.021099921296     1.300160210465    -0.154131269875    12.000000000000
         C           -1.297055521296     0.327555310465    -0.053539569875    12.000000000000
         C           -2.399654521296     0.911179310465     0.581608430125    12.000000000000
         C           -1.446113521296    -0.894006689535    -0.724330569875    12.000000000000
         C           -3.630491521296     0.255994310465     0.584773430125    12.000000000000
         C           -2.684351521296    -1.537859689535    -0.733763569875    12.000000000000
         C           -3.775490521296    -0.969203689535    -0.072245569875    12.000000000000
         H            4.305199478704    -1.773690689535    -0.312141569875     1.007825032230
         H            4.024302478704    -0.835894689535     1.152209430125     1.007825032230
         H            4.411133478704     0.717005310465    -0.731568569875     1.007825032230
         H            3.130324478704    -0.055545689535    -1.671421569875     1.007825032230
         H            1.859835478704    -2.121348689535    -0.591901569875     1.007825032230
         H            2.339122478704    -2.632658689535     1.031775430125     1.007825032230
         H            2.759593478704     1.479551310465     0.951920430125     1.007825032230
         H            2.225509478704     2.003089310465    -0.651798569875     1.007825032230
         H            0.255110478704    -1.227895689535     1.072941430125     1.007825032230
         H            1.580514478704    -0.474162689535     1.969591430125     1.007825032230
         H           -2.279332521296     1.880001310465     1.059815430125     1.007825032230
         H           -0.598525521296    -1.323605689535    -1.254671569875     1.007825032230
         H           -4.481821521296     0.706060310465     1.089938430125     1.007825032230
         H           -2.800067521296    -2.480055689535    -1.264466569875     1.007825032230
         H           -4.738267521296    -1.474622689535    -0.076423569875     1.007825032230

  Basis Set: AUG-CC-PVTZ
    Blend: AUG-CC-PVTZ
  Basis Set: (AUG-CC-PVTZ AUX)
    Blend: AUG-CC-PVTZ-JKFIT
	 Reference Energy          =    -592.6111384209324342 [Eh]
	 Singles Energy            =      -0.0000000000000000 [Eh]
	 Same-Spin Energy          =      -0.6398247401141364 [Eh]
	 Opposite-Spin Energy      =      -2.0460941963777581 [Eh]
	 Correlation Energy        =      -2.6859189364918947 [Eh]
	 Total Energy              =    -595.2970573574243645 [Eh]

	 ================> DF-SCS-MP2 Energies <==================
	-----------------------------------------------------------
	 SCS Same-Spin Scale       =       0.3333333333333333 [-]
	 SCS Opposite-Spin Scale   =       1.2000000000000000 [-]
	 SCS Same-Spin Energy      =      -0.2132749133713788 [Eh]
	 SCS Opposite-Spin Energy  =      -2.4553130356533095 [Eh]
	 SCS Correlation Energy    =      -2.6685879490246882 [Eh]
	 SCS Total Energy          =    -595.2797263699570749 [Eh]
	-----------------------------------------------------------

  Dipole Moment: [D]
     X:     0.4466      Y:    -1.8306      Z:     0.6899     Total:     2.0066

*** Psi4 exiting successfully. Buy a developer a beer!
