                               Psi4 1.3.2 release

  ==> Input File <==

--------------------------------------------------------------------------
#psi4
#
memory 32 gb

molecule  {
0 1
  O       -0.0931590     2.3556990    -0.4150330
  N        1.1148013     0.4998429     0.1024261
  C        3.5423410    -1.0378250     0.1583630
  C        3.3922610     0.2419230    -0.6640150
  C        2.1860550    -1.7140940     0.3593590
  C        2.3559930     1.1736850    -0.0440690
  C        1.1838660    -0.7305840     0.9537980
  C       -0.0769430     1.1544410    -0.1174940
  C       -1.3555190     0.3759530    -0.0649830
  C       -2.4581180     0.9595770     0.5701650
  C       -1.5045770    -0.8456090    -0.7357740
  C       -3.6889550     0.3043920     0.5733300
  C       -2.7428150    -1.4894620    -0.7452070
  C       -3.8339540    -0.9208060    -0.0836890
  H        4.2467360    -1.7252930    -0.3235850
  H        3.9658390    -0.7874970     1.1407660
  H        4.3526700     0.7654030    -0.7430120
  H        3.0718610    -0.0071480    -1.6828650
  H        1.8013720    -2.0729510    -0.6033450
  H        2.2806590    -2.5842610     1.0203320
  H        2.7011300     1.5279490     0.9404770
  H        2.1670460     2.0514870    -0.6632420
  H        0.1966470    -1.1794980     1.0614980
  H        1.5220510    -0.4257650     1.9581480
  H       -2.3377960     1.9283990     1.0483720
  H       -0.6569890    -1.2752080    -1.2661150
  H       -4.5402850     0.7544580     1.0784950
  H       -2.8585310    -2.4316580    -1.2759100
  H       -4.7967310    -1.4262250    -0.0878670
units angstrom
no_reorient  #important for SAPT in psi4, default
symmetry c1  #important for SAPT in psi4, default
}

set PROPERTIES_ORIGIN ["COM"]
properties('MP2/aug-cc-pvtz', properties = ['dipole'])
--------------------------------------------------------------------------

    Molecular point group: c1
  Charge       = 0
  Multiplicity = 1
  Basis Set: AUG-CC-PVTZ
    Blend: AUG-CC-PVTZ
  Basis Set: (AUG-CC-PVTZ AUX)
    Blend: AUG-CC-PVTZ-JKFIT

    Orbital Energies [Eh]
    ---------------------

    Doubly Occupied:

       1A    -20.512333     2A    -15.580577     3A    -11.349483
       4A    -11.269433     5A    -11.252800     6A    -11.251050
       7A    -11.249615     8A    -11.248672     9A    -11.246715
      10A    -11.246229    11A    -11.244156    12A    -11.231657
      13A    -11.227790    14A    -11.224195    15A     -1.369112
      16A     -1.247208    17A     -1.162105    18A     -1.083192
      19A     -1.043509    20A     -1.025518    21A     -1.022743
      22A     -0.924154    23A     -0.869886    24A     -0.845301
      25A     -0.836028    26A     -0.794222    27A     -0.746840
      28A     -0.721190    29A     -0.681664    30A     -0.649279
      31A     -0.639064    32A     -0.633290    33A     -0.625459
      34A     -0.611410    35A     -0.601518    36A     -0.594829
      37A     -0.589452    38A     -0.559710    39A     -0.550326
      40A     -0.533668    41A     -0.514195    42A     -0.504281
      43A     -0.502123    44A     -0.495983    45A     -0.478471
      46A     -0.470409    47A     -0.457860    48A     -0.422826
      49A     -0.366676    50A     -0.345713    51A     -0.343074

  @DF-RHF Final Energy:  -592.68086097749085

   => Energetics <=

    Nuclear Repulsion Energy =            876.8820553700161327
    One-Electron Energy =               -2545.1318450554012998
    Two-Electron Energy =                1075.5689287078942016
    Total Energy =                       -592.6808609774909655
  Basis Set: (AUG-CC-PVTZ AUX)
    Blend: AUG-CC-PVTZ-RI
    Molecular point group: c1

    Geometry (in Angstrom), charge = 0, multiplicity = 1:

       Center              X                  Y                   Z               Mass
    ------------   -----------------  -----------------  -----------------  -----------------
         O           -0.036679476769     2.316590976128    -0.406191596252    15.994914619570
         N            1.171280823231     0.460734876128     0.111267503748    14.003074004430
         C            3.598820523231    -1.076933023872     0.167204403748    12.000000000000
         C            3.448740523231     0.202814976128    -0.655173596252    12.000000000000
         C            2.242534523231    -1.753202023872     0.368200403748    12.000000000000
         C            2.412472523231     1.134576976128    -0.035227596252    12.000000000000
         C            1.240345523231    -0.769692023872     0.962639403748    12.000000000000
         C           -0.020463476769     1.115332976128    -0.108652596252    12.000000000000
         C           -1.299039476769     0.336844976128    -0.056141596252    12.000000000000
         C           -2.401638476769     0.920468976128     0.579006403748    12.000000000000
         C           -1.448097476769    -0.884717023872    -0.726932596252    12.000000000000
         C           -3.632475476769     0.265283976128     0.582171403748    12.000000000000
         C           -2.686335476769    -1.528570023872    -0.736365596252    12.000000000000
         C           -3.777474476769    -0.959914023872    -0.074847596252    12.000000000000
         H            4.303215523231    -1.764401023872    -0.314743596252     1.007825032230
         H            4.022318523231    -0.826605023872     1.149607403748     1.007825032230
         H            4.409149523231     0.726294976128    -0.734170596252     1.007825032230
         H            3.128340523231    -0.046256023872    -1.674023596252     1.007825032230
         H            1.857851523231    -2.112059023872    -0.594503596252     1.007825032230
         H            2.337138523231    -2.623369023872     1.029173403748     1.007825032230
         H            2.757609523231     1.488840976128     0.949318403748     1.007825032230
         H            2.223525523231     2.012378976128    -0.654400596252     1.007825032230
         H            0.253126523231    -1.218606023872     1.070339403748     1.007825032230
         H            1.578530523231    -0.464873023872     1.966989403748     1.007825032230
         H           -2.281316476769     1.889290976128     1.057213403748     1.007825032230
         H           -0.600509476769    -1.314316023872    -1.257273596252     1.007825032230
         H           -4.483805476769     0.715349976128     1.087336403748     1.007825032230
         H           -2.802051476769    -2.470766023872    -1.267068596252     1.007825032230
         H           -4.740251476769    -1.465333023872    -0.079025596252     1.007825032230

  Basis Set: AUG-CC-PVTZ
    Blend: AUG-CC-PVTZ
  Basis Set: (AUG-CC-PVTZ AUX)
    Blend: AUG-CC-PVTZ-JKFIT
	 Reference Energy          =    -592.6808609774908518 [Eh]
	 Singles Energy            =      -0.0000000000000000 [Eh]
	 Same-Spin Energy          =      -0.6434545934836855 [Eh]
	 Opposite-Spin Energy      =      -2.0532060055173273 [Eh]
	 Correlation Energy        =      -2.6966605990010128 [Eh]
	 Total Energy              =    -595.3775215764918585 [Eh]

	 ================> DF-SCS-MP2 Energies <==================
	-----------------------------------------------------------
	 SCS Same-Spin Scale       =       0.3333333333333333 [-]
	 SCS Opposite-Spin Scale   =       1.2000000000000000 [-]
	 SCS Same-Spin Energy      =      -0.2144848644945618 [Eh]
	 SCS Opposite-Spin Energy  =      -2.4638472066207928 [Eh]
	 SCS Correlation Energy    =      -2.6783320711153547 [Eh]
	 SCS Total Energy          =    -595.3591930486062438 [Eh]
	-----------------------------------------------------------

  Dipole Moment: [D]
     X:     0.9423      Y:    -3.5014      Z:     1.1420     Total:     3.8016

*** Psi4 exiting successfully. Buy a developer a beer!
