                               Psi4 1.3.2 release

  ==> Input File <==

--------------------------------------------------------------------------
#psi4
#
memory 32 gb

molecule  {
0 1
  O       -0.0931590     2.3556990    -0.4150330
  N        1.0902530     0.4589530     0.1084880
  C        3.5423410    -1.0378250     0.1583630
  C        3.3922610     0.2419230    -0.6640150
  C        2.1860550    -1.7140940     0.3593590
  C        2.3559930     1.1736850    -0.0440690
  C        1.1838660    -0.7305840     0.9537980
  C       -0.0548934     1.1147256    -0.1433770
  C       -1.3555190     0.3759530    -0.0649830
  C       -2.4581180     0.9595770     0.5701650
  C       -1.5045770    -0.8456090    -0.7357740
  C       -3.6889550     0.3043920     0.5733300
  C       -2.7428150    -1.4894620    -0.7452070
  C       -3.8339540    -0.9208060    -0.0836890
  H        4.2467360    -1.7252930    -0.3235850
  H        3.9658390    -0.7874970     1.1407660
  H        4.3526700     0.7654030    -0.7430120
  H        3.0718610    -0.0071480    -1.6828650
  H        1.8013720    -2.0729510    -0.6033450
  H        2.2806590    -2.5842610     1.0203320
  H        2.7011300     1.5279490     0.9404770
  H        2.1670460     2.0514870    -0.6632420
  H        0.1966470    -1.1794980     1.0614980
  H        1.5220510    -0.4257650     1.9581480
  H       -2.3377960     1.9283990     1.0483720
  H       -0.6569890    -1.2752080    -1.2661150
  H       -4.5402850     0.7544580     1.0784950
  H       -2.8585310    -2.4316580    -1.2759100
  H       -4.7967310    -1.4262250    -0.0878670
units angstrom
no_reorient  #important for SAPT in psi4, default
symmetry c1  #important for SAPT in psi4, default
}

set PROPERTIES_ORIGIN ["COM"]
properties('MP2/aug-cc-pvtz', properties = ['dipole'])
--------------------------------------------------------------------------

    Molecular point group: c1
  Charge       = 0
  Multiplicity = 1
  Basis Set: AUG-CC-PVTZ
    Blend: AUG-CC-PVTZ
  Basis Set: (AUG-CC-PVTZ AUX)
    Blend: AUG-CC-PVTZ-JKFIT

    Orbital Energies [Eh]
    ---------------------

    Doubly Occupied:

       1A    -20.505641     2A    -15.588119     3A    -11.349192
       4A    -11.270919     5A    -11.256422     6A    -11.251067
       7A    -11.249170     8A    -11.247418     9A    -11.245569
      10A    -11.244868    11A    -11.243118    12A    -11.233477
      13A    -11.230081    14A    -11.227357    15A     -1.351952
      16A     -1.251210    17A     -1.160520    18A     -1.088493
      19A     -1.042204    20A     -1.026827    21A     -1.022767
      22A     -0.931905    23A     -0.871004    24A     -0.846252
      25A     -0.835570    26A     -0.797350    27A     -0.749175
      28A     -0.721845    29A     -0.679735    30A     -0.652129
      31A     -0.640239    32A     -0.633158    33A     -0.624276
      34A     -0.611664    35A     -0.599153    36A     -0.593973
      37A     -0.588791    38A     -0.560502    39A     -0.550552
      40A     -0.531668    41A     -0.511309    42A     -0.503884
      43A     -0.502570    44A     -0.495508    45A     -0.477006
      46A     -0.471095    47A     -0.463039    48A     -0.417370
      49A     -0.370724    50A     -0.344597    51A     -0.341030

  @DF-RHF Final Energy:  -592.67844395151508

   => Energetics <=

    Nuclear Repulsion Energy =            877.2566328776192677
    One-Electron Energy =               -2545.8632369345732513
    Two-Electron Energy =                1075.9281601054387920
    Total Energy =                       -592.6784439515151917
  Basis Set: (AUG-CC-PVTZ AUX)
    Blend: AUG-CC-PVTZ-RI
    Molecular point group: c1

    Geometry (in Angstrom), charge = 0, multiplicity = 1:

       Center              X                  Y                   Z               Mass
    ------------   -----------------  -----------------  -----------------  -----------------
         O           -0.036260914999     2.322138749048    -0.404998087904    15.994914619570
         N            1.147151085001     0.425392749048     0.118522912096    14.003074004430
         C            3.599239085001    -1.071385250952     0.168397912096    12.000000000000
         C            3.449159085001     0.208362749048    -0.653980087904    12.000000000000
         C            2.242953085001    -1.747654250952     0.369393912096    12.000000000000
         C            2.412891085001     1.140124749048    -0.034034087904    12.000000000000
         C            1.240764085001    -0.764144250952     0.963832912096    12.000000000000
         C            0.002004685001     1.081165349048    -0.133342087904    12.000000000000
         C           -1.298620914999     0.342392749048    -0.054948087904    12.000000000000
         C           -2.401219914999     0.926016749048     0.580199912096    12.000000000000
         C           -1.447678914999    -0.879169250952    -0.725739087904    12.000000000000
         C           -3.632056914999     0.270831749048     0.583364912096    12.000000000000
         C           -2.685916914999    -1.523022250952    -0.735172087904    12.000000000000
         C           -3.777055914999    -0.954366250952    -0.073654087904    12.000000000000
         H            4.303634085001    -1.758853250952    -0.313550087904     1.007825032230
         H            4.022737085001    -0.821057250952     1.150800912096     1.007825032230
         H            4.409568085001     0.731842749048    -0.732977087904     1.007825032230
         H            3.128759085001    -0.040708250952    -1.672830087904     1.007825032230
         H            1.858270085001    -2.106511250952    -0.593310087904     1.007825032230
         H            2.337557085001    -2.617821250952     1.030366912096     1.007825032230
         H            2.758028085001     1.494388749048     0.950511912096     1.007825032230
         H            2.223944085001     2.017926749048    -0.653207087904     1.007825032230
         H            0.253545085001    -1.213058250952     1.071532912096     1.007825032230
         H            1.578949085001    -0.459325250952     1.968182912096     1.007825032230
         H           -2.280897914999     1.894838749048     1.058406912096     1.007825032230
         H           -0.600090914999    -1.308768250952    -1.256080087904     1.007825032230
         H           -4.483386914999     0.720897749048     1.088529912096     1.007825032230
         H           -2.801632914999    -2.465218250952    -1.265875087904     1.007825032230
         H           -4.739832914999    -1.459785250952    -0.077832087904     1.007825032230

  Basis Set: AUG-CC-PVTZ
    Blend: AUG-CC-PVTZ
  Basis Set: (AUG-CC-PVTZ AUX)
    Blend: AUG-CC-PVTZ-JKFIT
	 Reference Energy          =    -592.6784439515150780 [Eh]
	 Singles Energy            =      -0.0000000000000000 [Eh]
	 Same-Spin Energy          =      -0.6440631642447620 [Eh]
	 Opposite-Spin Energy      =      -2.0544592868363916 [Eh]
	 Correlation Energy        =      -2.6985224510811534 [Eh]
	 Total Energy              =    -595.3769664025962811 [Eh]

	 ================> DF-SCS-MP2 Energies <==================
	-----------------------------------------------------------
	 SCS Same-Spin Scale       =       0.3333333333333333 [-]
	 SCS Opposite-Spin Scale   =       1.2000000000000000 [-]
	 SCS Same-Spin Energy      =      -0.2146877214149207 [Eh]
	 SCS Opposite-Spin Energy  =      -2.4653511442036700 [Eh]
	 SCS Correlation Energy    =      -2.6800388656185907 [Eh]
	 SCS Total Energy          =    -595.3584828171336767 [Eh]
	-----------------------------------------------------------

  Dipole Moment: [D]
     X:     1.2925      Y:    -3.6467      Z:     1.1980     Total:     4.0502

*** Psi4 exiting successfully. Buy a developer a beer!
