                               Psi4 1.3.2 release

  ==> Input File <==

--------------------------------------------------------------------------
#psi4
#
memory 32 gb

molecule  {
0 1
  O       -0.0931590     2.3556990    -0.4150330
  N        1.0902530     0.4589530     0.1084880
  C        3.5423410    -1.0378250     0.1583630
  C        3.3922610     0.2419230    -0.6640150
  C        2.1860550    -1.7140940     0.3593590
  C        2.3806780     1.1307971    -0.0316621
  C        1.1838660    -0.7305840     0.9537980
  C       -0.0769430     1.1544410    -0.1174940
  C       -1.3555190     0.3759530    -0.0649830
  C       -2.4581180     0.9595770     0.5701650
  C       -1.5045770    -0.8456090    -0.7357740
  C       -3.6889550     0.3043920     0.5733300
  C       -2.7428150    -1.4894620    -0.7452070
  C       -3.8339540    -0.9208060    -0.0836890
  H        4.2467360    -1.7252930    -0.3235850
  H        3.9658390    -0.7874970     1.1407660
  H        4.3526700     0.7654030    -0.7430120
  H        3.0718610    -0.0071480    -1.6828650
  H        1.8013720    -2.0729510    -0.6033450
  H        2.2806590    -2.5842610     1.0203320
  H        2.7011300     1.5279490     0.9404770
  H        2.1670460     2.0514870    -0.6632420
  H        0.1966470    -1.1794980     1.0614980
  H        1.5220510    -0.4257650     1.9581480
  H       -2.3377960     1.9283990     1.0483720
  H       -0.6569890    -1.2752080    -1.2661150
  H       -4.5402850     0.7544580     1.0784950
  H       -2.8585310    -2.4316580    -1.2759100
  H       -4.7967310    -1.4262250    -0.0878670
units angstrom
no_reorient  #important for SAPT in psi4, default
symmetry c1  #important for SAPT in psi4, default
}

set PROPERTIES_ORIGIN ["COM"]
properties('MP2/aug-cc-pvtz', properties = ['dipole'])
--------------------------------------------------------------------------

    Molecular point group: c1
  Charge       = 0
  Multiplicity = 1
  Basis Set: AUG-CC-PVTZ
    Blend: AUG-CC-PVTZ
  Basis Set: (AUG-CC-PVTZ AUX)
    Blend: AUG-CC-PVTZ-JKFIT

    Orbital Energies [Eh]
    ---------------------

    Doubly Occupied:

       1A    -20.514902     2A    -15.581498     3A    -11.351113
       4A    -11.266117     5A    -11.254616     6A    -11.251373
       7A    -11.250092     8A    -11.248000     9A    -11.245882
      10A    -11.245555    11A    -11.243487    12A    -11.230988
      13A    -11.227518    14A    -11.224030    15A     -1.368809
      16A     -1.248940    17A     -1.161281    18A     -1.086703
      19A     -1.040711    20A     -1.027785    21A     -1.023295
      22A     -0.925221    23A     -0.867592    24A     -0.844912
      25A     -0.835656    26A     -0.795158    27A     -0.747443
      28A     -0.720303    29A     -0.680857    30A     -0.650749
      31A     -0.639317    32A     -0.630899    33A     -0.625107
      34A     -0.611181    35A     -0.601357    36A     -0.594111
      37A     -0.589348    38A     -0.557202    39A     -0.553325
      40A     -0.533922    41A     -0.514438    42A     -0.504346
      43A     -0.502098    44A     -0.495536    45A     -0.481646
      46A     -0.468773    47A     -0.453054    48A     -0.422043
      49A     -0.370894    50A     -0.345011    51A     -0.342472

  @DF-RHF Final Energy:  -592.67907328029992

   => Energetics <=

    Nuclear Repulsion Energy =            877.3867729665507795
    One-Electron Energy =               -2546.1383570648790737
    Two-Electron Energy =                1076.0725108180283769
    Total Energy =                       -592.6790732802999173
  Basis Set: (AUG-CC-PVTZ AUX)
    Blend: AUG-CC-PVTZ-RI
    Molecular point group: c1

    Geometry (in Angstrom), charge = 0, multiplicity = 1:

       Center              X                  Y                   Z               Mass
    ------------   -----------------  -----------------  -----------------  -----------------
         O           -0.036428139910     2.322340054744    -0.407427709644    15.994914619570
         N            1.146983860090     0.425594054744     0.116093290356    14.003074004430
         C            3.599071860090    -1.071183945256     0.165968290356    12.000000000000
         C            3.448991860090     0.208564054744    -0.656409709644    12.000000000000
         C            2.242785860090    -1.747452945256     0.366964290356    12.000000000000
         C            2.437408860090     1.097438154744    -0.024056809644    12.000000000000
         C            1.240596860090    -0.763942945256     0.961403290356    12.000000000000
         C           -0.020212139910     1.121082054744    -0.109888709644    12.000000000000
         C           -1.298788139910     0.342594054744    -0.057377709644    12.000000000000
         C           -2.401387139910     0.926218054744     0.577770290356    12.000000000000
         C           -1.447846139910    -0.878967945256    -0.728168709644    12.000000000000
         C           -3.632224139910     0.271033054744     0.580935290356    12.000000000000
         C           -2.686084139910    -1.522820945256    -0.737601709644    12.000000000000
         C           -3.777223139910    -0.954164945256    -0.076083709644    12.000000000000
         H            4.303466860090    -1.758651945256    -0.315979709644     1.007825032230
         H            4.022569860090    -0.820855945256     1.148371290356     1.007825032230
         H            4.409400860090     0.732044054744    -0.735406709644     1.007825032230
         H            3.128591860090    -0.040506945256    -1.675259709644     1.007825032230
         H            1.858102860090    -2.106309945256    -0.595739709644     1.007825032230
         H            2.337389860090    -2.617619945256     1.027937290356     1.007825032230
         H            2.757860860090     1.494590054744     0.948082290356     1.007825032230
         H            2.223776860090     2.018128054744    -0.655636709644     1.007825032230
         H            0.253377860090    -1.212856945256     1.069103290356     1.007825032230
         H            1.578781860090    -0.459123945256     1.965753290356     1.007825032230
         H           -2.281065139910     1.895040054744     1.055977290356     1.007825032230
         H           -0.600258139910    -1.308566945256    -1.258509709644     1.007825032230
         H           -4.483554139910     0.721099054744     1.086100290356     1.007825032230
         H           -2.801800139910    -2.465016945256    -1.268304709644     1.007825032230
         H           -4.740000139910    -1.459583945256    -0.080261709644     1.007825032230

  Basis Set: AUG-CC-PVTZ
    Blend: AUG-CC-PVTZ
  Basis Set: (AUG-CC-PVTZ AUX)
    Blend: AUG-CC-PVTZ-JKFIT
	 Reference Energy          =    -592.6790732802999173 [Eh]
	 Singles Energy            =      -0.0000000000000000 [Eh]
	 Same-Spin Energy          =      -0.6439785576863251 [Eh]
	 Opposite-Spin Energy      =      -2.0539731696915746 [Eh]
	 Correlation Energy        =      -2.6979517273778999 [Eh]
	 Total Energy              =    -595.3770250076778439 [Eh]

	 ================> DF-SCS-MP2 Energies <==================
	-----------------------------------------------------------
	 SCS Same-Spin Scale       =       0.3333333333333333 [-]
	 SCS Opposite-Spin Scale   =       1.2000000000000000 [-]
	 SCS Same-Spin Energy      =      -0.2146595192287750 [Eh]
	 SCS Opposite-Spin Energy  =      -2.4647678036298895 [Eh]
	 SCS Correlation Energy    =      -2.6794273228586647 [Eh]
	 SCS Total Energy          =    -595.3585006031586317 [Eh]
	-----------------------------------------------------------

  Dipole Moment: [D]
     X:     1.0303      Y:    -3.4018      Z:     1.1160     Total:     3.7255

*** Psi4 exiting successfully. Buy a developer a beer!
