                               Psi4 1.4a3.dev225

  ==> Input File <==

--------------------------------------------------------------------------
#psi4
#
memory 32 gb

molecule  {
0 1
  O       -0.0931590     2.3556990    -0.4150330
  N        1.0902530     0.4589530     0.1084880
  C        3.5423410    -1.0378250     0.1583630
  C        3.3922610     0.2419230    -0.6640150
  C        2.1860550    -1.7140940     0.3593590
  C        2.3559930     1.1736850    -0.0440690
  C        1.1838660    -0.7305840     0.9537980
  C       -0.0766810     1.1350293    -0.1126859
  C       -1.3555190     0.3759530    -0.0649830
  C       -2.4581180     0.9595770     0.5701650
  C       -1.5045770    -0.8456090    -0.7357740
  C       -3.6889550     0.3043920     0.5733300
  C       -2.7428150    -1.4894620    -0.7452070
  C       -3.8339540    -0.9208060    -0.0836890
  H        4.2467360    -1.7252930    -0.3235850
  H        3.9658390    -0.7874970     1.1407660
  H        4.3526700     0.7654030    -0.7430120
  H        3.0718610    -0.0071480    -1.6828650
  H        1.8013720    -2.0729510    -0.6033450
  H        2.2806590    -2.5842610     1.0203320
  H        2.7011300     1.5279490     0.9404770
  H        2.1670460     2.0514870    -0.6632420
  H        0.1966470    -1.1794980     1.0614980
  H        1.5220510    -0.4257650     1.9581480
  H       -2.3377960     1.9283990     1.0483720
  H       -0.6569890    -1.2752080    -1.2661150
  H       -4.5402850     0.7544580     1.0784950
  H       -2.8585310    -2.4316580    -1.2759100
  H       -4.7967310    -1.4262250    -0.0878670
units angstrom
no_reorient  #important for SAPT in psi4, default
symmetry c1  #important for SAPT in psi4, default
}

set PROPERTIES_ORIGIN ["COM"]
properties('MP2/aug-cc-pvtz', properties = ['dipole'])
--------------------------------------------------------------------------

    Molecular point group: c1
  Charge       = 0
  Multiplicity = 1
  Basis Set: AUG-CC-PVTZ
    Blend: AUG-CC-PVTZ
  Basis Set: (AUG-CC-PVTZ AUX)
    Blend: AUG-CC-PVTZ-JKFIT

    Orbital Energies [Eh]
    ---------------------

    Doubly Occupied:

       1A    -20.510458     2A    -15.584417     3A    -11.350188
       4A    -11.268162     5A    -11.254486     6A    -11.251488
       7A    -11.250313     8A    -11.248338     9A    -11.246228
      10A    -11.245780    11A    -11.243697    12A    -11.231795
      13A    -11.228639    14A    -11.225884    15A     -1.357892
      16A     -1.248284    17A     -1.161704    18A     -1.085420
      19A     -1.042092    20A     -1.026616    21A     -1.023411
      22A     -0.927239    23A     -0.869166    24A     -0.847256
      25A     -0.836304    26A     -0.794689    27A     -0.748757
      28A     -0.721062    29A     -0.680843    30A     -0.651230
      31A     -0.639292    32A     -0.631739    33A     -0.624873
      34A     -0.610468    35A     -0.600088    36A     -0.594195
      37A     -0.588503    38A     -0.560300    39A     -0.550409
      40A     -0.532507    41A     -0.512672    42A     -0.504203
      43A     -0.502229    44A     -0.495097    45A     -0.477357
      46A     -0.469536    47A     -0.461248    48A     -0.421067
      49A     -0.369653    50A     -0.345301    51A     -0.342264

  @DF-RHF Final Energy:  -592.68071180789684

   => Energetics <=

    Nuclear Repulsion Energy =            877.1093323068859036
    One-Electron Energy =               -2545.5904077295981551
    Two-Electron Energy =                1075.8003636148155238
    Total Energy =                       -592.6807118078968415
  Basis Set: (AUG-CC-PVTZ AUX)
    Blend: AUG-CC-PVTZ-RI
    Molecular point group: c1

    Geometry (in Angstrom), charge = 0, multiplicity = 1:

       Center              X                  Y                   Z               Mass
    ------------   -----------------  -----------------  -----------------  -----------------
         O           -0.034878419181     2.320850411629    -0.406945540464    15.994914619570
         N            1.148533580819     0.424104411629     0.116575459536    14.003074004430
         C            3.600621580819    -1.072673588371     0.166450459536    12.000000000000
         C            3.450541580819     0.207074411629    -0.655927540464    12.000000000000
         C            2.244335580819    -1.748942588371     0.367446459536    12.000000000000
         C            2.414273580819     1.138836411629    -0.035981540464    12.000000000000
         C            1.242146580819    -0.765432588371     0.961885459536    12.000000000000
         C           -0.018400419181     1.100180711629    -0.104598440464    12.000000000000
         C           -1.297238419181     0.341104411629    -0.056895540464    12.000000000000
         C           -2.399837419181     0.924728411629     0.578252459536    12.000000000000
         C           -1.446296419181    -0.880457588371    -0.727686540464    12.000000000000
         C           -3.630674419181     0.269543411629     0.581417459536    12.000000000000
         C           -2.684534419181    -1.524310588371    -0.737119540464    12.000000000000
         C           -3.775673419181    -0.955654588371    -0.075601540464    12.000000000000
         H            4.305016580819    -1.760141588371    -0.315497540464     1.007825032230
         H            4.024119580819    -0.822345588371     1.148853459536     1.007825032230
         H            4.410950580819     0.730554411629    -0.734924540464     1.007825032230
         H            3.130141580819    -0.041996588371    -1.674777540464     1.007825032230
         H            1.859652580819    -2.107799588371    -0.595257540464     1.007825032230
         H            2.338939580819    -2.619109588371     1.028419459536     1.007825032230
         H            2.759410580819     1.493100411629     0.948564459536     1.007825032230
         H            2.225326580819     2.016638411629    -0.655154540464     1.007825032230
         H            0.254927580819    -1.214346588371     1.069585459536     1.007825032230
         H            1.580331580819    -0.460613588371     1.966235459536     1.007825032230
         H           -2.279515419181     1.893550411629     1.056459459536     1.007825032230
         H           -0.598708419181    -1.310056588371    -1.258027540464     1.007825032230
         H           -4.482004419181     0.719609411629     1.086582459536     1.007825032230
         H           -2.800250419181    -2.466506588371    -1.267822540464     1.007825032230
         H           -4.738450419181    -1.461073588371    -0.079779540464     1.007825032230

  Basis Set: AUG-CC-PVTZ
    Blend: AUG-CC-PVTZ
  Basis Set: (AUG-CC-PVTZ AUX)
    Blend: AUG-CC-PVTZ-JKFIT
	 Reference Energy          =    -592.6807118078968415 [Eh]
	 Singles Energy            =      -0.0000000000000000 [Eh]
	 Same-Spin Energy          =      -0.6439359023825131 [Eh]
	 Opposite-Spin Energy      =      -2.0542189023009927 [Eh]
	 Correlation Energy        =      -2.6981548046835058 [Eh]
	 Total Energy              =    -595.3788666125803957 [Eh]

	 ================> DF-SCS-MP2 Energies <==================
	-----------------------------------------------------------
	 SCS Same-Spin Scale       =       0.3333333333333333 [-]
	 SCS Opposite-Spin Scale   =       1.2000000000000000 [-]
	 SCS Same-Spin Energy      =      -0.2146453007941710 [Eh]
	 SCS Opposite-Spin Energy  =      -2.4650626827611912 [Eh]
	 SCS Correlation Energy    =      -2.6797079835553621 [Eh]
	 SCS Total Energy          =    -595.3604197914521592 [Eh]
	-----------------------------------------------------------

  Dipole Moment: [D]
     X:     1.0907      Y:    -3.5238      Z:     1.1597     Total:     3.8668

*** Psi4 exiting successfully. Buy a developer a beer!
