                               Psi4 1.3.2 release

  ==> Input File <==

--------------------------------------------------------------------------
#psi4
#
memory 32 gb

molecule  {
0 1
  O       -0.0931590     2.3556990    -0.4150330
  N        1.0902530     0.4589530     0.1084880
  C        3.5423410    -1.0378250     0.1583630
  C        3.3922610     0.2419230    -0.6640150
  C        2.1860550    -1.7140940     0.3593590
  C        2.3559930     1.1736850    -0.0440690
  C        1.1838660    -0.7305840     0.9537980
  C       -0.0769430     1.1544410    -0.1174940
  C       -1.3287308     0.4147999    -0.0522955
  C       -2.4581180     0.9595770     0.5701650
  C       -1.5045770    -0.8456090    -0.7357740
  C       -3.6889550     0.3043920     0.5733300
  C       -2.7428150    -1.4894620    -0.7452070
  C       -3.8339540    -0.9208060    -0.0836890
  H        4.2467360    -1.7252930    -0.3235850
  H        3.9658390    -0.7874970     1.1407660
  H        4.3526700     0.7654030    -0.7430120
  H        3.0718610    -0.0071480    -1.6828650
  H        1.8013720    -2.0729510    -0.6033450
  H        2.2806590    -2.5842610     1.0203320
  H        2.7011300     1.5279490     0.9404770
  H        2.1670460     2.0514870    -0.6632420
  H        0.1966470    -1.1794980     1.0614980
  H        1.5220510    -0.4257650     1.9581480
  H       -2.3377960     1.9283990     1.0483720
  H       -0.6569890    -1.2752080    -1.2661150
  H       -4.5402850     0.7544580     1.0784950
  H       -2.8585310    -2.4316580    -1.2759100
  H       -4.7967310    -1.4262250    -0.0878670
units angstrom
no_reorient  #important for SAPT in psi4, default
symmetry c1  #important for SAPT in psi4, default
}

set PROPERTIES_ORIGIN ["COM"]
properties('MP2/aug-cc-pvtz', properties = ['dipole'])
--------------------------------------------------------------------------

    Molecular point group: c1
  Charge       = 0
  Multiplicity = 1
  Basis Set: AUG-CC-PVTZ
    Blend: AUG-CC-PVTZ
  Basis Set: (AUG-CC-PVTZ AUX)
    Blend: AUG-CC-PVTZ-JKFIT

    Orbital Energies [Eh]
    ---------------------

    Doubly Occupied:

       1A    -20.513568     2A    -15.581608     3A    -11.347945
       4A    -11.267010     5A    -11.255763     6A    -11.253326
       7A    -11.251917     8A    -11.249538     9A    -11.247129
      10A    -11.246028    11A    -11.244021    12A    -11.230867
      13A    -11.227819    14A    -11.224957    15A     -1.370075
      16A     -1.248214    17A     -1.157846    18A     -1.084351
      19A     -1.042208    20A     -1.026804    21A     -1.020562
      22A     -0.926281    23A     -0.869709    24A     -0.849494
      25A     -0.833553    26A     -0.792275    27A     -0.748537
      28A     -0.721007    29A     -0.684134    30A     -0.652551
      31A     -0.638561    32A     -0.630683    33A     -0.624994
      34A     -0.609005    35A     -0.602188    36A     -0.592330
      37A     -0.588709    38A     -0.560577    39A     -0.550574
      40A     -0.534738    41A     -0.516285    42A     -0.502036
      43A     -0.500310    44A     -0.492382    45A     -0.478437
      46A     -0.468941    47A     -0.460610    48A     -0.424927
      49A     -0.369463    50A     -0.345568    51A     -0.339297

  @DF-RHF Final Energy:  -592.67890641687222

   => Energetics <=

    Nuclear Repulsion Energy =            877.0724503451887131
    One-Electron Energy =               -2545.5032907244658418
    Two-Electron Energy =                1075.7519339624047916
    Total Energy =                       -592.6789064168722234
  Basis Set: (AUG-CC-PVTZ AUX)
    Blend: AUG-CC-PVTZ-RI
    Molecular point group: c1

    Geometry (in Angstrom), charge = 0, multiplicity = 1:

       Center              X                  Y                   Z               Mass
    ------------   -----------------  -----------------  -----------------  -----------------
         O           -0.036561594958     2.317153709337    -0.407445514649    15.994914619570
         N            1.146850405042     0.420407709337     0.116075485351    14.003074004430
         C            3.598938405042    -1.076370290663     0.165950485351    12.000000000000
         C            3.448858405042     0.203377709337    -0.656427514649    12.000000000000
         C            2.242652405042    -1.752639290663     0.366946485351    12.000000000000
         C            2.412590405042     1.135139709337    -0.036481514649    12.000000000000
         C            1.240463405042    -0.769129290663     0.961385485351    12.000000000000
         C           -0.020345594958     1.115895709337    -0.109906514649    12.000000000000
         C           -1.272133394958     0.376254609337    -0.044708014649    12.000000000000
         C           -2.401520594958     0.921031709337     0.577752485351    12.000000000000
         C           -1.447979594958    -0.884154290663    -0.728186514649    12.000000000000
         C           -3.632357594958     0.265846709337     0.580917485351    12.000000000000
         C           -2.686217594958    -1.528007290663    -0.737619514649    12.000000000000
         C           -3.777356594958    -0.959351290663    -0.076101514649    12.000000000000
         H            4.303333405042    -1.763838290663    -0.315997514649     1.007825032230
         H            4.022436405042    -0.826042290663     1.148353485351     1.007825032230
         H            4.409267405042     0.726857709337    -0.735424514649     1.007825032230
         H            3.128458405042    -0.045693290663    -1.675277514649     1.007825032230
         H            1.857969405042    -2.111496290663    -0.595757514649     1.007825032230
         H            2.337256405042    -2.622806290663     1.027919485351     1.007825032230
         H            2.757727405042     1.489403709337     0.948064485351     1.007825032230
         H            2.223643405042     2.012941709337    -0.655654514649     1.007825032230
         H            0.253244405042    -1.218043290663     1.069085485351     1.007825032230
         H            1.578648405042    -0.464310290663     1.965735485351     1.007825032230
         H           -2.281198594958     1.889853709337     1.055959485351     1.007825032230
         H           -0.600391594958    -1.313753290663    -1.258527514649     1.007825032230
         H           -4.483687594958     0.715912709337     1.086082485351     1.007825032230
         H           -2.801933594958    -2.470203290663    -1.268322514649     1.007825032230
         H           -4.740133594958    -1.464770290663    -0.080279514649     1.007825032230

  Basis Set: AUG-CC-PVTZ
    Blend: AUG-CC-PVTZ
  Basis Set: (AUG-CC-PVTZ AUX)
    Blend: AUG-CC-PVTZ-JKFIT
	 Reference Energy          =    -592.6789064168722234 [Eh]
	 Singles Energy            =      -0.0000000000000000 [Eh]
	 Same-Spin Energy          =      -0.6438917121593842 [Eh]
	 Opposite-Spin Energy      =      -2.0541948651257353 [Eh]
	 Correlation Energy        =      -2.6980865772851197 [Eh]
	 Total Energy              =    -595.3769929941573764 [Eh]

	 ================> DF-SCS-MP2 Energies <==================
	-----------------------------------------------------------
	 SCS Same-Spin Scale       =       0.3333333333333333 [-]
	 SCS Opposite-Spin Scale   =       1.2000000000000000 [-]
	 SCS Same-Spin Energy      =      -0.2146305707197947 [Eh]
	 SCS Opposite-Spin Energy  =      -2.4650338381508825 [Eh]
	 SCS Correlation Energy    =      -2.6796644088706771 [Eh]
	 SCS Total Energy          =    -595.3585708257428450 [Eh]
	-----------------------------------------------------------

  Dipole Moment: [D]
     X:     0.9840      Y:    -3.4269      Z:     1.1264     Total:     3.7391

*** Psi4 exiting successfully. Buy a developer a beer!
