                               Psi4 1.3.2 release

  ==> Input File <==

--------------------------------------------------------------------------
#psi4
#
memory 32 gb

molecule  {
0 1
  O       -0.0931590     2.3556990    -0.4150330
  N        1.0902530     0.4589530     0.1084880
  C        3.5423410    -1.0378250     0.1583630
  C        3.3922610     0.2419230    -0.6640150
  C        2.1860550    -1.7140940     0.3593590
  C        2.3559930     1.1736850    -0.0440690
  C        1.1838660    -0.7305840     0.9537980
  C       -0.0769430     1.1544410    -0.1174940
  C       -1.2793135     0.4944367    -0.0246618
  C       -2.4581180     0.9595770     0.5701650
  C       -1.5045770    -0.8456090    -0.7357740
  C       -3.6889550     0.3043920     0.5733300
  C       -2.7428150    -1.4894620    -0.7452070
  C       -3.8339540    -0.9208060    -0.0836890
  H        4.2467360    -1.7252930    -0.3235850
  H        3.9658390    -0.7874970     1.1407660
  H        4.3526700     0.7654030    -0.7430120
  H        3.0718610    -0.0071480    -1.6828650
  H        1.8013720    -2.0729510    -0.6033450
  H        2.2806590    -2.5842610     1.0203320
  H        2.7011300     1.5279490     0.9404770
  H        2.1670460     2.0514870    -0.6632420
  H        0.1966470    -1.1794980     1.0614980
  H        1.5220510    -0.4257650     1.9581480
  H       -2.3377960     1.9283990     1.0483720
  H       -0.6569890    -1.2752080    -1.2661150
  H       -4.5402850     0.7544580     1.0784950
  H       -2.8585310    -2.4316580    -1.2759100
  H       -4.7967310    -1.4262250    -0.0878670
units angstrom
no_reorient  #important for SAPT in psi4, default
symmetry c1  #important for SAPT in psi4, default
}

set PROPERTIES_ORIGIN ["COM"]
properties('MP2/aug-cc-pvtz', properties = ['dipole'])
--------------------------------------------------------------------------

    Molecular point group: c1
  Charge       = 0
  Multiplicity = 1
  Basis Set: AUG-CC-PVTZ
    Blend: AUG-CC-PVTZ
  Basis Set: (AUG-CC-PVTZ AUX)
    Blend: AUG-CC-PVTZ-JKFIT

    Orbital Energies [Eh]
    ---------------------

    Doubly Occupied:

       1A    -20.510908     2A    -15.581116     3A    -11.341853
       4A    -11.266548     5A    -11.265580     6A    -11.254313
       7A    -11.253218     8A    -11.253091     9A    -11.250872
      10A    -11.247246    11A    -11.245540    12A    -11.230521
      13A    -11.227499    14A    -11.224609    15A     -1.372378
      16A     -1.248107    17A     -1.153115    18A     -1.085520
      19A     -1.047222    20A     -1.027920    21A     -1.017211
      22A     -0.929942    23A     -0.875167    24A     -0.854029
      25A     -0.830858    26A     -0.789509    27A     -0.750216
      28A     -0.723312    29A     -0.690266    30A     -0.654159
      31A     -0.639010    32A     -0.630623    33A     -0.623432
      34A     -0.606600    35A     -0.603699    36A     -0.591220
      37A     -0.585952    38A     -0.560271    39A     -0.550115
      40A     -0.536433    41A     -0.523295    42A     -0.501487
      43A     -0.496502    44A     -0.481325    45A     -0.476439
      46A     -0.468736    47A     -0.460273    48A     -0.426145
      49A     -0.368911    50A     -0.349364    51A     -0.331692

  @DF-RHF Final Energy:  -592.65375198164679

   => Energetics <=

    Nuclear Repulsion Energy =            877.2458673953270818
    One-Electron Energy =               -2545.7724999172928619
    Two-Electron Energy =                1075.8728805403191018
    Total Energy =                       -592.6537519816467920
  Basis Set: (AUG-CC-PVTZ AUX)
    Blend: AUG-CC-PVTZ-RI
    Molecular point group: c1

    Geometry (in Angstrom), charge = 0, multiplicity = 1:

       Center              X                  Y                   Z               Mass
    ------------   -----------------  -----------------  -----------------  -----------------
         O           -0.039697287305     2.312100489021    -0.409198964992    15.994914619570
         N            1.143714712695     0.415354489021     0.114322035008    14.003074004430
         C            3.595802712695    -1.081423510979     0.164197035008    12.000000000000
         C            3.445722712695     0.198324489021    -0.658180964992    12.000000000000
         C            2.239516712695    -1.757692510979     0.365193035008    12.000000000000
         C            2.409454712695     1.130086489021    -0.038234964992    12.000000000000
         C            1.237327712695    -0.774182510979     0.959632035008    12.000000000000
         C           -0.023481287305     1.110842489021    -0.111659964992    12.000000000000
         C           -1.225851787305     0.450838189021    -0.018827764992    12.000000000000
         C           -2.404656287305     0.915978489021     0.575999035008    12.000000000000
         C           -1.451115287305    -0.889207510979    -0.729939964992    12.000000000000
         C           -3.635493287305     0.260793489021     0.579164035008    12.000000000000
         C           -2.689353287305    -1.533060510979    -0.739372964992    12.000000000000
         C           -3.780492287305    -0.964404510979    -0.077854964992    12.000000000000
         H            4.300197712695    -1.768891510979    -0.317750964992     1.007825032230
         H            4.019300712695    -0.831095510979     1.146600035008     1.007825032230
         H            4.406131712695     0.721804489021    -0.737177964992     1.007825032230
         H            3.125322712695    -0.050746510979    -1.677030964992     1.007825032230
         H            1.854833712695    -2.116549510979    -0.597510964992     1.007825032230
         H            2.334120712695    -2.627859510979     1.026166035008     1.007825032230
         H            2.754591712695     1.484350489021     0.946311035008     1.007825032230
         H            2.220507712695     2.007888489021    -0.657407964992     1.007825032230
         H            0.250108712695    -1.223096510979     1.067332035008     1.007825032230
         H            1.575512712695    -0.469363510979     1.963982035008     1.007825032230
         H           -2.284334287305     1.884800489021     1.054206035008     1.007825032230
         H           -0.603527287305    -1.318806510979    -1.260280964992     1.007825032230
         H           -4.486823287305     0.710859489021     1.084329035008     1.007825032230
         H           -2.805069287305    -2.475256510979    -1.270075964992     1.007825032230
         H           -4.743269287305    -1.469823510979    -0.082032964992     1.007825032230

  Basis Set: AUG-CC-PVTZ
    Blend: AUG-CC-PVTZ
  Basis Set: (AUG-CC-PVTZ AUX)
    Blend: AUG-CC-PVTZ-JKFIT
	 Reference Energy          =    -592.6537519816467920 [Eh]
	 Singles Energy            =      -0.0000000000000000 [Eh]
	 Same-Spin Energy          =      -0.6452331481812674 [Eh]
	 Opposite-Spin Energy      =      -2.0571758206635322 [Eh]
	 Correlation Energy        =      -2.7024089688447996 [Eh]
	 Total Energy              =    -595.3561609504915850 [Eh]

	 ================> DF-SCS-MP2 Energies <==================
	-----------------------------------------------------------
	 SCS Same-Spin Scale       =       0.3333333333333333 [-]
	 SCS Opposite-Spin Scale   =       1.2000000000000000 [-]
	 SCS Same-Spin Energy      =      -0.2150777160604225 [Eh]
	 SCS Opposite-Spin Energy  =      -2.4686109847962387 [Eh]
	 SCS Correlation Energy    =      -2.6836887008566612 [Eh]
	 SCS Total Energy          =    -595.3374406825034839 [Eh]
	-----------------------------------------------------------

  Dipole Moment: [D]
     X:     0.8937      Y:    -3.4826      Z:     1.1310     Total:     3.7691

*** Psi4 exiting successfully. Buy a developer a beer!
