                               Psi4 1.3.2 release

  ==> Input File <==

--------------------------------------------------------------------------
#psi4
#
memory 32 gb

molecule  {
0 1
  O       -0.0500027     2.3559833    -0.4131010
  N        1.0902530     0.4589530     0.1084880
  C        3.5423410    -1.0378250     0.1583630
  C        3.3922610     0.2419230    -0.6640150
  C        2.1860550    -1.7140940     0.3593590
  C        2.3559930     1.1736850    -0.0440690
  C        1.1838660    -0.7305840     0.9537980
  C       -0.0769430     1.1544410    -0.1174940
  C       -1.3555190     0.3759530    -0.0649830
  C       -2.4581180     0.9595770     0.5701650
  C       -1.5045770    -0.8456090    -0.7357740
  C       -3.6889550     0.3043920     0.5733300
  C       -2.7428150    -1.4894620    -0.7452070
  C       -3.8339540    -0.9208060    -0.0836890
  H        4.2467360    -1.7252930    -0.3235850
  H        3.9658390    -0.7874970     1.1407660
  H        4.3526700     0.7654030    -0.7430120
  H        3.0718610    -0.0071480    -1.6828650
  H        1.8013720    -2.0729510    -0.6033450
  H        2.2806590    -2.5842610     1.0203320
  H        2.7011300     1.5279490     0.9404770
  H        2.1670460     2.0514870    -0.6632420
  H        0.1966470    -1.1794980     1.0614980
  H        1.5220510    -0.4257650     1.9581480
  H       -2.3377960     1.9283990     1.0483720
  H       -0.6569890    -1.2752080    -1.2661150
  H       -4.5402850     0.7544580     1.0784950
  H       -2.8585310    -2.4316580    -1.2759100
  H       -4.7967310    -1.4262250    -0.0878670
units angstrom
no_reorient  #important for SAPT in psi4, default
symmetry c1  #important for SAPT in psi4, default
}

set PROPERTIES_ORIGIN ["COM"]
properties('MP2/aug-cc-pvtz', properties = ['dipole'])
--------------------------------------------------------------------------

    Molecular point group: c1
  Charge       = 0
  Multiplicity = 1
  Basis Set: AUG-CC-PVTZ
    Blend: AUG-CC-PVTZ
  Basis Set: (AUG-CC-PVTZ AUX)
    Blend: AUG-CC-PVTZ-JKFIT

    Orbital Energies [Eh]
    ---------------------

    Doubly Occupied:

       1A    -20.513884     2A    -15.579602     3A    -11.350064
       4A    -11.266013     5A    -11.252678     6A    -11.251597
       7A    -11.251364     8A    -11.249105     9A    -11.247118
      10A    -11.246528    11A    -11.244459    12A    -11.230169
      13A    -11.227070    14A    -11.224007    15A     -1.369435
      16A     -1.245611    17A     -1.162419    18A     -1.082875
      19A     -1.041224    20A     -1.025996    21A     -1.023394
      22A     -0.923931    23A     -0.867252    24A     -0.846232
      25A     -0.836647    26A     -0.792861    27A     -0.747361
      28A     -0.720140    29A     -0.681688    30A     -0.651572
      31A     -0.638826    32A     -0.630103    33A     -0.625516
      34A     -0.610408    35A     -0.601190    36A     -0.594526
      37A     -0.588245    38A     -0.559479    39A     -0.550303
      40A     -0.534037    41A     -0.513864    42A     -0.504643
      43A     -0.501555    44A     -0.495970    45A     -0.477683
      46A     -0.467758    47A     -0.459613    48A     -0.422450
      49A     -0.367868    50A     -0.345976    51A     -0.343995

  @DF-RHF Final Energy:  -592.68248333544932

   => Energetics <=

    Nuclear Repulsion Energy =            877.1193935157784836
    One-Electron Energy =               -2545.6311395027437356
    Two-Electron Energy =                1075.8292626515158190
    Total Energy =                       -592.6824833354494331
  Basis Set: (AUG-CC-PVTZ AUX)
    Blend: AUG-CC-PVTZ-RI
    Molecular point group: c1

    Geometry (in Angstrom), charge = 0, multiplicity = 1:

       Center              X                  Y                   Z               Mass
    ------------   -----------------  -----------------  -----------------  -----------------
         O            0.004644451367     2.319878929185    -0.404871854330    15.994914619570
         N            1.144900151367     0.422848629185     0.116717145670    14.003074004430
         C            3.596988151367    -1.073929370815     0.166592145670    12.000000000000
         C            3.446908151367     0.205818629185    -0.655785854330    12.000000000000
         C            2.240702151367    -1.750198370815     0.367588145670    12.000000000000
         C            2.410640151367     1.137580629185    -0.035839854330    12.000000000000
         C            1.238513151367    -0.766688370815     0.962027145670    12.000000000000
         C           -0.022295848633     1.118336629185    -0.109264854330    12.000000000000
         C           -1.300871848633     0.339848629185    -0.056753854330    12.000000000000
         C           -2.403470848633     0.923472629185     0.578394145670    12.000000000000
         C           -1.449929848633    -0.881713370815    -0.727544854330    12.000000000000
         C           -3.634307848633     0.268287629185     0.581559145670    12.000000000000
         C           -2.688167848633    -1.525566370815    -0.736977854330    12.000000000000
         C           -3.779306848633    -0.956910370815    -0.075459854330    12.000000000000
         H            4.301383151367    -1.761397370815    -0.315355854330     1.007825032230
         H            4.020486151367    -0.823601370815     1.148995145670     1.007825032230
         H            4.407317151367     0.729298629185    -0.734782854330     1.007825032230
         H            3.126508151367    -0.043252370815    -1.674635854330     1.007825032230
         H            1.856019151367    -2.109055370815    -0.595115854330     1.007825032230
         H            2.335306151367    -2.620365370815     1.028561145670     1.007825032230
         H            2.755777151367     1.491844629185     0.948706145670     1.007825032230
         H            2.221693151367     2.015382629185    -0.655012854330     1.007825032230
         H            0.251294151367    -1.215602370815     1.069727145670     1.007825032230
         H            1.576698151367    -0.461869370815     1.966377145670     1.007825032230
         H           -2.283148848633     1.892294629185     1.056601145670     1.007825032230
         H           -0.602341848633    -1.311312370815    -1.257885854330     1.007825032230
         H           -4.485637848633     0.718353629185     1.086724145670     1.007825032230
         H           -2.803883848633    -2.467762370815    -1.267680854330     1.007825032230
         H           -4.742083848633    -1.462329370815    -0.079637854330     1.007825032230

  Basis Set: AUG-CC-PVTZ
    Blend: AUG-CC-PVTZ
  Basis Set: (AUG-CC-PVTZ AUX)
    Blend: AUG-CC-PVTZ-JKFIT
	 Reference Energy          =    -592.6824833354493194 [Eh]
	 Singles Energy            =      -0.0000000000000000 [Eh]
	 Same-Spin Energy          =      -0.6435235128687846 [Eh]
	 Opposite-Spin Energy      =      -2.0533257918459276 [Eh]
	 Correlation Energy        =      -2.6968493047147124 [Eh]
	 Total Energy              =    -595.3793326401640797 [Eh]

	 ================> DF-SCS-MP2 Energies <==================
	-----------------------------------------------------------
	 SCS Same-Spin Scale       =       0.3333333333333333 [-]
	 SCS Opposite-Spin Scale   =       1.2000000000000000 [-]
	 SCS Same-Spin Energy      =      -0.2145078376229282 [Eh]
	 SCS Opposite-Spin Energy  =      -2.4639909502151132 [Eh]
	 SCS Correlation Energy    =      -2.6784987878380413 [Eh]
	 SCS Total Energy          =    -595.3609821232873855 [Eh]
	-----------------------------------------------------------

  Dipole Moment: [D]
     X:     0.8593      Y:    -3.4090      Z:     1.1108     Total:     3.6869

*** Psi4 exiting successfully. Buy a developer a beer!
