                               Psi4 1.3.2 release

  ==> Input File <==

--------------------------------------------------------------------------
#psi4
#
memory 32 gb

molecule  {
0 1
  O       -0.0931590     2.3556990    -0.4150330
  N        1.0902530     0.4589530     0.1084880
  C        3.5423410    -1.0378250     0.1583630
  C        3.3922610     0.2419230    -0.6640150
  C        2.1860550    -1.7140940     0.3593590
  C        2.3559930     1.1736850    -0.0440690
  C        1.1838660    -0.7305840     0.9537980
  C       -0.0769430     1.1544410    -0.1174940
  C       -1.3033187     0.4543105    -0.0388496
  C       -2.4581180     0.9595770     0.5701650
  C       -1.5045770    -0.8456090    -0.7357740
  C       -3.6889550     0.3043920     0.5733300
  C       -2.7428150    -1.4894620    -0.7452070
  C       -3.8339540    -0.9208060    -0.0836890
  H        4.2467360    -1.7252930    -0.3235850
  H        3.9658390    -0.7874970     1.1407660
  H        4.3526700     0.7654030    -0.7430120
  H        3.0718610    -0.0071480    -1.6828650
  H        1.8013720    -2.0729510    -0.6033450
  H        2.2806590    -2.5842610     1.0203320
  H        2.7011300     1.5279490     0.9404770
  H        2.1670460     2.0514870    -0.6632420
  H        0.1966470    -1.1794980     1.0614980
  H        1.5220510    -0.4257650     1.9581480
  H       -2.3377960     1.9283990     1.0483720
  H       -0.6569890    -1.2752080    -1.2661150
  H       -4.5402850     0.7544580     1.0784950
  H       -2.8585310    -2.4316580    -1.2759100
  H       -4.7967310    -1.4262250    -0.0878670
units angstrom
no_reorient  #important for SAPT in psi4, default
symmetry c1  #important for SAPT in psi4, default
}

set PROPERTIES_ORIGIN ["COM"]
properties('MP2/aug-cc-pvtz', properties = ['dipole'])
--------------------------------------------------------------------------

    Molecular point group: c1
  Charge       = 0
  Multiplicity = 1
  Basis Set: AUG-CC-PVTZ
    Blend: AUG-CC-PVTZ
  Basis Set: (AUG-CC-PVTZ AUX)
    Blend: AUG-CC-PVTZ-JKFIT

    Orbital Energies [Eh]
    ---------------------

    Doubly Occupied:

       1A    -20.512267     2A    -15.581415     3A    -11.345087
       4A    -11.266807     5A    -11.260853     6A    -11.253238
       7A    -11.253181     8A    -11.251337     9A    -11.248869
      10A    -11.246619    11A    -11.244744    12A    -11.230714
      13A    -11.227678    14A    -11.224807    15A     -1.371133
      16A     -1.248212    17A     -1.155211    18A     -1.084893
      19A     -1.044459    20A     -1.027499    21A     -1.018638
      22A     -0.928039    23A     -0.872198    24A     -0.852171
      25A     -0.831916    26A     -0.790959    27A     -0.749343
      28A     -0.722102    29A     -0.687253    30A     -0.653462
      31A     -0.638691    32A     -0.630678    33A     -0.624217
      34A     -0.607593    35A     -0.603127    36A     -0.591438
      37A     -0.587683    38A     -0.560459    39A     -0.550369
      40A     -0.535501    41A     -0.519781    42A     -0.501650
      43A     -0.498241    44A     -0.486974    45A     -0.478002
      46A     -0.468861    47A     -0.460470    48A     -0.426086
      49A     -0.369218    50A     -0.347411    51A     -0.335412

  @DF-RHF Final Energy:  -592.66912890185858

   => Energetics <=

    Nuclear Repulsion Energy =            877.1476096954783088
    One-Electron Energy =               -2545.6195356433099732
    Two-Electron Energy =                1075.8027970459729659
    Total Energy =                       -592.6691289018585849
  Basis Set: (AUG-CC-PVTZ AUX)
    Blend: AUG-CC-PVTZ-RI
    Molecular point group: c1

    Geometry (in Angstrom), charge = 0, multiplicity = 1:

       Center              X                  Y                   Z               Mass
    ------------   -----------------  -----------------  -----------------  -----------------
         O           -0.038174077378     2.314646630115    -0.408298701807    15.994914619570
         N            1.145237922622     0.417900630115     0.115222298193    14.003074004430
         C            3.597325922622    -1.078877369885     0.165097298193    12.000000000000
         C            3.447245922622     0.200870630115    -0.657280701807    12.000000000000
         C            2.241039922622    -1.755146369885     0.366093298193    12.000000000000
         C            2.410977922622     1.132632630115    -0.037334701807    12.000000000000
         C            1.238850922622    -0.771636369885     0.960532298193    12.000000000000
         C           -0.021958077378     1.113388630115    -0.110759701807    12.000000000000
         C           -1.248333777378     0.413258130115    -0.032115301807    12.000000000000
         C           -2.403133077378     0.918524630115     0.576899298193    12.000000000000
         C           -1.449592077378    -0.886661369885    -0.729039701807    12.000000000000
         C           -3.633970077378     0.263339630115     0.580064298193    12.000000000000
         C           -2.687830077378    -1.530514369885    -0.738472701807    12.000000000000
         C           -3.778969077378    -0.961858369885    -0.076954701807    12.000000000000
         H            4.301720922622    -1.766345369885    -0.316850701807     1.007825032230
         H            4.020823922622    -0.828549369885     1.147500298193     1.007825032230
         H            4.407654922622     0.724350630115    -0.736277701807     1.007825032230
         H            3.126845922622    -0.048200369885    -1.676130701807     1.007825032230
         H            1.856356922622    -2.114003369885    -0.596610701807     1.007825032230
         H            2.335643922622    -2.625313369885     1.027066298193     1.007825032230
         H            2.756114922622     1.486896630115     0.947211298193     1.007825032230
         H            2.222030922622     2.010434630115    -0.656507701807     1.007825032230
         H            0.251631922622    -1.220550369885     1.068232298193     1.007825032230
         H            1.577035922622    -0.466817369885     1.964882298193     1.007825032230
         H           -2.282811077378     1.887346630115     1.055106298193     1.007825032230
         H           -0.602004077378    -1.316260369885    -1.259380701807     1.007825032230
         H           -4.485300077378     0.713405630115     1.085229298193     1.007825032230
         H           -2.803546077378    -2.472710369885    -1.269175701807     1.007825032230
         H           -4.741746077378    -1.467277369885    -0.081132701807     1.007825032230

  Basis Set: AUG-CC-PVTZ
    Blend: AUG-CC-PVTZ
  Basis Set: (AUG-CC-PVTZ AUX)
    Blend: AUG-CC-PVTZ-JKFIT
	 Reference Energy          =    -592.6691289018585849 [Eh]
	 Singles Energy            =      -0.0000000000000000 [Eh]
	 Same-Spin Energy          =      -0.6444785309996229 [Eh]
	 Opposite-Spin Energy      =      -2.0554905288343543 [Eh]
	 Correlation Energy        =      -2.6999690598339772 [Eh]
	 Total Energy              =    -595.3690979616925461 [Eh]

	 ================> DF-SCS-MP2 Energies <==================
	-----------------------------------------------------------
	 SCS Same-Spin Scale       =       0.3333333333333333 [-]
	 SCS Opposite-Spin Scale   =       1.2000000000000000 [-]
	 SCS Same-Spin Energy      =      -0.2148261769998743 [Eh]
	 SCS Opposite-Spin Energy  =      -2.4665886346012251 [Eh]
	 SCS Correlation Energy    =      -2.6814148116010994 [Eh]
	 SCS Total Energy          =    -595.3505437134597287 [Eh]
	-----------------------------------------------------------

  Dipole Moment: [D]
     X:     0.9375      Y:    -3.4570      Z:     1.1291     Total:     3.7556

*** Psi4 exiting successfully. Buy a developer a beer!
