                               Psi4 1.3.2 release

  ==> Input File <==

--------------------------------------------------------------------------
#psi4
#
memory 32 gb

molecule  {
0 1
  O       -0.0931590     2.3556990    -0.4150330
  N        1.0774437     0.4388227     0.1114162
  C        3.5423410    -1.0378250     0.1583630
  C        3.3922610     0.2419230    -0.6640150
  C        2.1860550    -1.7140940     0.3593590
  C        2.3559930     1.1736850    -0.0440690
  C        1.1838660    -0.7305840     0.9537980
  C       -0.0769430     1.1544410    -0.1174940
  C       -1.3555190     0.3759530    -0.0649830
  C       -2.4581180     0.9595770     0.5701650
  C       -1.5045770    -0.8456090    -0.7357740
  C       -3.6889550     0.3043920     0.5733300
  C       -2.7428150    -1.4894620    -0.7452070
  C       -3.8339540    -0.9208060    -0.0836890
  H        4.2467360    -1.7252930    -0.3235850
  H        3.9658390    -0.7874970     1.1407660
  H        4.3526700     0.7654030    -0.7430120
  H        3.0718610    -0.0071480    -1.6828650
  H        1.8013720    -2.0729510    -0.6033450
  H        2.2806590    -2.5842610     1.0203320
  H        2.7011300     1.5279490     0.9404770
  H        2.1670460     2.0514870    -0.6632420
  H        0.1966470    -1.1794980     1.0614980
  H        1.5220510    -0.4257650     1.9581480
  H       -2.3377960     1.9283990     1.0483720
  H       -0.6569890    -1.2752080    -1.2661150
  H       -4.5402850     0.7544580     1.0784950
  H       -2.8585310    -2.4316580    -1.2759100
  H       -4.7967310    -1.4262250    -0.0878670
units angstrom
no_reorient  #important for SAPT in psi4, default
symmetry c1  #important for SAPT in psi4, default
}

set PROPERTIES_ORIGIN ["COM"]
properties('MP2/aug-cc-pvtz', properties = ['dipole'])
--------------------------------------------------------------------------

    Molecular point group: c1
  Charge       = 0
  Multiplicity = 1
  Basis Set: AUG-CC-PVTZ
    Blend: AUG-CC-PVTZ
  Basis Set: (AUG-CC-PVTZ AUX)
    Blend: AUG-CC-PVTZ-JKFIT

    Orbital Energies [Eh]
    ---------------------

    Doubly Occupied:

       1A    -20.516005     2A    -15.582189     3A    -11.350862
       4A    -11.265987     5A    -11.255197     6A    -11.250347
       7A    -11.249179     8A    -11.247472     9A    -11.245203
      10A    -11.245086    11A    -11.242999    12A    -11.230641
      13A    -11.227973    14A    -11.225482    15A     -1.369258
      16A     -1.249053    17A     -1.160614    18A     -1.084259
      19A     -1.039222    20A     -1.026208    21A     -1.022677
      22A     -0.925089    23A     -0.866824    24A     -0.846519
      25A     -0.835488    26A     -0.792938    27A     -0.748262
      28A     -0.719609    29A     -0.680795    30A     -0.652638
      31A     -0.638667    32A     -0.629447    33A     -0.625927
      34A     -0.610505    35A     -0.600791    36A     -0.593347
      37A     -0.589118    38A     -0.560272    39A     -0.551012
      40A     -0.534209    41A     -0.512726    42A     -0.503942
      43A     -0.501470    44A     -0.495777    45A     -0.478776
      46A     -0.468457    47A     -0.461373    48A     -0.422269
      49A     -0.370899    50A     -0.344551    51A     -0.341915

  @DF-RHF Final Energy:  -592.68195808210862

   => Energetics <=

    Nuclear Repulsion Energy =            877.0999103596909663
    One-Electron Energy =               -2545.5846879108171379
    Two-Electron Energy =                1075.8028194690175496
    Total Energy =                       -592.6819580821086220
  Basis Set: (AUG-CC-PVTZ AUX)
    Blend: AUG-CC-PVTZ-RI
    Molecular point group: c1

    Geometry (in Angstrom), charge = 0, multiplicity = 1:

       Center              X                  Y                   Z               Mass
    ------------   -----------------  -----------------  -----------------  -----------------
         O           -0.033913327969     2.321109225506    -0.406857269483    15.994914619570
         N            1.136689372031     0.404232925506     0.119591930517    14.003074004430
         C            3.601586672031    -1.072414774494     0.166538730517    12.000000000000
         C            3.451506672031     0.207333225506    -0.655839269483    12.000000000000
         C            2.245300672031    -1.748683774494     0.367534730517    12.000000000000
         C            2.415238672031     1.139095225506    -0.035893269483    12.000000000000
         C            1.243111672031    -0.765173774494     0.961973730517    12.000000000000
         C           -0.017697327969     1.119851225506    -0.109318269483    12.000000000000
         C           -1.296273327969     0.341363225506    -0.056807269483    12.000000000000
         C           -2.398872327969     0.924987225506     0.578340730517    12.000000000000
         C           -1.445331327969    -0.880198774494    -0.727598269483    12.000000000000
         C           -3.629709327969     0.269802225506     0.581505730517    12.000000000000
         C           -2.683569327969    -1.524051774494    -0.737031269483    12.000000000000
         C           -3.774708327969    -0.955395774494    -0.075513269483    12.000000000000
         H            4.305981672031    -1.759882774494    -0.315409269483     1.007825032230
         H            4.025084672031    -0.822086774494     1.148941730517     1.007825032230
         H            4.411915672031     0.730813225506    -0.734836269483     1.007825032230
         H            3.131106672031    -0.041737774494    -1.674689269483     1.007825032230
         H            1.860617672031    -2.107540774494    -0.595169269483     1.007825032230
         H            2.339904672031    -2.618850774494     1.028507730517     1.007825032230
         H            2.760375672031     1.493359225506     0.948652730517     1.007825032230
         H            2.226291672031     2.016897225506    -0.655066269483     1.007825032230
         H            0.255892672031    -1.214087774494     1.069673730517     1.007825032230
         H            1.581296672031    -0.460354774494     1.966323730517     1.007825032230
         H           -2.278550327969     1.893809225506     1.056547730517     1.007825032230
         H           -0.597743327969    -1.309797774494    -1.257939269483     1.007825032230
         H           -4.481039327969     0.719868225506     1.086670730517     1.007825032230
         H           -2.799285327969    -2.466247774494    -1.267734269483     1.007825032230
         H           -4.737485327969    -1.460814774494    -0.079691269483     1.007825032230

  Basis Set: AUG-CC-PVTZ
    Blend: AUG-CC-PVTZ
  Basis Set: (AUG-CC-PVTZ AUX)
    Blend: AUG-CC-PVTZ-JKFIT
	 Reference Energy          =    -592.6819580821086220 [Eh]
	 Singles Energy            =      -0.0000000000000000 [Eh]
	 Same-Spin Energy          =      -0.6435654159662068 [Eh]
	 Opposite-Spin Energy      =      -2.0535350631741194 [Eh]
	 Correlation Energy        =      -2.6971004791403264 [Eh]
	 Total Energy              =    -595.3790585612489394 [Eh]

	 ================> DF-SCS-MP2 Energies <==================
	-----------------------------------------------------------
	 SCS Same-Spin Scale       =       0.3333333333333333 [-]
	 SCS Opposite-Spin Scale   =       1.2000000000000000 [-]
	 SCS Same-Spin Energy      =      -0.2145218053220689 [Eh]
	 SCS Opposite-Spin Energy  =      -2.4642420758089432 [Eh]
	 SCS Correlation Energy    =      -2.6787638811310122 [Eh]
	 SCS Total Energy          =    -595.3607219632395982 [Eh]
	-----------------------------------------------------------

  Dipole Moment: [D]
     X:     1.0727      Y:    -3.3400      Z:     1.1122     Total:     3.6801

*** Psi4 exiting successfully. Buy a developer a beer!
