                               Psi4 1.3.2 release

  ==> Input File <==

--------------------------------------------------------------------------
#psi4
#
memory 32 gb

molecule  {
0 1
  O       -0.0715800     2.3560242    -0.4141122
  N        1.0902530     0.4589530     0.1084880
  C        3.5423410    -1.0378250     0.1583630
  C        3.3922610     0.2419230    -0.6640150
  C        2.1860550    -1.7140940     0.3593590
  C        2.3559930     1.1736850    -0.0440690
  C        1.1838660    -0.7305840     0.9537980
  C       -0.0769430     1.1544410    -0.1174940
  C       -1.3555190     0.3759530    -0.0649830
  C       -2.4581180     0.9595770     0.5701650
  C       -1.5045770    -0.8456090    -0.7357740
  C       -3.6889550     0.3043920     0.5733300
  C       -2.7428150    -1.4894620    -0.7452070
  C       -3.8339540    -0.9208060    -0.0836890
  H        4.2467360    -1.7252930    -0.3235850
  H        3.9658390    -0.7874970     1.1407660
  H        4.3526700     0.7654030    -0.7430120
  H        3.0718610    -0.0071480    -1.6828650
  H        1.8013720    -2.0729510    -0.6033450
  H        2.2806590    -2.5842610     1.0203320
  H        2.7011300     1.5279490     0.9404770
  H        2.1670460     2.0514870    -0.6632420
  H        0.1966470    -1.1794980     1.0614980
  H        1.5220510    -0.4257650     1.9581480
  H       -2.3377960     1.9283990     1.0483720
  H       -0.6569890    -1.2752080    -1.2661150
  H       -4.5402850     0.7544580     1.0784950
  H       -2.8585310    -2.4316580    -1.2759100
  H       -4.7967310    -1.4262250    -0.0878670
units angstrom
no_reorient  #important for SAPT in psi4, default
symmetry c1  #important for SAPT in psi4, default
}

set PROPERTIES_ORIGIN ["COM"]
properties('MP2/aug-cc-pvtz', properties = ['dipole'])
--------------------------------------------------------------------------

    Molecular point group: c1
  Charge       = 0
  Multiplicity = 1
  Basis Set: AUG-CC-PVTZ
    Blend: AUG-CC-PVTZ
  Basis Set: (AUG-CC-PVTZ AUX)
    Blend: AUG-CC-PVTZ-JKFIT

    Orbital Energies [Eh]
    ---------------------

    Doubly Occupied:

       1A    -20.514326     2A    -15.580642     3A    -11.350180
       4A    -11.266586     5A    -11.252477     6A    -11.251873
       7A    -11.250624     8A    -11.248489     9A    -11.246407
      10A    -11.246003    11A    -11.243924    12A    -11.230576
      13A    -11.227496    14A    -11.224533    15A     -1.369258
      16A     -1.246862    17A     -1.161764    18A     -1.083371
      19A     -1.040940    20A     -1.025859    21A     -1.023192
      22A     -0.924293    23A     -0.867522    24A     -0.846139
      25A     -0.836181    26A     -0.793118    27A     -0.747584
      28A     -0.720136    29A     -0.681359    30A     -0.651485
      31A     -0.638773    32A     -0.630334    33A     -0.625660
      34A     -0.610579    35A     -0.601081    36A     -0.594160
      37A     -0.588607    38A     -0.560045    39A     -0.550512
      40A     -0.534104    41A     -0.513524    42A     -0.504277
      43A     -0.501635    44A     -0.495959    45A     -0.478172
      46A     -0.468368    47A     -0.460154    48A     -0.422559
      49A     -0.368746    50A     -0.345457    51A     -0.343157

  @DF-RHF Final Energy:  -592.68278392013428

   => Energetics <=

    Nuclear Repulsion Energy =            877.0665055912328398
    One-Electron Energy =               -2545.5204559831554434
    Two-Electron Energy =                1075.7711664717883195
    Total Energy =                       -592.6827839201343977
  Basis Set: (AUG-CC-PVTZ AUX)
    Blend: AUG-CC-PVTZ-RI
    Molecular point group: c1

    Geometry (in Angstrom), charge = 0, multiplicity = 1:

       Center              X                  Y                   Z               Mass
    ------------   -----------------  -----------------  -----------------  -----------------
         O           -0.015107893411     2.319916369963    -0.405797529509    15.994914619570
         N            1.146725106589     0.422845169963     0.116802670491    14.003074004430
         C            3.598813106589    -1.073932830037     0.166677670491    12.000000000000
         C            3.448733106589     0.205815169963    -0.655700329509    12.000000000000
         C            2.242527106589    -1.750201830037     0.367673670491    12.000000000000
         C            2.412465106589     1.137577169963    -0.035754329509    12.000000000000
         C            1.240338106589    -0.766691830037     0.962112670491    12.000000000000
         C           -0.020470893411     1.118333169963    -0.109179329509    12.000000000000
         C           -1.299046893411     0.339845169963    -0.056668329509    12.000000000000
         C           -2.401645893411     0.923469169963     0.578479670491    12.000000000000
         C           -1.448104893411    -0.881716830037    -0.727459329509    12.000000000000
         C           -3.632482893411     0.268284169963     0.581644670491    12.000000000000
         C           -2.686342893411    -1.525569830037    -0.736892329509    12.000000000000
         C           -3.777481893411    -0.956913830037    -0.075374329509    12.000000000000
         H            4.303208106589    -1.761400830037    -0.315270329509     1.007825032230
         H            4.022311106589    -0.823604830037     1.149080670491     1.007825032230
         H            4.409142106589     0.729295169963    -0.734697329509     1.007825032230
         H            3.128333106589    -0.043255830037    -1.674550329509     1.007825032230
         H            1.857844106589    -2.109058830037    -0.595030329509     1.007825032230
         H            2.337131106589    -2.620368830037     1.028646670491     1.007825032230
         H            2.757602106589     1.491841169963     0.948791670491     1.007825032230
         H            2.223518106589     2.015379169963    -0.654927329509     1.007825032230
         H            0.253119106589    -1.215605830037     1.069812670491     1.007825032230
         H            1.578523106589    -0.461872830037     1.966462670491     1.007825032230
         H           -2.281323893411     1.892291169963     1.056686670491     1.007825032230
         H           -0.600516893411    -1.311315830037    -1.257800329509     1.007825032230
         H           -4.483812893411     0.718350169963     1.086809670491     1.007825032230
         H           -2.802058893411    -2.467765830037    -1.267595329509     1.007825032230
         H           -4.740258893411    -1.462332830037    -0.079552329509     1.007825032230

  Basis Set: AUG-CC-PVTZ
    Blend: AUG-CC-PVTZ
  Basis Set: (AUG-CC-PVTZ AUX)
    Blend: AUG-CC-PVTZ-JKFIT
	 Reference Energy          =    -592.6827839201342840 [Eh]
	 Singles Energy            =      -0.0000000000000000 [Eh]
	 Same-Spin Energy          =      -0.6434911616362580 [Eh]
	 Opposite-Spin Energy      =      -2.0533090655606423 [Eh]
	 Correlation Energy        =      -2.6968002271969000 [Eh]
	 Total Energy              =    -595.3795841473312294 [Eh]

	 ================> DF-SCS-MP2 Energies <==================
	-----------------------------------------------------------
	 SCS Same-Spin Scale       =       0.3333333333333333 [-]
	 SCS Opposite-Spin Scale   =       1.2000000000000000 [-]
	 SCS Same-Spin Energy      =      -0.2144970538787526 [Eh]
	 SCS Opposite-Spin Energy  =      -2.4639708786727708 [Eh]
	 SCS Correlation Energy    =      -2.6784679325515235 [Eh]
	 SCS Total Energy          =    -595.3612518526857684 [Eh]
	-----------------------------------------------------------

  Dipole Moment: [D]
     X:     0.9448      Y:    -3.4022      Z:     1.1171     Total:     3.7034

*** Psi4 exiting successfully. Buy a developer a beer!
