                               Psi4 1.3.2 release

  ==> Input File <==

--------------------------------------------------------------------------
#psi4
#
memory 32 gb

molecule  {
0 1
  O       -0.0931590     2.3556990    -0.4150330
  N        1.0642827     0.4189105     0.1142746
  C        3.5423410    -1.0378250     0.1583630
  C        3.3922610     0.2419230    -0.6640150
  C        2.1860550    -1.7140940     0.3593590
  C        2.3559930     1.1736850    -0.0440690
  C        1.1838660    -0.7305840     0.9537980
  C       -0.0769430     1.1544410    -0.1174940
  C       -1.3555190     0.3759530    -0.0649830
  C       -2.4581180     0.9595770     0.5701650
  C       -1.5045770    -0.8456090    -0.7357740
  C       -3.6889550     0.3043920     0.5733300
  C       -2.7428150    -1.4894620    -0.7452070
  C       -3.8339540    -0.9208060    -0.0836890
  H        4.2467360    -1.7252930    -0.3235850
  H        3.9658390    -0.7874970     1.1407660
  H        4.3526700     0.7654030    -0.7430120
  H        3.0718610    -0.0071480    -1.6828650
  H        1.8013720    -2.0729510    -0.6033450
  H        2.2806590    -2.5842610     1.0203320
  H        2.7011300     1.5279490     0.9404770
  H        2.1670460     2.0514870    -0.6632420
  H        0.1966470    -1.1794980     1.0614980
  H        1.5220510    -0.4257650     1.9581480
  H       -2.3377960     1.9283990     1.0483720
  H       -0.6569890    -1.2752080    -1.2661150
  H       -4.5402850     0.7544580     1.0784950
  H       -2.8585310    -2.4316580    -1.2759100
  H       -4.7967310    -1.4262250    -0.0878670
units angstrom
no_reorient  #important for SAPT in psi4, default
symmetry c1  #important for SAPT in psi4, default
}

set PROPERTIES_ORIGIN ["COM"]
properties('MP2/aug-cc-pvtz', properties = ['dipole'])
--------------------------------------------------------------------------

    Molecular point group: c1
  Charge       = 0
  Multiplicity = 1
  Basis Set: AUG-CC-PVTZ
    Blend: AUG-CC-PVTZ
  Basis Set: (AUG-CC-PVTZ AUX)
    Blend: AUG-CC-PVTZ-JKFIT

    Orbital Energies [Eh]
    ---------------------

    Doubly Occupied:

       1A    -20.517277     2A    -15.582671     3A    -11.351505
       4A    -11.264829     5A    -11.257026     6A    -11.249721
       7A    -11.248408     8A    -11.247086     9A    -11.244768
      10A    -11.244662    11A    -11.242623    12A    -11.230312
      13A    -11.228028    14A    -11.225912    15A     -1.369463
      16A     -1.250327    17A     -1.160142    18A     -1.084685
      19A     -1.037750    20A     -1.026713    21A     -1.022416
      22A     -0.925635    23A     -0.865922    24A     -0.847041
      25A     -0.835241    26A     -0.792508    27A     -0.748678
      28A     -0.719127    29A     -0.680602    30A     -0.653925
      31A     -0.638650    32A     -0.628387    33A     -0.626195
      34A     -0.610323    35A     -0.600652    36A     -0.592938
      37A     -0.589601    38A     -0.559475    39A     -0.551263
      40A     -0.534135    41A     -0.512317    42A     -0.503998
      43A     -0.501249    44A     -0.495621    45A     -0.478921
      46A     -0.468318    47A     -0.461370    48A     -0.421763
      49A     -0.372053    50A     -0.344175    51A     -0.341544

  @DF-RHF Final Energy:  -592.67977908406192

   => Energetics <=

    Nuclear Repulsion Energy =            877.1798612046768540
    One-Electron Energy =               -2545.7433764024858647
    Two-Electron Energy =                1075.8837361137470907
    Total Energy =                       -592.6797790840619200
  Basis Set: (AUG-CC-PVTZ AUX)
    Blend: AUG-CC-PVTZ-RI
    Molecular point group: c1

    Geometry (in Angstrom), charge = 0, multiplicity = 1:

       Center              X                  Y                   Z               Mass
    ------------   -----------------  -----------------  -----------------  -----------------
         O           -0.032938819854     2.322583627185    -0.407068920117    15.994914619570
         N            1.124502880146     0.385795127185     0.122238679883    14.003074004430
         C            3.602561180146    -1.070940372815     0.166327079883    12.000000000000
         C            3.452481180146     0.208807627185    -0.656050920117    12.000000000000
         C            2.246275180146    -1.747209372815     0.367323079883    12.000000000000
         C            2.416213180146     1.140569627185    -0.036104920117    12.000000000000
         C            1.244086180146    -0.763699372815     0.961762079883    12.000000000000
         C           -0.016722819854     1.121325627185    -0.109529920117    12.000000000000
         C           -1.295298819854     0.342837627185    -0.057018920117    12.000000000000
         C           -2.397897819854     0.926461627185     0.578129079883    12.000000000000
         C           -1.444356819854    -0.878724372815    -0.727809920117    12.000000000000
         C           -3.628734819854     0.271276627185     0.581294079883    12.000000000000
         C           -2.682594819854    -1.522577372815    -0.737242920117    12.000000000000
         C           -3.773733819854    -0.953921372815    -0.075724920117    12.000000000000
         H            4.306956180146    -1.758408372815    -0.315620920117     1.007825032230
         H            4.026059180146    -0.820612372815     1.148730079883     1.007825032230
         H            4.412890180146     0.732287627185    -0.735047920117     1.007825032230
         H            3.132081180146    -0.040263372815    -1.674900920117     1.007825032230
         H            1.861592180146    -2.106066372815    -0.595380920117     1.007825032230
         H            2.340879180146    -2.617376372815     1.028296079883     1.007825032230
         H            2.761350180146     1.494833627185     0.948441079883     1.007825032230
         H            2.227266180146     2.018371627185    -0.655277920117     1.007825032230
         H            0.256867180146    -1.212613372815     1.069462079883     1.007825032230
         H            1.582271180146    -0.458880372815     1.966112079883     1.007825032230
         H           -2.277575819854     1.895283627185     1.056336079883     1.007825032230
         H           -0.596768819854    -1.308323372815    -1.258150920117     1.007825032230
         H           -4.480064819854     0.721342627185     1.086459079883     1.007825032230
         H           -2.798310819854    -2.464773372815    -1.267945920117     1.007825032230
         H           -4.736510819854    -1.459340372815    -0.079902920117     1.007825032230

  Basis Set: AUG-CC-PVTZ
    Blend: AUG-CC-PVTZ
  Basis Set: (AUG-CC-PVTZ AUX)
    Blend: AUG-CC-PVTZ-JKFIT
	 Reference Energy          =    -592.6797790840619200 [Eh]
	 Singles Energy            =      -0.0000000000000000 [Eh]
	 Same-Spin Energy          =      -0.6437205513381405 [Eh]
	 Opposite-Spin Energy      =      -2.0538736616289235 [Eh]
	 Correlation Energy        =      -2.6975942129670640 [Eh]
	 Total Energy              =    -595.3773732970289529 [Eh]

	 ================> DF-SCS-MP2 Energies <==================
	-----------------------------------------------------------
	 SCS Same-Spin Scale       =       0.3333333333333333 [-]
	 SCS Opposite-Spin Scale   =       1.2000000000000000 [-]
	 SCS Same-Spin Energy      =      -0.2145735171127135 [Eh]
	 SCS Opposite-Spin Energy  =      -2.4646483939547079 [Eh]
	 SCS Correlation Energy    =      -2.6792219110674216 [Eh]
	 SCS Total Energy          =    -595.3590009951293496 [Eh]
	-----------------------------------------------------------

  Dipole Moment: [D]
     X:     1.1136      Y:    -3.2862      Z:     1.1006     Total:     3.6401

*** Psi4 exiting successfully. Buy a developer a beer!
