                               Psi4 1.3.2 release

  ==> Input File <==

--------------------------------------------------------------------------
#psi4
#
memory 32 gb

molecule  {
0 1
  O       -0.0931590     2.3556990    -0.4150330
  N        1.0902530     0.4589530     0.1084880
  C        3.5423410    -1.0378250     0.1583630
  C        3.3922610     0.2419230    -0.6640150
  C        2.1860550    -1.7140940     0.3593590
  C        2.3559930     1.1736850    -0.0440690
  C        1.1838660    -0.7305840     0.9537980
  C       -0.0769430     1.1544410    -0.1174940
  C       -1.3836505     0.3378172    -0.0768967
  C       -2.4581180     0.9595770     0.5701650
  C       -1.5045770    -0.8456090    -0.7357740
  C       -3.6889550     0.3043920     0.5733300
  C       -2.7428150    -1.4894620    -0.7452070
  C       -3.8339540    -0.9208060    -0.0836890
  H        4.2467360    -1.7252930    -0.3235850
  H        3.9658390    -0.7874970     1.1407660
  H        4.3526700     0.7654030    -0.7430120
  H        3.0718610    -0.0071480    -1.6828650
  H        1.8013720    -2.0729510    -0.6033450
  H        2.2806590    -2.5842610     1.0203320
  H        2.7011300     1.5279490     0.9404770
  H        2.1670460     2.0514870    -0.6632420
  H        0.1966470    -1.1794980     1.0614980
  H        1.5220510    -0.4257650     1.9581480
  H       -2.3377960     1.9283990     1.0483720
  H       -0.6569890    -1.2752080    -1.2661150
  H       -4.5402850     0.7544580     1.0784950
  H       -2.8585310    -2.4316580    -1.2759100
  H       -4.7967310    -1.4262250    -0.0878670
units angstrom
no_reorient  #important for SAPT in psi4, default
symmetry c1  #important for SAPT in psi4, default
}

set PROPERTIES_ORIGIN ["COM"]
properties('MP2/aug-cc-pvtz', properties = ['dipole'])
--------------------------------------------------------------------------

    Molecular point group: c1
  Charge       = 0
  Multiplicity = 1
  Basis Set: AUG-CC-PVTZ
    Blend: AUG-CC-PVTZ
  Basis Set: (AUG-CC-PVTZ AUX)
    Blend: AUG-CC-PVTZ-JKFIT

    Orbital Energies [Eh]
    ---------------------

    Doubly Occupied:

       1A    -20.515774     2A    -15.581609     3A    -11.352068
       4A    -11.267222     5A    -11.253278     6A    -11.249306
       7A    -11.246500     8A    -11.245389     9A    -11.244552
      10A    -11.244169    11A    -11.242826    12A    -11.231036
      13A    -11.227963    14A    -11.225082    15A     -1.368215
      16A     -1.247844    17A     -1.165048    18A     -1.083397
      19A     -1.040147    20A     -1.025597    21A     -1.024168
      22A     -0.923147    23A     -0.866394    24A     -0.842003
      25A     -0.838248    26A     -0.794208    27A     -0.747168
      28A     -0.719499    29A     -0.678096    30A     -0.650085
      31A     -0.639361    32A     -0.630567    33A     -0.626310
      34A     -0.612663    35A     -0.599597    36A     -0.595224
      37A     -0.588810    38A     -0.560536    39A     -0.550860
      40A     -0.533814    41A     -0.511556    42A     -0.506388
      43A     -0.503045    44A     -0.496784    45A     -0.478748
      46A     -0.468934    47A     -0.460688    48A     -0.418951
      49A     -0.369665    50A     -0.348601    51A     -0.341340

  @DF-RHF Final Energy:  -592.68089132617899

   => Energetics <=

    Nuclear Repulsion Energy =            877.0028216941724395
    One-Electron Energy =               -2545.4024626730101772
    Two-Electron Energy =                1075.7187496526589712
    Total Energy =                       -592.6808913261788803
  Basis Set: (AUG-CC-PVTZ AUX)
    Blend: AUG-CC-PVTZ-RI
    Molecular point group: c1

    Geometry (in Angstrom), charge = 0, multiplicity = 1:

       Center              X                  Y                   Z               Mass
    ------------   -----------------  -----------------  -----------------  -----------------
         O           -0.033076756996     2.322038518164    -0.405884486536    15.994914619570
         N            1.150335243004     0.425292518164     0.117636513464    14.003074004430
         C            3.602423243004    -1.071485481836     0.167511513464    12.000000000000
         C            3.452343243004     0.208262518164    -0.654866486536    12.000000000000
         C            2.246137243004    -1.747754481836     0.368507513464    12.000000000000
         C            2.416075243004     1.140024518164    -0.034920486536    12.000000000000
         C            1.243948243004    -0.764244481836     0.962946513464    12.000000000000
         C           -0.016860756996     1.120780518164    -0.108345486536    12.000000000000
         C           -1.323568256996     0.304156718164    -0.067748186536    12.000000000000
         C           -2.398035756996     0.925916518164     0.579313513464    12.000000000000
         C           -1.444494756996    -0.879269481836    -0.726625486536    12.000000000000
         C           -3.628872756996     0.270731518164     0.582478513464    12.000000000000
         C           -2.682732756996    -1.523122481836    -0.736058486536    12.000000000000
         C           -3.773871756996    -0.954466481836    -0.074540486536    12.000000000000
         H            4.306818243004    -1.758953481836    -0.314436486536     1.007825032230
         H            4.025921243004    -0.821157481836     1.149914513464     1.007825032230
         H            4.412752243004     0.731742518164    -0.733863486536     1.007825032230
         H            3.131943243004    -0.040808481836    -1.673716486536     1.007825032230
         H            1.861454243004    -2.106611481836    -0.594196486536     1.007825032230
         H            2.340741243004    -2.617921481836     1.029480513464     1.007825032230
         H            2.761212243004     1.494288518164     0.949625513464     1.007825032230
         H            2.227128243004     2.017826518164    -0.654093486536     1.007825032230
         H            0.256729243004    -1.213158481836     1.070646513464     1.007825032230
         H            1.582133243004    -0.459425481836     1.967296513464     1.007825032230
         H           -2.277713756996     1.894738518164     1.057520513464     1.007825032230
         H           -0.596906756996    -1.308868481836    -1.256966486536     1.007825032230
         H           -4.480202756996     0.720797518164     1.087643513464     1.007825032230
         H           -2.798448756996    -2.465318481836    -1.266761486536     1.007825032230
         H           -4.736648756996    -1.459885481836    -0.078718486536     1.007825032230

  Basis Set: AUG-CC-PVTZ
    Blend: AUG-CC-PVTZ
  Basis Set: (AUG-CC-PVTZ AUX)
    Blend: AUG-CC-PVTZ-JKFIT
	 Reference Energy          =    -592.6808913261789939 [Eh]
	 Singles Energy            =      -0.0000000000000000 [Eh]
	 Same-Spin Energy          =      -0.6432099090846309 [Eh]
	 Opposite-Spin Energy      =      -2.0528469143912229 [Eh]
	 Correlation Energy        =      -2.6960568234758537 [Eh]
	 Total Energy              =    -595.3769481496548224 [Eh]

	 ================> DF-SCS-MP2 Energies <==================
	-----------------------------------------------------------
	 SCS Same-Spin Scale       =       0.3333333333333333 [-]
	 SCS Opposite-Spin Scale   =       1.2000000000000000 [-]
	 SCS Same-Spin Energy      =      -0.2144033030282103 [Eh]
	 SCS Opposite-Spin Energy  =      -2.4634162972694673 [Eh]
	 SCS Correlation Energy    =      -2.6778196002976777 [Eh]
	 SCS Total Energy          =    -595.3587109264766468 [Eh]
	-----------------------------------------------------------

  Dipole Moment: [D]
     X:     1.0738      Y:    -3.3601      Z:     1.1193     Total:     3.7009

*** Psi4 exiting successfully. Buy a developer a beer!
