                               Psi4 1.3.2 release

  ==> Input File <==

--------------------------------------------------------------------------
#psi4
#
memory 32 gb

molecule  {
0 1
  O       -0.0931590     2.3556990    -0.4150330
  N        1.0902530     0.4589530     0.1084880
  C        3.5423410    -1.0378250     0.1583630
  C        3.3922610     0.2419230    -0.6640150
  C        2.1860550    -1.7140940     0.3593590
  C        2.3559930     1.1736850    -0.0440690
  C        1.1838660    -0.7305840     0.9537980
  C       -0.0769430     1.1544410    -0.1174940
  C       -1.4133148     0.3008479    -0.0887862
  C       -2.4581180     0.9595770     0.5701650
  C       -1.5045770    -0.8456090    -0.7357740
  C       -3.6889550     0.3043920     0.5733300
  C       -2.7428150    -1.4894620    -0.7452070
  C       -3.8339540    -0.9208060    -0.0836890
  H        4.2467360    -1.7252930    -0.3235850
  H        3.9658390    -0.7874970     1.1407660
  H        4.3526700     0.7654030    -0.7430120
  H        3.0718610    -0.0071480    -1.6828650
  H        1.8013720    -2.0729510    -0.6033450
  H        2.2806590    -2.5842610     1.0203320
  H        2.7011300     1.5279490     0.9404770
  H        2.1670460     2.0514870    -0.6632420
  H        0.1966470    -1.1794980     1.0614980
  H        1.5220510    -0.4257650     1.9581480
  H       -2.3377960     1.9283990     1.0483720
  H       -0.6569890    -1.2752080    -1.2661150
  H       -4.5402850     0.7544580     1.0784950
  H       -2.8585310    -2.4316580    -1.2759100
  H       -4.7967310    -1.4262250    -0.0878670
units angstrom
no_reorient  #important for SAPT in psi4, default
symmetry c1  #important for SAPT in psi4, default
}

set PROPERTIES_ORIGIN ["COM"]
properties('MP2/aug-cc-pvtz', properties = ['dipole'])
--------------------------------------------------------------------------

    Molecular point group: c1
  Charge       = 0
  Multiplicity = 1
  Basis Set: AUG-CC-PVTZ
    Blend: AUG-CC-PVTZ
  Basis Set: (AUG-CC-PVTZ AUX)
    Blend: AUG-CC-PVTZ-JKFIT

    Orbital Energies [Eh]
    ---------------------

    Doubly Occupied:

       1A    -20.516553     2A    -15.581386     3A    -11.353104
       4A    -11.267226     5A    -11.253117     6A    -11.247821
       7A    -11.245672     8A    -11.244437     9A    -11.243738
      10A    -11.242382    11A    -11.238841    12A    -11.231044
      13A    -11.227955    14A    -11.225040    15A     -1.367261
      16A     -1.247438    17A     -1.169761    18A     -1.082929
      19A     -1.040922    20A     -1.027622    21A     -1.022704
      22A     -0.921710    23A     -0.865327    24A     -0.841070
      25A     -0.837672    26A     -0.794787    27A     -0.746596
      28A     -0.719213    29A     -0.675404    30A     -0.648606
      31A     -0.640726    32A     -0.630471    33A     -0.626648
      34A     -0.614544    35A     -0.598434    36A     -0.596022
      37A     -0.588489    38A     -0.560368    39A     -0.550981
      40A     -0.533705    41A     -0.513018    42A     -0.507490
      43A     -0.504243    44A     -0.495553    45A     -0.478743
      46A     -0.468827    47A     -0.460614    48A     -0.413773
      49A     -0.369575    50A     -0.353202    51A     -0.339832

  @DF-RHF Final Energy:  -592.67277969187830

   => Energetics <=

    Nuclear Repulsion Energy =            877.0096456970702548
    One-Electron Energy =               -2545.4196560802070053
    Two-Electron Energy =                1075.7372306912584463
    Total Energy =                       -592.6727796918783042
  Basis Set: (AUG-CC-PVTZ AUX)
    Blend: AUG-CC-PVTZ-RI
    Molecular point group: c1

    Geometry (in Angstrom), charge = 0, multiplicity = 1:

       Center              X                  Y                   Z               Mass
    ------------   -----------------  -----------------  -----------------  -----------------
         O           -0.031194458317     2.324384343434    -0.405130058144    15.994914619570
         N            1.152217541683     0.427638343434     0.118390941856    14.003074004430
         C            3.604305541683    -1.069139656566     0.168265941856    12.000000000000
         C            3.454225541683     0.210608343434    -0.654112058144    12.000000000000
         C            2.248019541683    -1.745408656566     0.369261941856    12.000000000000
         C            2.417957541683     1.142370343434    -0.034166058144    12.000000000000
         C            1.245830541683    -0.761898656566     0.963700941856    12.000000000000
         C           -0.014978458317     1.123126343434    -0.107591058144    12.000000000000
         C           -1.351350258317     0.269533243434    -0.078883258144    12.000000000000
         C           -2.396153458317     0.928262343434     0.580067941856    12.000000000000
         C           -1.442612458317    -0.876923656566    -0.725871058144    12.000000000000
         C           -3.626990458317     0.273077343434     0.583232941856    12.000000000000
         C           -2.680850458317    -1.520776656566    -0.735304058144    12.000000000000
         C           -3.771989458317    -0.952120656566    -0.073786058144    12.000000000000
         H            4.308700541683    -1.756607656566    -0.313682058144     1.007825032230
         H            4.027803541683    -0.818811656566     1.150668941856     1.007825032230
         H            4.414634541683     0.734088343434    -0.733109058144     1.007825032230
         H            3.133825541683    -0.038462656566    -1.672962058144     1.007825032230
         H            1.863336541683    -2.104265656566    -0.593442058144     1.007825032230
         H            2.342623541683    -2.615575656566     1.030234941856     1.007825032230
         H            2.763094541683     1.496634343434     0.950379941856     1.007825032230
         H            2.229010541683     2.020172343434    -0.653339058144     1.007825032230
         H            0.258611541683    -1.210812656566     1.071400941856     1.007825032230
         H            1.584015541683    -0.457079656566     1.968050941856     1.007825032230
         H           -2.275831458317     1.897084343434     1.058274941856     1.007825032230
         H           -0.595024458317    -1.306522656566    -1.256212058144     1.007825032230
         H           -4.478320458317     0.723143343434     1.088397941856     1.007825032230
         H           -2.796566458317    -2.462972656566    -1.266007058144     1.007825032230
         H           -4.734766458317    -1.457539656566    -0.077964058144     1.007825032230

  Basis Set: AUG-CC-PVTZ
    Blend: AUG-CC-PVTZ
  Basis Set: (AUG-CC-PVTZ AUX)
    Blend: AUG-CC-PVTZ-JKFIT
	 Reference Energy          =    -592.6727796918783042 [Eh]
	 Singles Energy            =      -0.0000000000000000 [Eh]
	 Same-Spin Energy          =      -0.6431148629875459 [Eh]
	 Opposite-Spin Energy      =      -2.0528009621830079 [Eh]
	 Correlation Energy        =      -2.6959158251705539 [Eh]
	 Total Energy              =    -595.3686955170488773 [Eh]

	 ================> DF-SCS-MP2 Energies <==================
	-----------------------------------------------------------
	 SCS Same-Spin Scale       =       0.3333333333333333 [-]
	 SCS Opposite-Spin Scale   =       1.2000000000000000 [-]
	 SCS Same-Spin Energy      =      -0.2143716209958486 [Eh]
	 SCS Opposite-Spin Energy  =      -2.4633611546196095 [Eh]
	 SCS Correlation Energy    =      -2.6777327756154583 [Eh]
	 SCS Total Energy          =    -595.3505124674937861 [Eh]
	-----------------------------------------------------------

  Dipole Moment: [D]
     X:     1.1115      Y:    -3.3272      Z:     1.1153     Total:     3.6809

*** Psi4 exiting successfully. Buy a developer a beer!
