                               Psi4 1.3.2 release

  ==> Input File <==

--------------------------------------------------------------------------
#psi4
#
memory 32 gb

molecule  {
0 1
  O       -0.0931590     2.3556990    -0.4150330
  N        1.0902530     0.4589530     0.1084880
  C        3.5423410    -1.0378250     0.1583630
  C        3.3922610     0.2419230    -0.6640150
  C        2.1860550    -1.7140940     0.3593590
  C        2.3559930     1.1736850    -0.0440690
  C        1.1838660    -0.7305840     0.9537980
  C       -0.0769430     1.1544410    -0.1174940
  C       -1.3286189     0.4145953    -0.0519132
  C       -2.4581180     0.9595770     0.5701650
  C       -1.5045770    -0.8456090    -0.7357740
  C       -3.6889550     0.3043920     0.5733300
  C       -2.7428150    -1.4894620    -0.7452070
  C       -3.8339540    -0.9208060    -0.0836890
  H        4.2467360    -1.7252930    -0.3235850
  H        3.9658390    -0.7874970     1.1407660
  H        4.3526700     0.7654030    -0.7430120
  H        3.0718610    -0.0071480    -1.6828650
  H        1.8013720    -2.0729510    -0.6033450
  H        2.2806590    -2.5842610     1.0203320
  H        2.7011300     1.5279490     0.9404770
  H        2.1670460     2.0514870    -0.6632420
  H        0.1966470    -1.1794980     1.0614980
  H        1.5220510    -0.4257650     1.9581480
  H       -2.3377960     1.9283990     1.0483720
  H       -0.6569890    -1.2752080    -1.2661150
  H       -4.5402850     0.7544580     1.0784950
  H       -2.8585310    -2.4316580    -1.2759100
  H       -4.7967310    -1.4262250    -0.0878670
units angstrom
no_reorient  #important for SAPT in psi4, default
symmetry c1  #important for SAPT in psi4, default
}

set PROPERTIES_ORIGIN ["COM"]
properties('MP2/aug-cc-pvtz', properties = ['dipole'])
--------------------------------------------------------------------------

    Molecular point group: c1
  Charge       = 0
  Multiplicity = 1
  Basis Set: AUG-CC-PVTZ
    Blend: AUG-CC-PVTZ
  Basis Set: (AUG-CC-PVTZ AUX)
    Blend: AUG-CC-PVTZ-JKFIT

    Orbital Energies [Eh]
    ---------------------

    Doubly Occupied:

       1A    -20.513573     2A    -15.581602     3A    -11.347949
       4A    -11.267006     5A    -11.255771     6A    -11.253323
       7A    -11.251917     8A    -11.249542     9A    -11.247131
      10A    -11.246028    11A    -11.244021    12A    -11.230866
      13A    -11.227817    14A    -11.224954    15A     -1.370072
      16A     -1.248213    17A     -1.157847    18A     -1.084352
      19A     -1.042208    20A     -1.026803    21A     -1.020562
      22A     -0.926283    23A     -0.869708    24A     -0.849490
      25A     -0.833553    26A     -0.792273    27A     -0.748536
      28A     -0.721000    29A     -0.684132    30A     -0.652555
      31A     -0.638559    32A     -0.630681    33A     -0.624993
      34A     -0.609003    35A     -0.602190    36A     -0.592329
      37A     -0.588710    38A     -0.560576    39A     -0.550573
      40A     -0.534739    41A     -0.516285    42A     -0.502036
      43A     -0.500307    44A     -0.492384    45A     -0.478436
      46A     -0.468939    47A     -0.460608    48A     -0.424931
      49A     -0.369460    50A     -0.345568    51A     -0.339299

  @DF-RHF Final Energy:  -592.67890216898979

   => Energetics <=

    Nuclear Repulsion Energy =            877.0733395909883257
    One-Electron Energy =               -2545.5050999155487261
    Two-Electron Energy =                1075.7528581555707206
    Total Energy =                       -592.6789021689896799
  Basis Set: (AUG-CC-PVTZ AUX)
    Blend: AUG-CC-PVTZ-RI
    Molecular point group: c1

    Geometry (in Angstrom), charge = 0, multiplicity = 1:

       Center              X                  Y                   Z               Mass
    ------------   -----------------  -----------------  -----------------  -----------------
         O           -0.036568695386     2.317166691889    -0.407469772858    15.994914619570
         N            1.146843304614     0.420420691889     0.116051227142    14.003074004430
         C            3.598931304614    -1.076357308111     0.165926227142    12.000000000000
         C            3.448851304614     0.203390691889    -0.656451772858    12.000000000000
         C            2.242645304614    -1.752626308111     0.366922227142    12.000000000000
         C            2.412583304614     1.135152691889    -0.036505772858    12.000000000000
         C            1.240456304614    -0.769116308111     0.961361227142    12.000000000000
         C           -0.020352695386     1.115908691889    -0.109930772858    12.000000000000
         C           -1.272028595386     0.376062991889    -0.044349972858    12.000000000000
         C           -2.401527695386     0.921044691889     0.577728227142    12.000000000000
         C           -1.447986695386    -0.884141308111    -0.728210772858    12.000000000000
         C           -3.632364695386     0.265859691889     0.580893227142    12.000000000000
         C           -2.686224695386    -1.527994308111    -0.737643772858    12.000000000000
         C           -3.777363695386    -0.959338308111    -0.076125772858    12.000000000000
         H            4.303326304614    -1.763825308111    -0.316021772858     1.007825032230
         H            4.022429304614    -0.826029308111     1.148329227142     1.007825032230
         H            4.409260304614     0.726870691889    -0.735448772858     1.007825032230
         H            3.128451304614    -0.045680308111    -1.675301772858     1.007825032230
         H            1.857962304614    -2.111483308111    -0.595781772858     1.007825032230
         H            2.337249304614    -2.622793308111     1.027895227142     1.007825032230
         H            2.757720304614     1.489416691889     0.948040227142     1.007825032230
         H            2.223636304614     2.012954691889    -0.655678772858     1.007825032230
         H            0.253237304614    -1.218030308111     1.069061227142     1.007825032230
         H            1.578641304614    -0.464297308111     1.965711227142     1.007825032230
         H           -2.281205695386     1.889866691889     1.055935227142     1.007825032230
         H           -0.600398695386    -1.313740308111    -1.258551772858     1.007825032230
         H           -4.483694695386     0.715925691889     1.086058227142     1.007825032230
         H           -2.801940695386    -2.470190308111    -1.268346772858     1.007825032230
         H           -4.740140695386    -1.464757308111    -0.080303772858     1.007825032230

  Basis Set: AUG-CC-PVTZ
    Blend: AUG-CC-PVTZ
  Basis Set: (AUG-CC-PVTZ AUX)
    Blend: AUG-CC-PVTZ-JKFIT
	 Reference Energy          =    -592.6789021689897936 [Eh]
	 Singles Energy            =      -0.0000000000000000 [Eh]
	 Same-Spin Energy          =      -0.6438929570542228 [Eh]
	 Opposite-Spin Energy      =      -2.0541969344843531 [Eh]
	 Correlation Energy        =      -2.6980898915385758 [Eh]
	 Total Energy              =    -595.3769920605283232 [Eh]

	 ================> DF-SCS-MP2 Energies <==================
	-----------------------------------------------------------
	 SCS Same-Spin Scale       =       0.3333333333333333 [-]
	 SCS Opposite-Spin Scale   =       1.2000000000000000 [-]
	 SCS Same-Spin Energy      =      -0.2146309856847409 [Eh]
	 SCS Opposite-Spin Energy  =      -2.4650363213812239 [Eh]
	 SCS Correlation Energy    =      -2.6796673070659649 [Eh]
	 SCS Total Energy          =    -595.3585694760557772 [Eh]
	-----------------------------------------------------------

  Dipole Moment: [D]
     X:     0.9838      Y:    -3.4269      Z:     1.1264     Total:     3.7390

*** Psi4 exiting successfully. Buy a developer a beer!
