                               Psi4 1.3.2 release

  ==> Input File <==

--------------------------------------------------------------------------
#psi4
#
memory 32 gb

molecule  {
0 1
  O        0.0361588     2.3521617    -0.4081593
  N        1.0902530     0.4589530     0.1084880
  C        3.5423410    -1.0378250     0.1583630
  C        3.3922610     0.2419230    -0.6640150
  C        2.1860550    -1.7140940     0.3593590
  C        2.3559930     1.1736850    -0.0440690
  C        1.1838660    -0.7305840     0.9537980
  C       -0.0769430     1.1544410    -0.1174940
  C       -1.3555190     0.3759530    -0.0649830
  C       -2.4581180     0.9595770     0.5701650
  C       -1.5045770    -0.8456090    -0.7357740
  C       -3.6889550     0.3043920     0.5733300
  C       -2.7428150    -1.4894620    -0.7452070
  C       -3.8339540    -0.9208060    -0.0836890
  H        4.2467360    -1.7252930    -0.3235850
  H        3.9658390    -0.7874970     1.1407660
  H        4.3526700     0.7654030    -0.7430120
  H        3.0718610    -0.0071480    -1.6828650
  H        1.8013720    -2.0729510    -0.6033450
  H        2.2806590    -2.5842610     1.0203320
  H        2.7011300     1.5279490     0.9404770
  H        2.1670460     2.0514870    -0.6632420
  H        0.1966470    -1.1794980     1.0614980
  H        1.5220510    -0.4257650     1.9581480
  H       -2.3377960     1.9283990     1.0483720
  H       -0.6569890    -1.2752080    -1.2661150
  H       -4.5402850     0.7544580     1.0784950
  H       -2.8585310    -2.4316580    -1.2759100
  H       -4.7967310    -1.4262250    -0.0878670
units angstrom
no_reorient  #important for SAPT in psi4, default
symmetry c1  #important for SAPT in psi4, default
}

set PROPERTIES_ORIGIN ["COM"]
properties('MP2/aug-cc-pvtz', properties = ['dipole'])
--------------------------------------------------------------------------

    Molecular point group: c1
  Charge       = 0
  Multiplicity = 1
  Basis Set: AUG-CC-PVTZ
    Blend: AUG-CC-PVTZ
  Basis Set: (AUG-CC-PVTZ AUX)
    Blend: AUG-CC-PVTZ-JKFIT

    Orbital Energies [Eh]
    ---------------------

    Doubly Occupied:

       1A    -20.511973     2A    -15.575412     3A    -11.349729
       4A    -11.263620     5A    -11.255959     6A    -11.254183
       7A    -11.251484     8A    -11.249900     9A    -11.248552
      10A    -11.247954    11A    -11.246529    12A    -11.228482
      13A    -11.225309    14A    -11.221836    15A     -1.370631
      16A     -1.240429    17A     -1.164964    18A     -1.080857
      19A     -1.042575    20A     -1.027453    21A     -1.022819
      22A     -0.922545    23A     -0.866267    24A     -0.846485
      25A     -0.838353    26A     -0.791802    27A     -0.746530
      28A     -0.719967    29A     -0.683097    30A     -0.652136
      31A     -0.639065    32A     -0.629965    33A     -0.624085
      34A     -0.609644    35A     -0.601762    36A     -0.595818
      37A     -0.586681    38A     -0.557202    39A     -0.549581
      40A     -0.533716    41A     -0.515164    42A     -0.506348
      43A     -0.501383    44A     -0.495411    45A     -0.475640
      46A     -0.465237    47A     -0.457345    48A     -0.421289
      49A     -0.364331    50A     -0.347992    51A     -0.347096

  @DF-RHF Final Energy:  -592.67923348559918

   => Energetics <=

    Nuclear Repulsion Energy =            877.4302545445184478
    One-Electron Energy =               -2546.2738024680684248
    Two-Electron Energy =                1076.1643144379506793
    Total Energy =                       -592.6792334855992976
  Basis Set: (AUG-CC-PVTZ AUX)
    Blend: AUG-CC-PVTZ-RI
    Molecular point group: c1

    Geometry (in Angstrom), charge = 0, multiplicity = 1:

       Center              X                  Y                   Z               Mass
    ------------   -----------------  -----------------  -----------------  -----------------
         O            0.083518622585     2.316380550759    -0.400348111220    15.994914619570
         N            1.137612822585     0.423171850759     0.116299188780    14.003074004430
         C            3.589700822585    -1.073606149241     0.166174188780    12.000000000000
         C            3.439620822585     0.206141850759    -0.656203811220    12.000000000000
         C            2.233414822585    -1.749875149241     0.367170188780    12.000000000000
         C            2.403352822585     1.137903850759    -0.036257811220    12.000000000000
         C            1.231225822585    -0.766365149241     0.961609188780    12.000000000000
         C           -0.029583177415     1.118659850759    -0.109682811220    12.000000000000
         C           -1.308159177415     0.340171850759    -0.057171811220    12.000000000000
         C           -2.410758177415     0.923795850759     0.577976188780    12.000000000000
         C           -1.457217177415    -0.881390149241    -0.727962811220    12.000000000000
         C           -3.641595177415     0.268610850759     0.581141188780    12.000000000000
         C           -2.695455177415    -1.525243149241    -0.737395811220    12.000000000000
         C           -3.786594177415    -0.956587149241    -0.075877811220    12.000000000000
         H            4.294095822585    -1.761074149241    -0.315773811220     1.007825032230
         H            4.013198822585    -0.823278149241     1.148577188780     1.007825032230
         H            4.400029822585     0.729621850759    -0.735200811220     1.007825032230
         H            3.119220822585    -0.042929149241    -1.675053811220     1.007825032230
         H            1.848731822585    -2.108732149241    -0.595533811220     1.007825032230
         H            2.328018822585    -2.620042149241     1.028143188780     1.007825032230
         H            2.748489822585     1.492167850759     0.948288188780     1.007825032230
         H            2.214405822585     2.015705850759    -0.655430811220     1.007825032230
         H            0.244006822585    -1.215279149241     1.069309188780     1.007825032230
         H            1.569410822585    -0.461546149241     1.965959188780     1.007825032230
         H           -2.290436177415     1.892617850759     1.056183188780     1.007825032230
         H           -0.609629177415    -1.310989149241    -1.258303811220     1.007825032230
         H           -4.492925177415     0.718676850759     1.086306188780     1.007825032230
         H           -2.811171177415    -2.467439149241    -1.268098811220     1.007825032230
         H           -4.749371177415    -1.462006149241    -0.080055811220     1.007825032230

  Basis Set: AUG-CC-PVTZ
    Blend: AUG-CC-PVTZ
  Basis Set: (AUG-CC-PVTZ AUX)
    Blend: AUG-CC-PVTZ-JKFIT
	 Reference Energy          =    -592.6792334855991840 [Eh]
	 Singles Energy            =      -0.0000000000000000 [Eh]
	 Same-Spin Energy          =      -0.6437562511763890 [Eh]
	 Opposite-Spin Energy      =      -2.0535670162755926 [Eh]
	 Correlation Energy        =      -2.6973232674519814 [Eh]
	 Total Energy              =    -595.3765567530512044 [Eh]

	 ================> DF-SCS-MP2 Energies <==================
	-----------------------------------------------------------
	 SCS Same-Spin Scale       =       0.3333333333333333 [-]
	 SCS Opposite-Spin Scale   =       1.2000000000000000 [-]
	 SCS Same-Spin Energy      =      -0.2145854170587963 [Eh]
	 SCS Opposite-Spin Energy  =      -2.4642804195307111 [Eh]
	 SCS Correlation Energy    =      -2.6788658365895075 [Eh]
	 SCS Total Energy          =    -595.3580993221886501 [Eh]
	-----------------------------------------------------------

  Dipole Moment: [D]
     X:     0.5194      Y:    -3.4228      Z:     1.0831     Total:     3.6274

*** Psi4 exiting successfully. Buy a developer a beer!
