                               Psi4 1.4a2.dev612

  ==> Input File <==

--------------------------------------------------------------------------
#psi4
#
memory 32 gb

molecule  {
0 1
  O        0.6578240    -1.4038190    -0.0084800
  O       -1.9400820     1.1224280     0.2266150
  O       -1.5482610    -1.4485240    -0.4053400
  C        0.3934500     1.4379940    -0.3488290
  C        1.7709580     0.7423380    -0.3578590
  C       -0.6320071     0.6318324     0.3828702
  C        1.7409690    -0.5516630     0.4430470
  C       -0.5671300    -0.8317210    -0.0237270
  H        0.4383430     2.4405150     0.0852910
  H        0.0022100     1.5496010    -1.3639530
  H        2.0656470     0.4995800    -1.3827820
  H        2.5523030     1.3896650     0.0543080
  H       -0.3983570     0.6446350     1.5043810
  H        2.6396080    -1.1506800     0.2905800
  H        1.6294670    -0.3677470     1.5171870
  H       -2.4737670     0.3533780    -0.0616490
units angstrom
no_reorient  #important for SAPT in psi4, default
symmetry c1  #important for SAPT in psi4, default
}

set PROPERTIES_ORIGIN ["COM"]
properties('MP2/aug-cc-pvtz', properties = ['dipole'])
--------------------------------------------------------------------------

    Molecular point group: c1
  Charge       = 0
  Multiplicity = 1
  Basis Set: AUG-CC-PVTZ
    Blend: AUG-CC-PVTZ
  Basis Set: (AUG-CC-PVTZ AUX)
    Blend: AUG-CC-PVTZ-JKFIT

    Orbital Energies [Eh]
    ---------------------

    Doubly Occupied:

       1A    -20.619091     2A    -20.567295     3A    -20.556609
       4A    -11.393234     5A    -11.315312     6A    -11.314270
       7A    -11.255805     8A    -11.248681     9A     -1.468006
      10A     -1.386336    11A     -1.359430    12A     -1.107879
      13A     -1.027233    14A     -0.916150    15A     -0.871229
      16A     -0.758494    17A     -0.746069    18A     -0.709507
      19A     -0.692249    20A     -0.641151    21A     -0.632171
      22A     -0.617834    23A     -0.597032    24A     -0.573639
      25A     -0.555077    26A     -0.531504    27A     -0.515819
      28A     -0.501781    29A     -0.470875    30A     -0.452975
      31A     -0.440728

  @DF-RHF Final Energy:  -418.74347238567037

   => Energetics <=

    Nuclear Repulsion Energy =            401.9659039399077187
    One-Electron Energy =               -1369.7318276961323136
    Two-Electron Energy =                 549.0224513705541085
    Total Energy =                       -418.7434723856704295
  Basis Set: (AUG-CC-PVTZ AUX)
    Blend: AUG-CC-PVTZ-RI
    Molecular point group: c1

    Geometry (in Angstrom), charge = 0, multiplicity = 1:

       Center              X                  Y                   Z               Mass
    ------------   -----------------  -----------------  -----------------  -----------------
         O            0.712052408641    -1.359668080131     0.001859782132    15.994914619570
         O           -1.885853591359     1.166578919869     0.236954782132    15.994914619570
         O           -1.494032591359    -1.404373080131    -0.395000217868    15.994914619570
         C            0.447678408641     1.482144919869    -0.338489217868    12.000000000000
         C            1.825186408641     0.786488919869    -0.347519217868    12.000000000000
         C           -0.577778691359     0.675983319869     0.393209982132    12.000000000000
         C            1.795197408641    -0.507512080131     0.453386782132    12.000000000000
         C           -0.512901591359    -0.787570080131    -0.013387217868    12.000000000000
         H            0.492571408641     2.484665919869     0.095630782132     1.007825032230
         H            0.056438408641     1.593751919869    -1.353613217868     1.007825032230
         H            2.119875408641     0.543730919869    -1.372442217868     1.007825032230
         H            2.606531408641     1.433815919869     0.064647782132     1.007825032230
         H           -0.344128591359     0.688785919869     1.514720782132     1.007825032230
         H            2.693836408641    -1.106529080131     0.300919782132     1.007825032230
         H            1.683695408641    -0.323596080131     1.527526782132     1.007825032230
         H           -2.419538591359     0.397528919869    -0.051309217868     1.007825032230

  Basis Set: AUG-CC-PVTZ
    Blend: AUG-CC-PVTZ
  Basis Set: (AUG-CC-PVTZ AUX)
    Blend: AUG-CC-PVTZ-JKFIT
	 Reference Energy          =    -418.7434723856703727 [Eh]
	 Singles Energy            =      -0.0000000000000000 [Eh]
	 Same-Spin Energy          =      -0.4128606856245180 [Eh]
	 Opposite-Spin Energy      =      -1.2929408707213601 [Eh]
	 Correlation Energy        =      -1.7058015563458782 [Eh]
	 Total Energy              =    -420.4492739420162479 [Eh]

	 ================> DF-SCS-MP2 Energies <==================
	-----------------------------------------------------------
	 SCS Same-Spin Scale       =       0.3333333333333333 [-]
	 SCS Opposite-Spin Scale   =       1.2000000000000000 [-]
	 SCS Same-Spin Energy      =      -0.1376202285415060 [Eh]
	 SCS Opposite-Spin Energy  =      -1.5515290448656320 [Eh]
	 SCS Correlation Energy    =      -1.6891492734071381 [Eh]
	 SCS Total Energy          =    -420.4326216590774834 [Eh]
	-----------------------------------------------------------

  Dipole Moment: [D]
     X:     3.8684      Y:     1.6662      Z:     0.9069     Total:     4.3085

*** Psi4 exiting successfully. Buy a developer a beer!
