                               Psi4 1.4a2.dev612

  ==> Input File <==

--------------------------------------------------------------------------
#psi4
#
memory 32 gb

molecule  {
0 1
  O        0.6578240    -1.4038190    -0.0084800
  O       -1.9400820     1.1224280     0.2266150
  O       -1.5482610    -1.4485240    -0.4053400
  C        0.3934500     1.4379940    -0.3488290
  C        1.7709580     0.7423380    -0.3578590
  C       -0.6157654     0.6626033     0.2891186
  C        1.7409690    -0.5516630     0.4430470
  C       -0.5671300    -0.8317210    -0.0237270
  H        0.4383430     2.4405150     0.0852910
  H        0.0022100     1.5496010    -1.3639530
  H        2.0656470     0.4995800    -1.3827820
  H        2.5523030     1.3896650     0.0543080
  H       -0.3983570     0.6446350     1.5043810
  H        2.6396080    -1.1506800     0.2905800
  H        1.6294670    -0.3677470     1.5171870
  H       -2.4737670     0.3533780    -0.0616490
units angstrom
no_reorient  #important for SAPT in psi4, default
symmetry c1  #important for SAPT in psi4, default
}

set PROPERTIES_ORIGIN ["COM"]
properties('MP2/aug-cc-pvtz', properties = ['dipole'])
--------------------------------------------------------------------------

    Molecular point group: c1
  Charge       = 0
  Multiplicity = 1
  Basis Set: AUG-CC-PVTZ
    Blend: AUG-CC-PVTZ
  Basis Set: (AUG-CC-PVTZ AUX)
    Blend: AUG-CC-PVTZ-JKFIT

    Orbital Energies [Eh]
    ---------------------

    Doubly Occupied:

       1A    -20.619132     2A    -20.569350     3A    -20.556681
       4A    -11.394588     5A    -11.321102     6A    -11.314166
       7A    -11.258449     8A    -11.246930     9A     -1.468091
      10A     -1.388126    11A     -1.360814    12A     -1.119089
      13A     -1.031788    14A     -0.911522    15A     -0.878535
      16A     -0.755265    17A     -0.747304    18A     -0.708256
      19A     -0.694018    20A     -0.642408    21A     -0.634150
      22A     -0.613492    23A     -0.607141    24A     -0.574133
      25A     -0.558152    26A     -0.530652    27A     -0.515411
      28A     -0.503968    29A     -0.470789    30A     -0.455513
      31A     -0.426923

  @DF-RHF Final Energy:  -418.72408196615368

   => Energetics <=

    Nuclear Repulsion Energy =            402.5905794700299225
    One-Electron Energy =               -1370.8774448022195429
    Two-Electron Energy =                 549.5627833660358874
    Total Energy =                       -418.7240819661536761
  Basis Set: (AUG-CC-PVTZ AUX)
    Blend: AUG-CC-PVTZ-RI
    Molecular point group: c1

    Geometry (in Angstrom), charge = 0, multiplicity = 1:

       Center              X                  Y                   Z               Mass
    ------------   -----------------  -----------------  -----------------  -----------------
         O            0.710372918244    -1.362849978026     0.011554266815    15.994914619570
         O           -1.887533081756     1.163397021974     0.246649266815    15.994914619570
         O           -1.495712081756    -1.407554978026    -0.385305733185    15.994914619570
         C            0.445998918244     1.478963021974    -0.328794733185    12.000000000000
         C            1.823506918244     0.783307021974    -0.337824733185    12.000000000000
         C           -0.563216481756     0.703572321974     0.309152866815    12.000000000000
         C            1.793517918244    -0.510693978026     0.463081266815    12.000000000000
         C           -0.514581081756    -0.790751978026    -0.003692733185    12.000000000000
         H            0.490891918244     2.481484021974     0.105325266815     1.007825032230
         H            0.054758918244     1.590570021974    -1.343918733185     1.007825032230
         H            2.118195918244     0.540549021974    -1.362747733185     1.007825032230
         H            2.604851918244     1.430634021974     0.074342266815     1.007825032230
         H           -0.345808081756     0.685604021974     1.524415266815     1.007825032230
         H            2.692156918244    -1.109710978026     0.310614266815     1.007825032230
         H            1.682015918244    -0.326777978026     1.537221266815     1.007825032230
         H           -2.421218081756     0.394347021974    -0.041614733185     1.007825032230

  Basis Set: AUG-CC-PVTZ
    Blend: AUG-CC-PVTZ
  Basis Set: (AUG-CC-PVTZ AUX)
    Blend: AUG-CC-PVTZ-JKFIT
	 Reference Energy          =    -418.7240819661536761 [Eh]
	 Singles Energy            =      -0.0000000000000000 [Eh]
	 Same-Spin Energy          =      -0.4138482996379931 [Eh]
	 Opposite-Spin Energy      =      -1.2944068312591197 [Eh]
	 Correlation Energy        =      -1.7082551308971128 [Eh]
	 Total Energy              =    -420.4323370970507767 [Eh]

	 ================> DF-SCS-MP2 Energies <==================
	-----------------------------------------------------------
	 SCS Same-Spin Scale       =       0.3333333333333333 [-]
	 SCS Opposite-Spin Scale   =       1.2000000000000000 [-]
	 SCS Same-Spin Energy      =      -0.1379494332126643 [Eh]
	 SCS Opposite-Spin Energy  =      -1.5532881975109436 [Eh]
	 SCS Correlation Energy    =      -1.6912376307236079 [Eh]
	 SCS Total Energy          =    -420.4153195968772820 [Eh]
	-----------------------------------------------------------

  Dipole Moment: [D]
     X:     3.8955      Y:     1.7228      Z:     0.7268     Total:     4.3210

*** Psi4 exiting successfully. Buy a developer a beer!
