                               Psi4 1.4a2.dev612

  ==> Input File <==

--------------------------------------------------------------------------
#psi4
#
memory 32 gb

molecule  {
0 1
  O        0.6578240    -1.4038190    -0.0084800
  O       -1.9400820     1.1224280     0.2266150
  O       -1.5482610    -1.4485240    -0.4053400
  C        0.3934500     1.4379940    -0.3488290
  C        1.7709580     0.7423380    -0.3578590
  C       -0.6401280     0.6164470     0.4297460
  C        1.7409690    -0.5516630     0.4430470
  C       -0.5671300    -0.8317210    -0.0237270
  H        0.4383430     2.4405150     0.0852910
  H        0.0022100     1.5496010    -1.3639530
  H        2.0656470     0.4995800    -1.3827820
  H        2.5523030     1.3896650     0.0543080
  H       -0.3983570     0.6446350     1.5043810
  H        2.6396080    -1.1506800     0.2905800
  H        1.6294670    -0.3677470     1.5171870
  H       -2.4737670     0.3533780    -0.0616490
units angstrom
no_reorient  #important for SAPT in psi4, default
symmetry c1  #important for SAPT in psi4, default
}

set PROPERTIES_ORIGIN ["COM"]
properties('MP2/aug-cc-pvtz', properties = ['dipole'])
--------------------------------------------------------------------------

    Molecular point group: c1
  Charge       = 0
  Multiplicity = 1
  Basis Set: AUG-CC-PVTZ
    Blend: AUG-CC-PVTZ
  Basis Set: (AUG-CC-PVTZ AUX)
    Blend: AUG-CC-PVTZ-JKFIT

    Orbital Energies [Eh]
    ---------------------

    Doubly Occupied:

       1A    -20.619044     2A    -20.566607     3A    -20.556501
       4A    -11.393101     5A    -11.314297     6A    -11.313181
       7A    -11.254690     8A    -11.249835     9A     -1.467888
      10A     -1.385093    11A     -1.358403    12A     -1.103477
      13A     -1.025287    14A     -0.918548    15A     -0.867696
      16A     -0.761079    17A     -0.745321    18A     -0.710267
      19A     -0.691552    20A     -0.641582    21A     -0.631367
      22A     -0.620028    23A     -0.592617    24A     -0.572656
      25A     -0.554149    26A     -0.531827    27A     -0.516620
      28A     -0.501013    29A     -0.470106    30A     -0.450329
      31A     -0.445289

  @DF-RHF Final Energy:  -418.74611797597277

   => Energetics <=

    Nuclear Repulsion Energy =            401.6034381799199195
    One-Electron Energy =               -1369.0402139120706124
    Two-Electron Energy =                 548.6906577561778704
    Total Energy =                       -418.7461179759727656
  Basis Set: (AUG-CC-PVTZ AUX)
    Blend: AUG-CC-PVTZ-RI
    Molecular point group: c1

    Geometry (in Angstrom), charge = 0, multiplicity = 1:

       Center              X                  Y                   Z               Mass
    ------------   -----------------  -----------------  -----------------  -----------------
         O            0.712892159010    -1.358077136353    -0.002987460209    15.994914619570
         O           -1.885013840990     1.168169863647     0.232107539791    15.994914619570
         O           -1.493192840990    -1.402782136353    -0.399847460209    15.994914619570
         C            0.448518159010     1.483735863647    -0.343336460209    12.000000000000
         C            1.826026159010     0.788079863647    -0.352366460209    12.000000000000
         C           -0.585059840990     0.662188863647     0.435238539791    12.000000000000
         C            1.796037159010    -0.505921136353     0.448539539791    12.000000000000
         C           -0.512061840990    -0.785979136353    -0.018234460209    12.000000000000
         H            0.493411159010     2.486256863647     0.090783539791     1.007825032230
         H            0.057278159010     1.595342863647    -1.358460460209     1.007825032230
         H            2.120715159010     0.545321863647    -1.377289460209     1.007825032230
         H            2.607371159010     1.435406863647     0.059800539791     1.007825032230
         H           -0.343288840990     0.690376863647     1.509873539791     1.007825032230
         H            2.694676159010    -1.104938136353     0.296072539791     1.007825032230
         H            1.684535159010    -0.322005136353     1.522679539791     1.007825032230
         H           -2.418698840990     0.399119863647    -0.056156460209     1.007825032230

  Basis Set: AUG-CC-PVTZ
    Blend: AUG-CC-PVTZ
  Basis Set: (AUG-CC-PVTZ AUX)
    Blend: AUG-CC-PVTZ-JKFIT
	 Reference Energy          =    -418.7461179759727656 [Eh]
	 Singles Energy            =      -0.0000000000000000 [Eh]
	 Same-Spin Energy          =      -0.4125778626772333 [Eh]
	 Opposite-Spin Energy      =      -1.2926690360130564 [Eh]
	 Correlation Energy        =      -1.7052468986902896 [Eh]
	 Total Energy              =    -420.4513648746630565 [Eh]

	 ================> DF-SCS-MP2 Energies <==================
	-----------------------------------------------------------
	 SCS Same-Spin Scale       =       0.3333333333333333 [-]
	 SCS Opposite-Spin Scale   =       1.2000000000000000 [-]
	 SCS Same-Spin Energy      =      -0.1375259542257444 [Eh]
	 SCS Opposite-Spin Energy  =      -1.5512028432156677 [Eh]
	 SCS Correlation Energy    =      -1.6887287974414122 [Eh]
	 SCS Total Energy          =    -420.4348467734141650 [Eh]
	-----------------------------------------------------------

  Dipole Moment: [D]
     X:     3.8570      Y:     1.6453      Z:     0.9829     Total:     4.3069

*** Psi4 exiting successfully. Buy a developer a beer!
