                               Psi4 1.4a2.dev612

  ==> Input File <==

--------------------------------------------------------------------------
#psi4
#
memory 32 gb

molecule  {
0 1
  O        0.6578240    -1.4038190    -0.0084800
  O       -1.9400820     1.1224280     0.2266150
  O       -1.5482610    -1.4485240    -0.4053400
  C        0.3934500     1.4379940    -0.3488290
  C        1.7709580     0.7423380    -0.3578590
  C       -0.6076445     0.6779888     0.2422428
  C        1.7409690    -0.5516630     0.4430470
  C       -0.5671300    -0.8317210    -0.0237270
  H        0.4383430     2.4405150     0.0852910
  H        0.0022100     1.5496010    -1.3639530
  H        2.0656470     0.4995800    -1.3827820
  H        2.5523030     1.3896650     0.0543080
  H       -0.3983570     0.6446350     1.5043810
  H        2.6396080    -1.1506800     0.2905800
  H        1.6294670    -0.3677470     1.5171870
  H       -2.4737670     0.3533780    -0.0616490
units angstrom
no_reorient  #important for SAPT in psi4, default
symmetry c1  #important for SAPT in psi4, default
}

set PROPERTIES_ORIGIN ["COM"]
properties('MP2/aug-cc-pvtz', properties = ['dipole'])
--------------------------------------------------------------------------

    Molecular point group: c1
  Charge       = 0
  Multiplicity = 1
  Basis Set: AUG-CC-PVTZ
    Blend: AUG-CC-PVTZ
  Basis Set: (AUG-CC-PVTZ AUX)
    Blend: AUG-CC-PVTZ-JKFIT

    Orbital Energies [Eh]
    ---------------------

    Doubly Occupied:

       1A    -20.619126     2A    -20.570708     3A    -20.556629
       4A    -11.395784     5A    -11.324768     6A    -11.314094
       7A    -11.259997     8A    -11.246414     9A     -1.468050
      10A     -1.388598    11A     -1.361224    12A     -1.126101
      13A     -1.034306    14A     -0.909282    15A     -0.882116
      16A     -0.754295    17A     -0.747740    18A     -0.707964
      19A     -0.695165    20A     -0.643753    21A     -0.635378
      22A     -0.613568    23A     -0.610382    24A     -0.574147
      25A     -0.559985    26A     -0.530388    27A     -0.516137
      28A     -0.505087    29A     -0.470097    30A     -0.455662
      31A     -0.417589

  @DF-RHF Final Energy:  -418.70769382889409

   => Energetics <=

    Nuclear Repulsion Energy =            402.8510058982838018
    One-Electron Energy =               -1371.3283298152364296
    Two-Electron Energy =                 549.7696300880585341
    Total Energy =                       -418.7076938288940937
  Basis Set: (AUG-CC-PVTZ AUX)
    Blend: AUG-CC-PVTZ-RI
    Molecular point group: c1

    Geometry (in Angstrom), charge = 0, multiplicity = 1:

       Center              X                  Y                   Z               Mass
    ------------   -----------------  -----------------  -----------------  -----------------
         O            0.709533167876    -1.364440932144     0.016401509156    15.994914619570
         O           -1.888372832124     1.161806067856     0.251496509156    15.994914619570
         O           -1.496551832124    -1.409145932144    -0.380458490844    15.994914619570
         C            0.445159167876     1.477372067856    -0.323947490844    12.000000000000
         C            1.822667167876     0.781716067856    -0.332977490844    12.000000000000
         C           -0.555935332124     0.717366867856     0.267124309156    12.000000000000
         C            1.792678167876    -0.512284932144     0.467928509156    12.000000000000
         C           -0.515420832124    -0.792342932144     0.001154509156    12.000000000000
         H            0.490052167876     2.479893067856     0.110172509156     1.007825032230
         H            0.053919167876     1.588979067856    -1.339071490844     1.007825032230
         H            2.117356167876     0.538958067856    -1.357900490844     1.007825032230
         H            2.604012167876     1.429043067856     0.079189509156     1.007825032230
         H           -0.346647832124     0.684013067856     1.529262509156     1.007825032230
         H            2.691317167876    -1.111301932144     0.315461509156     1.007825032230
         H            1.681176167876    -0.328368932144     1.542068509156     1.007825032230
         H           -2.422057832124     0.392756067856    -0.036767490844     1.007825032230

  Basis Set: AUG-CC-PVTZ
    Blend: AUG-CC-PVTZ
  Basis Set: (AUG-CC-PVTZ AUX)
    Blend: AUG-CC-PVTZ-JKFIT
	 Reference Energy          =    -418.7076938288940937 [Eh]
	 Singles Energy            =      -0.0000000000000000 [Eh]
	 Same-Spin Energy          =      -0.4145600346812484 [Eh]
	 Opposite-Spin Energy      =      -1.2955798155848193 [Eh]
	 Correlation Energy        =      -1.7101398502660676 [Eh]
	 Total Energy              =    -420.4178336791601396 [Eh]

	 ================> DF-SCS-MP2 Energies <==================
	-----------------------------------------------------------
	 SCS Same-Spin Scale       =       0.3333333333333333 [-]
	 SCS Opposite-Spin Scale   =       1.2000000000000000 [-]
	 SCS Same-Spin Energy      =      -0.1381866782270828 [Eh]
	 SCS Opposite-Spin Energy  =      -1.5546957787017830 [Eh]
	 SCS Correlation Energy    =      -1.6928824569288659 [Eh]
	 SCS Total Energy          =    -420.4005762858229787 [Eh]
	-----------------------------------------------------------

  Dipole Moment: [D]
     X:     3.9127      Y:     1.7602      Z:     0.6212     Total:     4.3351

*** Psi4 exiting successfully. Buy a developer a beer!
