                               Psi4 1.4a2.dev612

  ==> Input File <==

--------------------------------------------------------------------------
#psi4
#
memory 32 gb

molecule  {
0 1
  O        0.6578240    -1.4038190    -0.0084800
  O       -1.9400820     1.1224280     0.2266150
  O       -1.5482610    -1.4485240    -0.4053400
  C        0.3934500     1.4379940    -0.3488290
  C        1.7709580     0.7423380    -0.3578590
  C       -0.6238863     0.6472179     0.3359944
  C        1.7409690    -0.5516630     0.4430470
  C       -0.5671300    -0.8317210    -0.0237270
  H        0.4383430     2.4405150     0.0852910
  H        0.0022100     1.5496010    -1.3639530
  H        2.0656470     0.4995800    -1.3827820
  H        2.5523030     1.3896650     0.0543080
  H       -0.3983570     0.6446350     1.5043810
  H        2.6396080    -1.1506800     0.2905800
  H        1.6294670    -0.3677470     1.5171870
  H       -2.4737670     0.3533780    -0.0616490
units angstrom
no_reorient  #important for SAPT in psi4, default
symmetry c1  #important for SAPT in psi4, default
}

set PROPERTIES_ORIGIN ["COM"]
properties('MP2/aug-cc-pvtz', properties = ['dipole'])
--------------------------------------------------------------------------

    Molecular point group: c1
  Charge       = 0
  Multiplicity = 1
  Basis Set: AUG-CC-PVTZ
    Blend: AUG-CC-PVTZ
  Basis Set: (AUG-CC-PVTZ AUX)
    Blend: AUG-CC-PVTZ-JKFIT

    Orbital Energies [Eh]
    ---------------------

    Doubly Occupied:

       1A    -20.619120     2A    -20.568210     3A    -20.556671
       4A    -11.393733     5A    -11.317950     6A    -11.314226
       7A    -11.257055     8A    -11.247701     9A     -1.468075
      10A     -1.387362    11A     -1.360223    12A     -1.113048
      13A     -1.029416    14A     -0.913815    15A     -0.874870
      16A     -0.756620    17A     -0.746737    18A     -0.708797
      19A     -0.693057    20A     -0.641493    21A     -0.633093
      22A     -0.615531    23A     -0.602016    24A     -0.574044
      25A     -0.556461    26A     -0.531057    27A     -0.515346
      28A     -0.502793    29A     -0.471117    30A     -0.454656
      31A     -0.434643

  @DF-RHF Final Energy:  -418.73605898704307

   => Energetics <=

    Nuclear Repulsion Energy =            402.2952966593494466
    One-Electron Energy =               -1370.3448365794033634
    Two-Electron Energy =                 549.3134809330108510
    Total Energy =                       -418.7360589870430658
  Basis Set: (AUG-CC-PVTZ AUX)
    Blend: AUG-CC-PVTZ-RI
    Molecular point group: c1

    Geometry (in Angstrom), charge = 0, multiplicity = 1:

       Center              X                  Y                   Z               Mass
    ------------   -----------------  -----------------  -----------------  -----------------
         O            0.711212668613    -1.361259034249     0.006707024473    15.994914619570
         O           -1.886693331387     1.164987965751     0.241802024473    15.994914619570
         O           -1.494872331387    -1.405964034249    -0.390152975527    15.994914619570
         C            0.446838668613     1.480553965751    -0.333641975527    12.000000000000
         C            1.824346668613     0.784897965751    -0.342671975527    12.000000000000
         C           -0.570497631387     0.689777865751     0.351181424473    12.000000000000
         C            1.794357668613    -0.509103034249     0.458234024473    12.000000000000
         C           -0.513741331387    -0.789161034249    -0.008539975527    12.000000000000
         H            0.491731668613     2.483074965751     0.100478024473     1.007825032230
         H            0.055598668613     1.592160965751    -1.348765975527     1.007825032230
         H            2.119035668613     0.542139965751    -1.367594975527     1.007825032230
         H            2.605691668613     1.432224965751     0.069495024473     1.007825032230
         H           -0.344968331387     0.687194965751     1.519568024473     1.007825032230
         H            2.692996668613    -1.108120034249     0.305767024473     1.007825032230
         H            1.682855668613    -0.325187034249     1.532374024473     1.007825032230
         H           -2.420378331387     0.395937965751    -0.046461975527     1.007825032230

  Basis Set: AUG-CC-PVTZ
    Blend: AUG-CC-PVTZ
  Basis Set: (AUG-CC-PVTZ AUX)
    Blend: AUG-CC-PVTZ-JKFIT
	 Reference Energy          =    -418.7360589870430658 [Eh]
	 Singles Energy            =      -0.0000000000000000 [Eh]
	 Same-Spin Energy          =      -0.4132830002866048 [Eh]
	 Opposite-Spin Energy      =      -1.2935241816317462 [Eh]
	 Correlation Energy        =      -1.7068071819183510 [Eh]
	 Total Energy              =    -420.4428661689614160 [Eh]

	 ================> DF-SCS-MP2 Energies <==================
	-----------------------------------------------------------
	 SCS Same-Spin Scale       =       0.3333333333333333 [-]
	 SCS Opposite-Spin Scale   =       1.2000000000000000 [-]
	 SCS Same-Spin Energy      =      -0.1377610000955349 [Eh]
	 SCS Opposite-Spin Energy  =      -1.5522290179580953 [Eh]
	 SCS Correlation Energy    =      -1.6899900180536302 [Eh]
	 SCS Total Energy          =    -420.4260490050966723 [Eh]
	-----------------------------------------------------------

  Dipole Moment: [D]
     X:     3.8811      Y:     1.6918      Z:     0.8218     Total:     4.3128

*** Psi4 exiting successfully. Buy a developer a beer!
