                               Psi4 1.4a2.dev612

  ==> Input File <==

--------------------------------------------------------------------------
#psi4
#
memory 32 gb

molecule  {
0 1
  O        0.6578240    -1.4038190    -0.0084800
  O       -1.9400820     1.1224280     0.2266150
  O       -1.5482610    -1.4485240    -0.4053400
  C        0.3934500     1.4379940    -0.3488290
  C        1.7709580     0.7423380    -0.3578590
  C       -0.5995237     0.6933742     0.1953670
  C        1.7409690    -0.5516630     0.4430470
  C       -0.5671300    -0.8317210    -0.0237270
  H        0.4383430     2.4405150     0.0852910
  H        0.0022100     1.5496010    -1.3639530
  H        2.0656470     0.4995800    -1.3827820
  H        2.5523030     1.3896650     0.0543080
  H       -0.3983570     0.6446350     1.5043810
  H        2.6396080    -1.1506800     0.2905800
  H        1.6294670    -0.3677470     1.5171870
  H       -2.4737670     0.3533780    -0.0616490
units angstrom
no_reorient  #important for SAPT in psi4, default
symmetry c1  #important for SAPT in psi4, default
}

set PROPERTIES_ORIGIN ["COM"]
properties('MP2/aug-cc-pvtz', properties = ['dipole'])
--------------------------------------------------------------------------

    Molecular point group: c1
  Charge       = 0
  Multiplicity = 1
  Basis Set: AUG-CC-PVTZ
    Blend: AUG-CC-PVTZ
  Basis Set: (AUG-CC-PVTZ AUX)
    Blend: AUG-CC-PVTZ-JKFIT

    Orbital Energies [Eh]
    ---------------------

    Doubly Occupied:

       1A    -20.619101     2A    -20.572272     3A    -20.556501
       4A    -11.397300     5A    -11.328935     6A    -11.314013
       7A    -11.261715     8A    -11.246209     9A     -1.467948
      10A     -1.388761    11A     -1.361468    12A     -1.134175
      13A     -1.036929    14A     -0.907167    15A     -0.885455
      16A     -0.753648    17A     -0.747997    18A     -0.707992
      19A     -0.696518    20A     -0.645439    21A     -0.636839
      22A     -0.617917    23A     -0.609333    24A     -0.574334
      25A     -0.561765    26A     -0.530309    27A     -0.517499
      28A     -0.505945    29A     -0.469324    30A     -0.455159
      31A     -0.406826

  @DF-RHF Final Energy:  -418.68701513791001

   => Energetics <=

    Nuclear Repulsion Energy =            403.0760919139224825
    One-Electron Energy =               -1371.6966271491000953
    Two-Electron Energy =                 549.9335200972675466
    Total Energy =                       -418.6870151379100662
  Basis Set: (AUG-CC-PVTZ AUX)
    Blend: AUG-CC-PVTZ-RI
    Molecular point group: c1

    Geometry (in Angstrom), charge = 0, multiplicity = 1:

       Center              X                  Y                   Z               Mass
    ------------   -----------------  -----------------  -----------------  -----------------
         O            0.708693427848    -1.366031875921     0.021248751497    15.994914619570
         O           -1.889212572152     1.160215124079     0.256343751497    15.994914619570
         O           -1.497391572152    -1.410736875921    -0.375611248503    15.994914619570
         C            0.444319427848     1.475781124079    -0.319100248503    12.000000000000
         C            1.821827427848     0.780125124079    -0.328130248503    12.000000000000
         C           -0.548654272152     0.731161324079     0.225095751497    12.000000000000
         C            1.791838427848    -0.513875875921     0.472775751497    12.000000000000
         C           -0.516260572152    -0.793933875921     0.006001751497    12.000000000000
         H            0.489212427848     2.478302124079     0.115019751497     1.007825032230
         H            0.053079427848     1.587388124079    -1.334224248503     1.007825032230
         H            2.116516427848     0.537367124079    -1.353053248503     1.007825032230
         H            2.603172427848     1.427452124079     0.084036751497     1.007825032230
         H           -0.347487572152     0.682422124079     1.534109751497     1.007825032230
         H            2.690477427848    -1.112892875921     0.320308751497     1.007825032230
         H            1.680336427848    -0.329959875921     1.546915751497     1.007825032230
         H           -2.422897572152     0.391165124079    -0.031920248503     1.007825032230

  Basis Set: AUG-CC-PVTZ
    Blend: AUG-CC-PVTZ
  Basis Set: (AUG-CC-PVTZ AUX)
    Blend: AUG-CC-PVTZ-JKFIT
	 Reference Energy          =    -418.6870151379100093 [Eh]
	 Singles Energy            =      -0.0000000000000000 [Eh]
	 Same-Spin Energy          =      -0.4154203988254924 [Eh]
	 Opposite-Spin Energy      =      -1.2970354467986214 [Eh]
	 Correlation Energy        =      -1.7124558456241137 [Eh]
	 Total Energy              =    -420.3994709835341155 [Eh]

	 ================> DF-SCS-MP2 Energies <==================
	-----------------------------------------------------------
	 SCS Same-Spin Scale       =       0.3333333333333333 [-]
	 SCS Opposite-Spin Scale   =       1.2000000000000000 [-]
	 SCS Same-Spin Energy      =      -0.1384734662751641 [Eh]
	 SCS Opposite-Spin Energy  =      -1.5564425361583456 [Eh]
	 SCS Correlation Energy    =      -1.6949160024335097 [Eh]
	 SCS Total Energy          =    -420.3819311403435108 [Eh]
	-----------------------------------------------------------

  Dipole Moment: [D]
     X:     3.9337      Y:     1.8052      Z:     0.5038     Total:     4.3573

*** Psi4 exiting successfully. Buy a developer a beer!
