                               Psi4 1.4a3.dev225

  ==> Input File <==

--------------------------------------------------------------------------
#psi4
#
memory 32 gb

molecule  {
0 1
  O       -2.7436610    -0.2479860    -0.0003050
  C        0.8706510    -0.0504500     0.0000920
  C        2.0389000    -0.9960240     0.0002020
  C        1.2510070     1.4052230     0.0001730
  C       -0.3937780    -0.5296350    -0.0000590
  C       -1.6246660     0.2665400    -0.0001750
  H        2.6694560    -0.8265420     0.8807060
  H        2.6696250    -0.8265350    -0.8801800
  H        1.7156570    -2.0395440     0.0001660
  H        1.8655830     1.6274140    -0.8794340
  H        1.8653250     1.6273830     0.8799690
  H        0.3995010     2.0850070     0.0000600
  H       -0.5613960    -1.6053580    -0.0001000
  H       -1.5359741     1.2685275    -0.0001450
units angstrom
no_reorient  #important for SAPT in psi4, default
symmetry c1  #important for SAPT in psi4, default
}

set PROPERTIES_ORIGIN ["COM"]
properties('MP2/aug-cc-pvtz', properties = ['dipole'])
--------------------------------------------------------------------------

    Molecular point group: c1
  Charge       = 0
  Multiplicity = 1
  Basis Set: AUG-CC-PVTZ
    Blend: AUG-CC-PVTZ
  Basis Set: (AUG-CC-PVTZ AUX)
    Blend: AUG-CC-PVTZ-JKFIT

    Orbital Energies [Eh]
    ---------------------

    Doubly Occupied:

       1A    -20.542488     2A    -11.315563     3A    -11.282430
       4A    -11.247801     5A    -11.242799     6A    -11.234274
       7A     -1.366271     8A     -1.124146     9A     -0.987203
      10A     -0.967684    11A     -0.844804    12A     -0.755496
      13A     -0.670570    14A     -0.640562    15A     -0.617525
      16A     -0.604788    17A     -0.560353    18A     -0.556824
      19A     -0.545280    20A     -0.521178    21A     -0.516683
      22A     -0.422696    23A     -0.366578

  @DF-RHF Final Energy:  -268.93175726255532

   => Energetics <=

    Nuclear Repulsion Energy =            217.1728518363185856
    One-Electron Energy =                -794.3412254531258441
    Two-Electron Energy =                 308.2366163542519075
    Total Energy =                       -268.9317572625553225
  Basis Set: (AUG-CC-PVTZ AUX)
    Blend: AUG-CC-PVTZ-RI
    Molecular point group: c1

    Geometry (in Angstrom), charge = 0, multiplicity = 1:

       Center              X                  Y                   Z               Mass
    ------------   -----------------  -----------------  -----------------  -----------------
         O           -2.636349162313    -0.230164144946    -0.000292719179    15.994914619570
         C            0.977962837687    -0.032628144946     0.000104280821    12.000000000000
         C            2.146211837687    -0.978202144946     0.000214280821    12.000000000000
         C            1.358318837687     1.423044855054     0.000185280821    12.000000000000
         C           -0.286466162313    -0.511813144946    -0.000046719179    12.000000000000
         C           -1.517354162313     0.284361855054    -0.000162719179    12.000000000000
         H            2.776767837687    -0.808720144946     0.880718280821     1.007825032230
         H            2.776936837687    -0.808713144946    -0.880167719179     1.007825032230
         H            1.822968837687    -2.021722144946     0.000178280821     1.007825032230
         H            1.972894837687     1.645235855054    -0.879421719179     1.007825032230
         H            1.972636837687     1.645204855054     0.879981280821     1.007825032230
         H            0.506812837687     2.102828855054     0.000072280821     1.007825032230
         H           -0.454084162313    -1.587536144946    -0.000087719179     1.007825032230
         H           -1.428662262313     1.286349355054    -0.000132719179     1.007825032230

  Basis Set: AUG-CC-PVTZ
    Blend: AUG-CC-PVTZ
  Basis Set: (AUG-CC-PVTZ AUX)
    Blend: AUG-CC-PVTZ-JKFIT
	 Reference Energy          =    -268.9317572625553225 [Eh]
	 Singles Energy            =      -0.0000000000000000 [Eh]
	 Same-Spin Energy          =      -0.2707971471340170 [Eh]
	 Opposite-Spin Energy      =      -0.9152361131211082 [Eh]
	 Correlation Energy        =      -1.1860332602551251 [Eh]
	 Total Energy              =    -270.1177905228104237 [Eh]

	 ================> DF-SCS-MP2 Energies <==================
	-----------------------------------------------------------
	 SCS Same-Spin Scale       =       0.3333333333333333 [-]
	 SCS Opposite-Spin Scale   =       1.2000000000000000 [-]
	 SCS Same-Spin Energy      =      -0.0902657157113390 [Eh]
	 SCS Opposite-Spin Energy  =      -1.0982833357453299 [Eh]
	 SCS Correlation Energy    =      -1.1885490514566688 [Eh]
	 SCS Total Energy          =    -270.1203063140119980 [Eh]
	-----------------------------------------------------------

  Dipole Moment: [D]
     X:     4.1218      Y:     1.0651      Z:     0.0005     Total:     4.2572

*** Psi4 exiting successfully. Buy a developer a beer!
