                               Psi4 1.4a3.dev225

  ==> Input File <==

--------------------------------------------------------------------------
#psi4
#
memory 32 gb

molecule  {
0 1
  O       -2.7436610    -0.2479860    -0.0003050
  C        0.8706510    -0.0504500     0.0000920
  C        2.0552246    -0.9754912     0.0002043
  C        1.2510070     1.4052230     0.0001730
  C       -0.3937780    -0.5296350    -0.0000590
  C       -1.6246660     0.2665400    -0.0001750
  H        2.6694560    -0.8265420     0.8807060
  H        2.6696250    -0.8265350    -0.8801800
  H        1.7156570    -2.0395440     0.0001660
  H        1.8655830     1.6274140    -0.8794340
  H        1.8653250     1.6273830     0.8799690
  H        0.3995010     2.0850070     0.0000600
  H       -0.5613960    -1.6053580    -0.0001000
  H       -1.5271570     1.3681380    -0.0001420
units angstrom
no_reorient  #important for SAPT in psi4, default
symmetry c1  #important for SAPT in psi4, default
}

set PROPERTIES_ORIGIN ["COM"]
properties('MP2/aug-cc-pvtz', properties = ['dipole'])
--------------------------------------------------------------------------

    Molecular point group: c1
  Charge       = 0
  Multiplicity = 1
  Basis Set: AUG-CC-PVTZ
    Blend: AUG-CC-PVTZ
  Basis Set: (AUG-CC-PVTZ AUX)
    Blend: AUG-CC-PVTZ-JKFIT

    Orbital Energies [Eh]
    ---------------------

    Doubly Occupied:

       1A    -20.544729     2A    -11.327861     3A    -11.283278
       4A    -11.246799     5A    -11.243115     6A    -11.236419
       7A     -1.367491     8A     -1.124339     9A     -0.986678
      10A     -0.966676    11A     -0.831138    12A     -0.744885
      13A     -0.667691    14A     -0.641041    15A     -0.620703
      16A     -0.599983    17A     -0.564099    18A     -0.555502
      19A     -0.545708    20A     -0.522932    21A     -0.512240
      22A     -0.419525    23A     -0.368225

  @DF-RHF Final Energy:  -268.93544979740136

   => Energetics <=

    Nuclear Repulsion Energy =            216.7108772308546065
    One-Electron Energy =                -793.4505429422051748
    Two-Electron Energy =                 307.8042159139491787
    Total Energy =                       -268.9354497974013611
  Basis Set: (AUG-CC-PVTZ AUX)
    Blend: AUG-CC-PVTZ-RI
    Molecular point group: c1

    Geometry (in Angstrom), charge = 0, multiplicity = 1:

       Center              X                  Y                   Z               Mass
    ------------   -----------------  -----------------  -----------------  -----------------
         O           -2.638785366790    -0.234289695837    -0.000293083495    15.994914619570
         C            0.975526633210    -0.036753695837     0.000103916505    12.000000000000
         C            2.160100233210    -0.961794895837     0.000216216505    12.000000000000
         C            1.355882633210     1.418919304163     0.000184916505    12.000000000000
         C           -0.288902366790    -0.515938695837    -0.000047083495    12.000000000000
         C           -1.519790366790     0.280236304163    -0.000163083495    12.000000000000
         H            2.774331633210    -0.812845695837     0.880717916505     1.007825032230
         H            2.774500633210    -0.812838695837    -0.880168083495     1.007825032230
         H            1.820532633210    -2.025847695837     0.000177916505     1.007825032230
         H            1.970458633210     1.641110304163    -0.879422083495     1.007825032230
         H            1.970200633210     1.641079304163     0.879980916505     1.007825032230
         H            0.504376633210     2.098703304163     0.000071916505     1.007825032230
         H           -0.456520366790    -1.591661695837    -0.000088083495     1.007825032230
         H           -1.422281366790     1.381834304163    -0.000130083495     1.007825032230

  Basis Set: AUG-CC-PVTZ
    Blend: AUG-CC-PVTZ
  Basis Set: (AUG-CC-PVTZ AUX)
    Blend: AUG-CC-PVTZ-JKFIT
	 Reference Energy          =    -268.9354497974013611 [Eh]
	 Singles Energy            =      -0.0000000000000000 [Eh]
	 Same-Spin Energy          =      -0.2712183975100465 [Eh]
	 Opposite-Spin Energy      =      -0.9160071108262894 [Eh]
	 Correlation Energy        =      -1.1872255083363359 [Eh]
	 Total Energy              =    -270.1226753057376868 [Eh]

	 ================> DF-SCS-MP2 Energies <==================
	-----------------------------------------------------------
	 SCS Same-Spin Scale       =       0.3333333333333333 [-]
	 SCS Opposite-Spin Scale   =       1.2000000000000000 [-]
	 SCS Same-Spin Energy      =      -0.0904061325033488 [Eh]
	 SCS Opposite-Spin Energy  =      -1.0992085329915473 [Eh]
	 SCS Correlation Energy    =      -1.1896146654948960 [Eh]
	 SCS Total Energy          =    -270.1250644628962618 [Eh]
	-----------------------------------------------------------

  Dipole Moment: [D]
     X:     4.1036      Y:     0.9813      Z:     0.0005     Total:     4.2193

*** Psi4 exiting successfully. Buy a developer a beer!
