                               Psi4 1.4a3.dev225

  ==> Input File <==

--------------------------------------------------------------------------
#psi4
#
memory 32 gb

molecule  {
0 1
  O       -2.7436610    -0.2479860    -0.0003050
  C        0.8706510    -0.0504500     0.0000920
  C        2.0389000    -0.9960240     0.0002020
  C        1.2510070     1.4052230     0.0001730
  C       -0.3937780    -0.5296350    -0.0000590
  C       -1.6246660     0.2665400    -0.0001750
  H        2.7269790    -0.8110809     0.9610307
  H        2.6696250    -0.8265350    -0.8801800
  H        1.7156570    -2.0395440     0.0001660
  H        1.8655830     1.6274140    -0.8794340
  H        1.8653250     1.6273830     0.8799690
  H        0.3995010     2.0850070     0.0000600
  H       -0.5613960    -1.6053580    -0.0001000
  H       -1.5271570     1.3681380    -0.0001420
units angstrom
no_reorient  #important for SAPT in psi4, default
symmetry c1  #important for SAPT in psi4, default
}

set PROPERTIES_ORIGIN ["COM"]
properties('MP2/aug-cc-pvtz', properties = ['dipole'])
--------------------------------------------------------------------------

    Molecular point group: c1
  Charge       = 0
  Multiplicity = 1
  Basis Set: AUG-CC-PVTZ
    Blend: AUG-CC-PVTZ
  Basis Set: (AUG-CC-PVTZ AUX)
    Blend: AUG-CC-PVTZ-JKFIT

    Orbital Energies [Eh]
    ---------------------

    Doubly Occupied:

       1A    -20.544982     2A    -11.328055     3A    -11.284128
       4A    -11.254790     5A    -11.247289     6A    -11.236820
       7A     -1.367735     8A     -1.123914     9A     -0.984120
      10A     -0.963676    11A     -0.828682    12A     -0.745034
      13A     -0.669757    14A     -0.640138    15A     -0.612861
      16A     -0.600968    17A     -0.559742    18A     -0.547288
      19A     -0.542516    20A     -0.522700    21A     -0.517738
      22A     -0.419648    23A     -0.367449

  @DF-RHF Final Energy:  -268.92986650156354

   => Energetics <=

    Nuclear Repulsion Energy =            216.3313674431412608
    One-Electron Energy =                -792.7024086096089377
    Two-Electron Energy =                 307.4411746649041106
    Total Energy =                       -268.9298665015635379
  Basis Set: (AUG-CC-PVTZ AUX)
    Blend: AUG-CC-PVTZ-RI
    Molecular point group: c1

    Geometry (in Angstrom), charge = 0, multiplicity = 1:

       Center              X                  Y                   Z               Mass
    ------------   -----------------  -----------------  -----------------  -----------------
         O           -2.637144560720    -0.231543819794    -0.001255824821    15.994914619570
         C            0.977167439280    -0.034007819794    -0.000858824821    12.000000000000
         C            2.145416439280    -0.979581819794    -0.000748824821    12.000000000000
         C            1.357523439280     1.421665180206    -0.000777824821    12.000000000000
         C           -0.287261560720    -0.513192819794    -0.001009824821    12.000000000000
         C           -1.518149560720     0.282982180206    -0.001125824821    12.000000000000
         H            2.833495439280    -0.794638719794     0.960079875179     1.007825032230
         H            2.776141439280    -0.810092819794    -0.881130824821     1.007825032230
         H            1.822173439280    -2.023101819794    -0.000784824821     1.007825032230
         H            1.972099439280     1.643856180206    -0.880384824821     1.007825032230
         H            1.971841439280     1.643825180206     0.879018175179     1.007825032230
         H            0.506017439280     2.101449180206    -0.000890824821     1.007825032230
         H           -0.454879560720    -1.588915819794    -0.001050824821     1.007825032230
         H           -1.420640560720     1.384580180206    -0.001092824821     1.007825032230

  Basis Set: AUG-CC-PVTZ
    Blend: AUG-CC-PVTZ
  Basis Set: (AUG-CC-PVTZ AUX)
    Blend: AUG-CC-PVTZ-JKFIT
	 Reference Energy          =    -268.9298665015635379 [Eh]
	 Singles Energy            =      -0.0000000000000000 [Eh]
	 Same-Spin Energy          =      -0.2712214174037155 [Eh]
	 Opposite-Spin Energy      =      -0.9166165956341491 [Eh]
	 Correlation Energy        =      -1.1878380130378647 [Eh]
	 Total Energy              =    -270.1177045146014279 [Eh]

	 ================> DF-SCS-MP2 Energies <==================
	-----------------------------------------------------------
	 SCS Same-Spin Scale       =       0.3333333333333333 [-]
	 SCS Opposite-Spin Scale   =       1.2000000000000000 [-]
	 SCS Same-Spin Energy      =      -0.0904071391345718 [Eh]
	 SCS Opposite-Spin Energy  =      -1.0999399147609790 [Eh]
	 SCS Correlation Energy    =      -1.1903470538955507 [Eh]
	 SCS Total Energy          =    -270.1202135554590882 [Eh]
	-----------------------------------------------------------

  Dipole Moment: [D]
     X:     4.0610      Y:     0.9734      Z:    -0.0333     Total:     4.1762

*** Psi4 exiting successfully. Buy a developer a beer!
