                               Psi4 1.4a3.dev225

  ==> Input File <==

--------------------------------------------------------------------------
#psi4
#
memory 32 gb

molecule  {
0 1
  O       -2.7436610    -0.2479860    -0.0003050
  C        0.8706510    -0.0504500     0.0000920
  C        2.0389000    -0.9960240     0.0002020
  C        1.2510070     1.4052230     0.0001730
  C       -0.3937780    -0.5296350    -0.0000590
  C       -1.6246660     0.2665400    -0.0001750
  H        2.6694560    -0.8265420     0.8807060
  H        2.6696250    -0.8265350    -0.8801800
  H        1.7156570    -2.0395440     0.0001660
  H        1.8655830     1.6274140    -0.8794340
  H        1.8092640     1.6071093     0.7996812
  H        0.3995010     2.0850070     0.0000600
  H       -0.5613960    -1.6053580    -0.0001000
  H       -1.5271570     1.3681380    -0.0001420
units angstrom
no_reorient  #important for SAPT in psi4, default
symmetry c1  #important for SAPT in psi4, default
}

set PROPERTIES_ORIGIN ["COM"]
properties('MP2/aug-cc-pvtz', properties = ['dipole'])
--------------------------------------------------------------------------

    Molecular point group: c1
  Charge       = 0
  Multiplicity = 1
  Basis Set: AUG-CC-PVTZ
    Blend: AUG-CC-PVTZ
  Basis Set: (AUG-CC-PVTZ AUX)
    Blend: AUG-CC-PVTZ-JKFIT

    Orbital Energies [Eh]
    ---------------------

    Doubly Occupied:

       1A    -20.543938     2A    -11.327041     3A    -11.282571
       4A    -11.243371     5A    -11.235262     6A    -11.235192
       7A     -1.366772     8A     -1.125665     9A     -0.989127
      10A     -0.973648    11A     -0.830856    12A     -0.746915
      13A     -0.668694    14A     -0.642671    15A     -0.625172
      16A     -0.601213    17A     -0.568249    18A     -0.557305
      19A     -0.547052    20A     -0.522369    21A     -0.516386
      22A     -0.418662    23A     -0.367560

  @DF-RHF Final Energy:  -268.93034191803656

   => Energetics <=

    Nuclear Repulsion Energy =            217.1702103682003155
    One-Electron Energy =                -794.3297202319097323
    Two-Electron Energy =                 308.2291679456728843
    Total Energy =                       -268.9303419180365609
  Basis Set: (AUG-CC-PVTZ AUX)
    Blend: AUG-CC-PVTZ-RI
    Molecular point group: c1

    Geometry (in Angstrom), charge = 0, multiplicity = 1:

       Center              X                  Y                   Z               Mass
    ------------   -----------------  -----------------  -----------------  -----------------
         O           -2.635782721762    -0.231115369987     0.000669872104    15.994914619570
         C            0.978529278238    -0.033579369987     0.001066872104    12.000000000000
         C            2.146778278238    -0.979153369987     0.001176872104    12.000000000000
         C            1.358885278238     1.422093630013     0.001147872104    12.000000000000
         C           -0.285899721762    -0.512764369987     0.000915872104    12.000000000000
         C           -1.516787721762     0.283410630013     0.000799872104    12.000000000000
         H            2.777334278238    -0.809671369987     0.881680872104     1.007825032230
         H            2.777503278238    -0.809664369987    -0.879205127896     1.007825032230
         H            1.823535278238    -2.022673369987     0.001140872104     1.007825032230
         H            1.973461278238     1.644284630013    -0.878459127896     1.007825032230
         H            1.917142278238     1.623979930013     0.800656072104     1.007825032230
         H            0.507379278238     2.101877630013     0.001034872104     1.007825032230
         H           -0.453517721762    -1.588487369987     0.000874872104     1.007825032230
         H           -1.419278721762     1.385008630013     0.000832872104     1.007825032230

  Basis Set: AUG-CC-PVTZ
    Blend: AUG-CC-PVTZ
  Basis Set: (AUG-CC-PVTZ AUX)
    Blend: AUG-CC-PVTZ-JKFIT
	 Reference Energy          =    -268.9303419180365609 [Eh]
	 Singles Energy            =      -0.0000000000000000 [Eh]
	 Same-Spin Energy          =      -0.2712161578740739 [Eh]
	 Opposite-Spin Energy      =      -0.9154283458262262 [Eh]
	 Correlation Energy        =      -1.1866445037003002 [Eh]
	 Total Energy              =    -270.1169864217368399 [Eh]

	 ================> DF-SCS-MP2 Energies <==================
	-----------------------------------------------------------
	 SCS Same-Spin Scale       =       0.3333333333333333 [-]
	 SCS Opposite-Spin Scale   =       1.2000000000000000 [-]
	 SCS Same-Spin Energy      =      -0.0904053859580246 [Eh]
	 SCS Opposite-Spin Energy  =      -1.0985140149914714 [Eh]
	 SCS Correlation Energy    =      -1.1889194009494961 [Eh]
	 SCS Total Energy          =    -270.1192613189860481 [Eh]
	-----------------------------------------------------------

  Dipole Moment: [D]
     X:     4.1449      Y:     0.9917      Z:     0.0211     Total:     4.2619

*** Psi4 exiting successfully. Buy a developer a beer!
