                               Psi4 1.4a3.dev225

  ==> Input File <==

--------------------------------------------------------------------------
#psi4
#
memory 32 gb

molecule  {
0 1
  O       -2.7436610    -0.2479860    -0.0003050
  C        0.8706510    -0.0504500     0.0000920
  C        2.1020141    -0.9122277     0.0002108
  C        1.2510070     1.4052230     0.0001730
  C       -0.3937780    -0.5296350    -0.0000590
  C       -1.6246660     0.2665400    -0.0001750
  H        2.6694560    -0.8265420     0.8807060
  H        2.6696250    -0.8265350    -0.8801800
  H        1.7156570    -2.0395440     0.0001660
  H        1.8655830     1.6274140    -0.8794340
  H        1.8653250     1.6273830     0.8799690
  H        0.3995010     2.0850070     0.0000600
  H       -0.5613960    -1.6053580    -0.0001000
  H       -1.5271570     1.3681380    -0.0001420
units angstrom
no_reorient  #important for SAPT in psi4, default
symmetry c1  #important for SAPT in psi4, default
}

set PROPERTIES_ORIGIN ["COM"]
properties('MP2/aug-cc-pvtz', properties = ['dipole'])
--------------------------------------------------------------------------

    Molecular point group: c1
  Charge       = 0
  Multiplicity = 1
  Basis Set: AUG-CC-PVTZ
    Blend: AUG-CC-PVTZ
  Basis Set: (AUG-CC-PVTZ AUX)
    Blend: AUG-CC-PVTZ-JKFIT

    Orbital Energies [Eh]
    ---------------------

    Doubly Occupied:

       1A    -20.545907     2A    -11.329104     3A    -11.283943
       4A    -11.245339     5A    -11.244201     6A    -11.238358
       7A     -1.368538     8A     -1.124802     9A     -0.989982
      10A     -0.964297    11A     -0.833084    12A     -0.745508
      13A     -0.665940    14A     -0.641662    15A     -0.632619
      16A     -0.599898    17A     -0.572515    18A     -0.553948
      19A     -0.542827    20A     -0.524003    21A     -0.493876
      22A     -0.420890    23A     -0.370379

  @DF-RHF Final Energy:  -268.92475214083652

   => Energetics <=

    Nuclear Repulsion Energy =            216.7015166861201294
    One-Electron Energy =                -793.3892974766858970
    Two-Electron Energy =                 307.7630286497292218
    Total Energy =                       -268.9247521408365174
  Basis Set: (AUG-CC-PVTZ AUX)
    Blend: AUG-CC-PVTZ-RI
    Molecular point group: c1

    Geometry (in Angstrom), charge = 0, multiplicity = 1:

       Center              X                  Y                   Z               Mass
    ------------   -----------------  -----------------  -----------------  -----------------
         O           -2.645465007520    -0.243321154846    -0.000294011431    15.994914619570
         C            0.968846992480    -0.045785154846     0.000102988569    12.000000000000
         C            2.200210092480    -0.907562854846     0.000221788569    12.000000000000
         C            1.349202992480     1.409887845154     0.000183988569    12.000000000000
         C           -0.295582007520    -0.524970154846    -0.000048011431    12.000000000000
         C           -1.526470007520     0.271204845154    -0.000164011431    12.000000000000
         H            2.767651992480    -0.821877154846     0.880716988569     1.007825032230
         H            2.767820992480    -0.821870154846    -0.880169011431     1.007825032230
         H            1.813852992480    -2.034879154846     0.000176988569     1.007825032230
         H            1.963778992480     1.632078845154    -0.879423011431     1.007825032230
         H            1.963520992480     1.632047845154     0.879979988569     1.007825032230
         H            0.497696992480     2.089671845154     0.000070988569     1.007825032230
         H           -0.463200007520    -1.600693154846    -0.000089011431     1.007825032230
         H           -1.428961007520     1.372802845154    -0.000131011431     1.007825032230

  Basis Set: AUG-CC-PVTZ
    Blend: AUG-CC-PVTZ
  Basis Set: (AUG-CC-PVTZ AUX)
    Blend: AUG-CC-PVTZ-JKFIT
	 Reference Energy          =    -268.9247521408365174 [Eh]
	 Singles Energy            =      -0.0000000000000000 [Eh]
	 Same-Spin Energy          =      -0.2714292139015555 [Eh]
	 Opposite-Spin Energy      =      -0.9167539928820948 [Eh]
	 Correlation Energy        =      -1.1881832067836502 [Eh]
	 Total Energy              =    -270.1129353476201800 [Eh]

	 ================> DF-SCS-MP2 Energies <==================
	-----------------------------------------------------------
	 SCS Same-Spin Scale       =       0.3333333333333333 [-]
	 SCS Opposite-Spin Scale   =       1.2000000000000000 [-]
	 SCS Same-Spin Energy      =      -0.0904764046338518 [Eh]
	 SCS Opposite-Spin Energy  =      -1.1001047914585138 [Eh]
	 SCS Correlation Energy    =      -1.1905811960923656 [Eh]
	 SCS Total Energy          =    -270.1153333369288703 [Eh]
	-----------------------------------------------------------

  Dipole Moment: [D]
     X:     4.0680      Y:     1.0078      Z:     0.0005     Total:     4.1910

*** Psi4 exiting successfully. Buy a developer a beer!
