                               Psi4 1.4a3.dev225

  ==> Input File <==

--------------------------------------------------------------------------
#psi4
#
memory 32 gb

molecule  {
0 1
  O       -2.7436610    -0.2479860    -0.0003050
  C        0.8706510    -0.0504500     0.0000920
  C        2.0389000    -0.9960240     0.0002020
  C        1.2510070     1.4052230     0.0001730
  C       -0.3937780    -0.5296350    -0.0000590
  C       -1.6246660     0.2665400    -0.0001750
  H        2.6694560    -0.8265420     0.8807060
  H        2.6696250    -0.8265350    -0.8801800
  H        1.6860679    -2.1350662     0.0001627
  H        1.8655830     1.6274140    -0.8794340
  H        1.8653250     1.6273830     0.8799690
  H        0.3995010     2.0850070     0.0000600
  H       -0.5613960    -1.6053580    -0.0001000
  H       -1.5271570     1.3681380    -0.0001420
units angstrom
no_reorient  #important for SAPT in psi4, default
symmetry c1  #important for SAPT in psi4, default
}

set PROPERTIES_ORIGIN ["COM"]
properties('MP2/aug-cc-pvtz', properties = ['dipole'])
--------------------------------------------------------------------------

    Molecular point group: c1
  Charge       = 0
  Multiplicity = 1
  Basis Set: AUG-CC-PVTZ
    Blend: AUG-CC-PVTZ
  Basis Set: (AUG-CC-PVTZ AUX)
    Blend: AUG-CC-PVTZ-JKFIT

    Orbital Energies [Eh]
    ---------------------

    Doubly Occupied:

       1A    -20.544647     2A    -11.327628     3A    -11.283988
       4A    -11.254594     5A    -11.248359     6A    -11.236094
       7A     -1.367394     8A     -1.123853     9A     -0.985023
      10A     -0.962901    11A     -0.829605    12A     -0.744345
      13A     -0.664453    14A     -0.641055    15A     -0.618700
      16A     -0.599055    17A     -0.561561    18A     -0.548695
      19A     -0.544984    20A     -0.522749    21A     -0.510695
      22A     -0.419355    23A     -0.367754

  @DF-RHF Final Energy:  -268.92950666330864

   => Energetics <=

    Nuclear Repulsion Energy =            216.3439333886844054
    One-Electron Energy =                -792.7319079604500303
    Two-Electron Energy =                 307.4584679084570098
    Total Energy =                       -268.9295066633086435
  Basis Set: (AUG-CC-PVTZ AUX)
    Blend: AUG-CC-PVTZ-RI
    Molecular point group: c1

    Geometry (in Angstrom), charge = 0, multiplicity = 1:

       Center              X                  Y                   Z               Mass
    ------------   -----------------  -----------------  -----------------  -----------------
         O           -2.636100112105    -0.230213162468    -0.000292715582    15.994914619570
         C            0.978211887895    -0.032677162468     0.000104284418    12.000000000000
         C            2.146460887895    -0.978251162468     0.000214284418    12.000000000000
         C            1.358567887895     1.422995837532     0.000185284418    12.000000000000
         C           -0.286217112105    -0.511862162468    -0.000046715582    12.000000000000
         C           -1.517105112105     0.284312837532    -0.000162715582    12.000000000000
         H            2.777016887895    -0.808769162468     0.880718284418     1.007825032230
         H            2.777185887895    -0.808762162468    -0.880167715582     1.007825032230
         H            1.793628787895    -2.117293362468     0.000174984418     1.007825032230
         H            1.973143887895     1.645186837532    -0.879421715582     1.007825032230
         H            1.972885887895     1.645155837532     0.879981284418     1.007825032230
         H            0.507061887895     2.102779837532     0.000072284418     1.007825032230
         H           -0.453835112105    -1.587585162468    -0.000087715582     1.007825032230
         H           -1.419596112105     1.385910837532    -0.000129715582     1.007825032230

  Basis Set: AUG-CC-PVTZ
    Blend: AUG-CC-PVTZ
  Basis Set: (AUG-CC-PVTZ AUX)
    Blend: AUG-CC-PVTZ-JKFIT
	 Reference Energy          =    -268.9295066633086435 [Eh]
	 Singles Energy            =      -0.0000000000000000 [Eh]
	 Same-Spin Energy          =      -0.2712882503197279 [Eh]
	 Opposite-Spin Energy      =      -0.9168038401059502 [Eh]
	 Correlation Energy        =      -1.1880920904256782 [Eh]
	 Total Energy              =    -270.1175987537343417 [Eh]

	 ================> DF-SCS-MP2 Energies <==================
	-----------------------------------------------------------
	 SCS Same-Spin Scale       =       0.3333333333333333 [-]
	 SCS Opposite-Spin Scale   =       1.2000000000000000 [-]
	 SCS Same-Spin Energy      =      -0.0904294167732426 [Eh]
	 SCS Opposite-Spin Energy  =      -1.1001646081271401 [Eh]
	 SCS Correlation Energy    =      -1.1905940249003828 [Eh]
	 SCS Total Energy          =    -270.1201006882090496 [Eh]
	-----------------------------------------------------------

  Dipole Moment: [D]
     X:     4.1045      Y:     1.0359      Z:     0.0005     Total:     4.2332

*** Psi4 exiting successfully. Buy a developer a beer!
