                               Psi4 1.4a3.dev225

  ==> Input File <==

--------------------------------------------------------------------------
#psi4
#
memory 32 gb

molecule  {
0 1
  O       -2.7436610    -0.2479860    -0.0003050
  C        0.8706510    -0.0504500     0.0000920
  C        2.0389000    -0.9960240     0.0002020
  C        1.2510070     1.4052230     0.0001730
  C       -0.3937780    -0.5296350    -0.0000590
  C       -1.6246660     0.2665400    -0.0001750
  H        2.6694560    -0.8265420     0.8807060
  H        2.6696250    -0.8265350    -0.8801800
  H        1.7452461    -1.9440218     0.0001693
  H        1.8655830     1.6274140    -0.8794340
  H        1.8653250     1.6273830     0.8799690
  H        0.3995010     2.0850070     0.0000600
  H       -0.5613960    -1.6053580    -0.0001000
  H       -1.5271570     1.3681380    -0.0001420
units angstrom
no_reorient  #important for SAPT in psi4, default
symmetry c1  #important for SAPT in psi4, default
}

set PROPERTIES_ORIGIN ["COM"]
properties('MP2/aug-cc-pvtz', properties = ['dipole'])
--------------------------------------------------------------------------

    Molecular point group: c1
  Charge       = 0
  Multiplicity = 1
  Basis Set: AUG-CC-PVTZ
    Blend: AUG-CC-PVTZ
  Basis Set: (AUG-CC-PVTZ AUX)
    Blend: AUG-CC-PVTZ-JKFIT

    Orbital Energies [Eh]
    ---------------------

    Doubly Occupied:

       1A    -20.544180     2A    -11.327389     3A    -11.282681
       4A    -11.246606     5A    -11.235688     6A    -11.231274
       7A     -1.367025     8A     -1.125565     9A     -0.988599
      10A     -0.973085    11A     -0.832205    12A     -0.745815
      13A     -0.675798    14A     -0.640430    15A     -0.616829
      16A     -0.603178    17A     -0.567649    18A     -0.559640
      19A     -0.545088    20A     -0.522443    21A     -0.519936
      22A     -0.418880    23A     -0.367314

  @DF-RHF Final Energy:  -268.93039266880226

   => Energetics <=

    Nuclear Repulsion Energy =            217.1493875882380564
    One-Electron Energy =                -794.2849617449447805
    Two-Electron Energy =                 308.2051814879044969
    Total Energy =                       -268.9303926688022557
  Basis Set: (AUG-CC-PVTZ AUX)
    Blend: AUG-CC-PVTZ-RI
    Molecular point group: c1

    Geometry (in Angstrom), charge = 0, multiplicity = 1:

       Center              X                  Y                   Z               Mass
    ------------   -----------------  -----------------  -----------------  -----------------
         O           -2.636809641424    -0.232503728980    -0.000292794714    15.994914619570
         C            0.977502358576    -0.034967728980     0.000104205286    12.000000000000
         C            2.145751358576    -0.980541728980     0.000214205286    12.000000000000
         C            1.357858358576     1.420705271020     0.000185205286    12.000000000000
         C           -0.286926641424    -0.514152728980    -0.000046794714    12.000000000000
         C           -1.517814641424     0.282022271020    -0.000162794714    12.000000000000
         H            2.776307358576    -0.811059728980     0.880718205286     1.007825032230
         H            2.776476358576    -0.811052728980    -0.880167794714     1.007825032230
         H            1.852097458576    -1.928539528980     0.000181505286     1.007825032230
         H            1.972434358576     1.642896271020    -0.879421794714     1.007825032230
         H            1.972176358576     1.642865271020     0.879981205286     1.007825032230
         H            0.506352358576     2.100489271020     0.000072205286     1.007825032230
         H           -0.454544641424    -1.589875728980    -0.000087794714     1.007825032230
         H           -1.420305641424     1.383620271020    -0.000129794714     1.007825032230

  Basis Set: AUG-CC-PVTZ
    Blend: AUG-CC-PVTZ
  Basis Set: (AUG-CC-PVTZ AUX)
    Blend: AUG-CC-PVTZ-JKFIT
	 Reference Energy          =    -268.9303926688022557 [Eh]
	 Singles Energy            =      -0.0000000000000000 [Eh]
	 Same-Spin Energy          =      -0.2711568692723736 [Eh]
	 Opposite-Spin Energy      =      -0.9152729654084439 [Eh]
	 Correlation Energy        =      -1.1864298346808175 [Eh]
	 Total Energy              =    -270.1168225034830925 [Eh]

	 ================> DF-SCS-MP2 Energies <==================
	-----------------------------------------------------------
	 SCS Same-Spin Scale       =       0.3333333333333333 [-]
	 SCS Opposite-Spin Scale   =       1.2000000000000000 [-]
	 SCS Same-Spin Energy      =      -0.0903856230907912 [Eh]
	 SCS Opposite-Spin Energy  =      -1.0983275584901326 [Eh]
	 SCS Correlation Energy    =      -1.1887131815809238 [Eh]
	 SCS Total Energy          =    -270.1191058503831641 [Eh]
	-----------------------------------------------------------

  Dipole Moment: [D]
     X:     4.1218      Y:     0.9315      Z:     0.0005     Total:     4.2257

*** Psi4 exiting successfully. Buy a developer a beer!
