                               Psi4 1.4a3.dev225

  ==> Input File <==

--------------------------------------------------------------------------
#psi4
#
memory 32 gb

molecule  {
0 1
  O       -2.7436610    -0.2479860    -0.0003050
  C        0.8706510    -0.0504500     0.0000920
  C        2.0389000    -0.9960240     0.0002020
  C        1.2510070     1.4052230     0.0001730
  C       -0.3937780    -0.5296350    -0.0000590
  C       -1.6246660     0.2665400    -0.0001750
  H        2.6694560    -0.8265420     0.8807060
  H        2.6696250    -0.8265350    -0.8801800
  H        1.7156570    -2.0395440     0.0001660
  H        1.8655830     1.6274140    -0.8794340
  H        1.8933555     1.6375199     0.9201129
  H        0.3995010     2.0850070     0.0000600
  H       -0.5613960    -1.6053580    -0.0001000
  H       -1.5271570     1.3681380    -0.0001420
units angstrom
no_reorient  #important for SAPT in psi4, default
symmetry c1  #important for SAPT in psi4, default
}

set PROPERTIES_ORIGIN ["COM"]
properties('MP2/aug-cc-pvtz', properties = ['dipole'])
--------------------------------------------------------------------------

    Molecular point group: c1
  Charge       = 0
  Multiplicity = 1
  Basis Set: AUG-CC-PVTZ
    Blend: AUG-CC-PVTZ
  Basis Set: (AUG-CC-PVTZ AUX)
    Blend: AUG-CC-PVTZ-JKFIT

    Orbital Energies [Eh]
    ---------------------

    Doubly Occupied:

       1A    -20.544658     2A    -11.327752     3A    -11.283648
       4A    -11.253225     5A    -11.243172     6A    -11.236268
       7A     -1.367438     8A     -1.124000     9A     -0.985031
      10A     -0.964791    11A     -0.830593    12A     -0.744199
      13A     -0.669447    14A     -0.640444    15A     -0.614723
      16A     -0.599952    17A     -0.557954    18A     -0.556299
      19A     -0.543218    20A     -0.522631    21A     -0.517352
      22A     -0.419353    23A     -0.367464

  @DF-RHF Final Energy:  -268.93422409857470

   => Energetics <=

    Nuclear Repulsion Energy =            216.5162163162666502
    One-Electron Energy =                -793.0736547455725258
    Two-Electron Energy =                 307.6232143307311730
    Total Energy =                       -268.9342240985747026
  Basis Set: (AUG-CC-PVTZ AUX)
    Blend: AUG-CC-PVTZ-RI
    Molecular point group: c1

    Geometry (in Angstrom), charge = 0, multiplicity = 1:

       Center              X                  Y                   Z               Mass
    ------------   -----------------  -----------------  -----------------  -----------------
         O           -2.636790954266    -0.231479984192    -0.000774068775    15.994914619570
         C            0.977521045734    -0.033943984192    -0.000377068775    12.000000000000
         C            2.145770045734    -0.979517984192    -0.000267068775    12.000000000000
         C            1.357877045734     1.421729015808    -0.000296068775    12.000000000000
         C           -0.286907954266    -0.513128984192    -0.000528068775    12.000000000000
         C           -1.517795954266     0.283046015808    -0.000644068775    12.000000000000
         H            2.776326045734    -0.810035984192     0.880236931225     1.007825032230
         H            2.776495045734    -0.810028984192    -0.880649068775     1.007825032230
         H            1.822527045734    -2.023037984192    -0.000303068775     1.007825032230
         H            1.972453045734     1.643920015808    -0.879903068775     1.007825032230
         H            2.000225545734     1.654025915808     0.919643831225     1.007825032230
         H            0.506371045734     2.101513015808    -0.000409068775     1.007825032230
         H           -0.454525954266    -1.588851984192    -0.000569068775     1.007825032230
         H           -1.420286954266     1.384644015808    -0.000611068775     1.007825032230

  Basis Set: AUG-CC-PVTZ
    Blend: AUG-CC-PVTZ
  Basis Set: (AUG-CC-PVTZ AUX)
    Blend: AUG-CC-PVTZ-JKFIT
	 Reference Energy          =    -268.9342240985747026 [Eh]
	 Singles Energy            =      -0.0000000000000000 [Eh]
	 Same-Spin Energy          =      -0.2712100406612193 [Eh]
	 Opposite-Spin Energy      =      -0.9162411191995631 [Eh]
	 Correlation Energy        =      -1.1874511598607824 [Eh]
	 Total Energy              =    -270.1216752584354595 [Eh]

	 ================> DF-SCS-MP2 Energies <==================
	-----------------------------------------------------------
	 SCS Same-Spin Scale       =       0.3333333333333333 [-]
	 SCS Opposite-Spin Scale   =       1.2000000000000000 [-]
	 SCS Same-Spin Energy      =      -0.0904033468870731 [Eh]
	 SCS Opposite-Spin Energy  =      -1.0994893430394757 [Eh]
	 SCS Correlation Energy    =      -1.1898926899265487 [Eh]
	 SCS Total Energy          =    -270.1241167885012260 [Eh]
	-----------------------------------------------------------

  Dipole Moment: [D]
     X:     4.0930      Y:     0.9661      Z:    -0.0136     Total:     4.2055

*** Psi4 exiting successfully. Buy a developer a beer!
