                               Psi4 1.4a3.dev225

  ==> Input File <==

--------------------------------------------------------------------------
#psi4
#
memory 32 gb

molecule  {
0 1
  O       -2.7436610    -0.2479860    -0.0003050
  C        0.8706510    -0.0504500     0.0000920
  C        2.0389000    -0.9960240     0.0002020
  C        1.2510070     1.4052230     0.0001730
  C       -0.3937780    -0.5296350    -0.0000590
  C       -1.6246660     0.2665400    -0.0001750
  H        2.6694560    -0.8265420     0.8807060
  H        2.6696250    -0.8265350    -0.8801800
  H        1.7097392    -2.0586484     0.0001653
  H        1.8655830     1.6274140    -0.8794340
  H        1.8653250     1.6273830     0.8799690
  H        0.3995010     2.0850070     0.0000600
  H       -0.5613960    -1.6053580    -0.0001000
  H       -1.5271570     1.3681380    -0.0001420
units angstrom
no_reorient  #important for SAPT in psi4, default
symmetry c1  #important for SAPT in psi4, default
}

set PROPERTIES_ORIGIN ["COM"]
properties('MP2/aug-cc-pvtz', properties = ['dipole'])
--------------------------------------------------------------------------

    Molecular point group: c1
  Charge       = 0
  Multiplicity = 1
  Basis Set: AUG-CC-PVTZ
    Blend: AUG-CC-PVTZ
  Basis Set: (AUG-CC-PVTZ AUX)
    Blend: AUG-CC-PVTZ-JKFIT

    Orbital Energies [Eh]
    ---------------------

    Doubly Occupied:

       1A    -20.544416     2A    -11.327495     3A    -11.283379
       4A    -11.247567     5A    -11.245562     6A    -11.235877
       7A     -1.367209     8A     -1.124201     9A     -0.985452
      10A     -0.966620    11A     -0.830357    12A     -0.744732
      13A     -0.668039    14A     -0.640757    15A     -0.617813
      16A     -0.600095    17A     -0.560633    18A     -0.555211
      19A     -0.545654    20A     -0.522593    21A     -0.516081
      22A     -0.419125    23A     -0.367524

  @DF-RHF Final Energy:  -268.93574146631619

   => Energetics <=

    Nuclear Repulsion Energy =            216.6413921532968345
    One-Electron Energy =                -793.3214840302185848
    Two-Electron Energy =                 307.7443504106055912
    Total Energy =                       -268.9357414663161876
  Basis Set: (AUG-CC-PVTZ AUX)
    Blend: AUG-CC-PVTZ-RI
    Molecular point group: c1

    Geometry (in Angstrom), charge = 0, multiplicity = 1:

       Center              X                  Y                   Z               Mass
    ------------   -----------------  -----------------  -----------------  -----------------
         O           -2.636383924072    -0.231129389552    -0.000292746756    15.994914619570
         C            0.977928075928    -0.033593389552     0.000104253244    12.000000000000
         C            2.146177075928    -0.979167389552     0.000214253244    12.000000000000
         C            1.358284075928     1.422079610448     0.000185253244    12.000000000000
         C           -0.286500924072    -0.512778389552    -0.000046746756    12.000000000000
         C           -1.517388924072     0.283396610448    -0.000162746756    12.000000000000
         H            2.776733075928    -0.809685389552     0.880718253244     1.007825032230
         H            2.776902075928    -0.809678389552    -0.880167746756     1.007825032230
         H            1.817016275928    -2.041791789552     0.000177553244     1.007825032230
         H            1.972860075928     1.644270610448    -0.879421746756     1.007825032230
         H            1.972602075928     1.644239610448     0.879981253244     1.007825032230
         H            0.506778075928     2.101863610448     0.000072253244     1.007825032230
         H           -0.454118924072    -1.588501389552    -0.000087746756     1.007825032230
         H           -1.419879924072     1.384994610448    -0.000129746756     1.007825032230

  Basis Set: AUG-CC-PVTZ
    Blend: AUG-CC-PVTZ
  Basis Set: (AUG-CC-PVTZ AUX)
    Blend: AUG-CC-PVTZ-JKFIT
	 Reference Energy          =    -268.9357414663161876 [Eh]
	 Singles Energy            =      -0.0000000000000000 [Eh]
	 Same-Spin Energy          =      -0.2712181423958351 [Eh]
	 Opposite-Spin Energy      =      -0.9160679761056489 [Eh]
	 Correlation Energy        =      -1.1872861185014840 [Eh]
	 Total Energy              =    -270.1230275848176916 [Eh]

	 ================> DF-SCS-MP2 Energies <==================
	-----------------------------------------------------------
	 SCS Same-Spin Scale       =       0.3333333333333333 [-]
	 SCS Opposite-Spin Scale   =       1.2000000000000000 [-]
	 SCS Same-Spin Energy      =      -0.0904060474652784 [Eh]
	 SCS Opposite-Spin Energy  =      -1.0992815713267787 [Eh]
	 SCS Correlation Energy    =      -1.1896876187920571 [Eh]
	 SCS Total Energy          =    -270.1254290851082374 [Eh]
	-----------------------------------------------------------

  Dipole Moment: [D]
     X:     4.1118      Y:     0.9874      Z:     0.0005     Total:     4.2287

*** Psi4 exiting successfully. Buy a developer a beer!
