                               Psi4 1.4a3.dev225

  ==> Input File <==

--------------------------------------------------------------------------
#psi4
#
memory 32 gb

molecule  {
0 1
  O       -2.7436610    -0.2479860    -0.0003050
  C        0.8706510    -0.0504500     0.0000920
  C        1.9336608    -1.1129593     0.0001878
  C        1.2510070     1.4052230     0.0001730
  C       -0.3937780    -0.5296350    -0.0000590
  C       -1.6246660     0.2665400    -0.0001750
  H        2.6694560    -0.8265420     0.8807060
  H        2.6696250    -0.8265350    -0.8801800
  H        1.7156570    -2.0395440     0.0001660
  H        1.8655830     1.6274140    -0.8794340
  H        1.8653250     1.6273830     0.8799690
  H        0.3995010     2.0850070     0.0000600
  H       -0.5613960    -1.6053580    -0.0001000
  H       -1.5271570     1.3681380    -0.0001420
units angstrom
no_reorient  #important for SAPT in psi4, default
symmetry c1  #important for SAPT in psi4, default
}

set PROPERTIES_ORIGIN ["COM"]
properties('MP2/aug-cc-pvtz', properties = ['dipole'])
--------------------------------------------------------------------------

    Molecular point group: c1
  Charge       = 0
  Multiplicity = 1
  Basis Set: AUG-CC-PVTZ
    Blend: AUG-CC-PVTZ
  Basis Set: (AUG-CC-PVTZ AUX)
    Blend: AUG-CC-PVTZ-JKFIT

    Orbital Energies [Eh]
    ---------------------

    Doubly Occupied:

       1A    -20.542599     2A    -11.325446     3A    -11.285263
       4A    -11.251942     5A    -11.248763     6A    -11.233149
       7A     -1.365615     8A     -1.126254     9A     -0.981510
      10A     -0.976481    11A     -0.830311    12A     -0.748166
      13A     -0.684896    14A     -0.639129    15A     -0.608293
      16A     -0.608179    17A     -0.571810    18A     -0.537927
      19A     -0.534175    20A     -0.530939    21A     -0.518530
      22A     -0.416442    23A     -0.362493

  @DF-RHF Final Energy:  -268.90535211541345

   => Energetics <=

    Nuclear Repulsion Energy =            216.8701390693151154
    One-Electron Energy =                -793.6943576106818909
    Two-Electron Energy =                 307.9188664259533539
    Total Energy =                       -268.9053521154134501
  Basis Set: (AUG-CC-PVTZ AUX)
    Blend: AUG-CC-PVTZ-RI
    Molecular point group: c1

    Geometry (in Angstrom), charge = 0, multiplicity = 1:

       Center              X                  Y                   Z               Mass
    ------------   -----------------  -----------------  -----------------  -----------------
         O           -2.621430992204    -0.214664832999    -0.000290727965    15.994914619570
         C            0.992881007796    -0.017128832999     0.000106272035    12.000000000000
         C            2.055890807796    -1.079638132999     0.000202072035    12.000000000000
         C            1.373237007796     1.438544167001     0.000187272035    12.000000000000
         C           -0.271547992204    -0.496313832999    -0.000044727965    12.000000000000
         C           -1.502435992204     0.299861167001    -0.000160727965    12.000000000000
         H            2.791686007796    -0.793220832999     0.880720272035     1.007825032230
         H            2.791855007796    -0.793213832999    -0.880165727965     1.007825032230
         H            1.837887007796    -2.006222832999     0.000180272035     1.007825032230
         H            1.987813007796     1.660735167001    -0.879419727965     1.007825032230
         H            1.987555007796     1.660704167001     0.879983272035     1.007825032230
         H            0.521731007796     2.118328167001     0.000074272035     1.007825032230
         H           -0.439165992204    -1.572036832999    -0.000085727965     1.007825032230
         H           -1.404926992204     1.401459167001    -0.000127727965     1.007825032230

  Basis Set: AUG-CC-PVTZ
    Blend: AUG-CC-PVTZ
  Basis Set: (AUG-CC-PVTZ AUX)
    Blend: AUG-CC-PVTZ-JKFIT
	 Reference Energy          =    -268.9053521154134501 [Eh]
	 Singles Energy            =      -0.0000000000000000 [Eh]
	 Same-Spin Energy          =      -0.2717161906539767 [Eh]
	 Opposite-Spin Energy      =      -0.9169993971073331 [Eh]
	 Correlation Energy        =      -1.1887155877613098 [Eh]
	 Total Energy              =    -270.0940677031747441 [Eh]

	 ================> DF-SCS-MP2 Energies <==================
	-----------------------------------------------------------
	 SCS Same-Spin Scale       =       0.3333333333333333 [-]
	 SCS Opposite-Spin Scale   =       1.2000000000000000 [-]
	 SCS Same-Spin Energy      =      -0.0905720635513255 [Eh]
	 SCS Opposite-Spin Energy  =      -1.1003992765287998 [Eh]
	 SCS Correlation Energy    =      -1.1909713400801254 [Eh]
	 SCS Total Energy          =    -270.0963234554935752 [Eh]
	-----------------------------------------------------------

  Dipole Moment: [D]
     X:     4.1445      Y:     0.9996      Z:     0.0005     Total:     4.2634

*** Psi4 exiting successfully. Buy a developer a beer!
