                               Psi4 1.4a3.dev225

  ==> Input File <==

--------------------------------------------------------------------------
#psi4
#
memory 32 gb

molecule  {
0 1
  O       -2.7436610    -0.2479860    -0.0003050
  C        0.8706510    -0.0504500     0.0000920
  C        2.0051883    -1.0362193     0.0001974
  C        1.2510070     1.4052230     0.0001730
  C       -0.3937780    -0.5296350    -0.0000590
  C       -1.6246660     0.2665400    -0.0001750
  H        2.6694560    -0.8265420     0.8807060
  H        2.6696250    -0.8265350    -0.8801800
  H        1.7156570    -2.0395440     0.0001660
  H        1.8655830     1.6274140    -0.8794340
  H        1.8653250     1.6273830     0.8799690
  H        0.3995010     2.0850070     0.0000600
  H       -0.5613960    -1.6053580    -0.0001000
  H       -1.5271570     1.3681380    -0.0001420
units angstrom
no_reorient  #important for SAPT in psi4, default
symmetry c1  #important for SAPT in psi4, default
}

set PROPERTIES_ORIGIN ["COM"]
properties('MP2/aug-cc-pvtz', properties = ['dipole'])
--------------------------------------------------------------------------

    Molecular point group: c1
  Charge       = 0
  Multiplicity = 1
  Basis Set: AUG-CC-PVTZ
    Blend: AUG-CC-PVTZ
  Basis Set: (AUG-CC-PVTZ AUX)
    Blend: AUG-CC-PVTZ-JKFIT

    Orbital Energies [Eh]
    ---------------------

    Doubly Occupied:

       1A    -20.543699     2A    -11.326731     3A    -11.283482
       4A    -11.248715     5A    -11.244163     6A    -11.234776
       7A     -1.366579     8A     -1.124634     9A     -0.983949
      10A     -0.970044    11A     -0.829828    12A     -0.745229
      13A     -0.673235    14A     -0.639925    15A     -0.612902
      16A     -0.602265    17A     -0.562259    18A     -0.552019
      19A     -0.543793    20A     -0.524292    21A     -0.521737
      22A     -0.418187    23A     -0.365927

  @DF-RHF Final Energy:  -268.93327202318255

   => Energetics <=

    Nuclear Repulsion Energy =            216.7515743459991029
    One-Electron Energy =                -793.5329516875615354
    Two-Electron Energy =                 307.8481053183799077
    Total Energy =                       -268.9332720231825533
  Basis Set: (AUG-CC-PVTZ AUX)
    Blend: AUG-CC-PVTZ-RI
    Molecular point group: c1

    Geometry (in Angstrom), charge = 0, multiplicity = 1:

       Center              X                  Y                   Z               Mass
    ------------   -----------------  -----------------  -----------------  -----------------
         O           -2.631642214856    -0.225620188999    -0.000292098455    15.994914619570
         C            0.982669785144    -0.028084188999     0.000104901545    12.000000000000
         C            2.117207085144    -1.013853488999     0.000210301545    12.000000000000
         C            1.363025785144     1.427588811001     0.000185901545    12.000000000000
         C           -0.281759214856    -0.507269188999    -0.000046098455    12.000000000000
         C           -1.512647214856     0.288905811001    -0.000162098455    12.000000000000
         H            2.781474785144    -0.804176188999     0.880718901545     1.007825032230
         H            2.781643785144    -0.804169188999    -0.880167098455     1.007825032230
         H            1.827675785144    -2.017178188999     0.000178901545     1.007825032230
         H            1.977601785144     1.649779811001    -0.879421098455     1.007825032230
         H            1.977343785144     1.649748811001     0.879981901545     1.007825032230
         H            0.511519785144     2.107372811001     0.000072901545     1.007825032230
         H           -0.449377214856    -1.582992188999    -0.000087098455     1.007825032230
         H           -1.415138214856     1.390503811001    -0.000129098455     1.007825032230

  Basis Set: AUG-CC-PVTZ
    Blend: AUG-CC-PVTZ
  Basis Set: (AUG-CC-PVTZ AUX)
    Blend: AUG-CC-PVTZ-JKFIT
	 Reference Energy          =    -268.9332720231825533 [Eh]
	 Singles Energy            =      -0.0000000000000000 [Eh]
	 Same-Spin Energy          =      -0.2712570138439784 [Eh]
	 Opposite-Spin Energy      =      -0.9159351856870498 [Eh]
	 Correlation Energy        =      -1.1871921995310282 [Eh]
	 Total Energy              =    -270.1204642227135651 [Eh]

	 ================> DF-SCS-MP2 Energies <==================
	-----------------------------------------------------------
	 SCS Same-Spin Scale       =       0.3333333333333333 [-]
	 SCS Opposite-Spin Scale   =       1.2000000000000000 [-]
	 SCS Same-Spin Energy      =      -0.0904190046146595 [Eh]
	 SCS Opposite-Spin Energy  =      -1.0991222228244597 [Eh]
	 SCS Correlation Energy    =      -1.1895412274391191 [Eh]
	 SCS Total Energy          =    -270.1228132506216753 [Eh]
	-----------------------------------------------------------

  Dipole Moment: [D]
     X:     4.1297      Y:     0.9746      Z:     0.0005     Total:     4.2432

*** Psi4 exiting successfully. Buy a developer a beer!
