                               Psi4 1.4a3.dev225

  ==> Input File <==

--------------------------------------------------------------------------
#psi4
#
memory 32 gb

molecule  {
0 1
  O       -2.7436610    -0.2479860    -0.0003050
  C        0.8706510    -0.0504500     0.0000920
  C        2.0389000    -0.9960240     0.0002020
  C        1.2510070     1.4052230     0.0001730
  C       -0.3937780    -0.5296350    -0.0000590
  C       -1.5792382     0.2874282    -0.0001697
  H        2.6694560    -0.8265420     0.8807060
  H        2.6696250    -0.8265350    -0.8801800
  H        1.7156570    -2.0395440     0.0001660
  H        1.8655830     1.6274140    -0.8794340
  H        1.8653250     1.6273830     0.8799690
  H        0.3995010     2.0850070     0.0000600
  H       -0.5613960    -1.6053580    -0.0001000
  H       -1.5271570     1.3681380    -0.0001420
units angstrom
no_reorient  #important for SAPT in psi4, default
symmetry c1  #important for SAPT in psi4, default
}

set PROPERTIES_ORIGIN ["COM"]
properties('MP2/aug-cc-pvtz', properties = ['dipole'])
--------------------------------------------------------------------------

    Molecular point group: c1
  Charge       = 0
  Multiplicity = 1
  Basis Set: AUG-CC-PVTZ
    Blend: AUG-CC-PVTZ
  Basis Set: (AUG-CC-PVTZ AUX)
    Blend: AUG-CC-PVTZ-JKFIT

    Orbital Energies [Eh]
    ---------------------

    Doubly Occupied:

       1A    -20.539646     2A    -11.328485     3A    -11.287198
       4A    -11.250167     5A    -11.245570     6A    -11.237350
       7A     -1.333811     8A     -1.129001     9A     -0.992773
      10A     -0.970612    11A     -0.836666    12A     -0.748933
      13A     -0.670498    14A     -0.639404    15A     -0.620235
      16A     -0.588662    17A     -0.562966    18A     -0.558031
      19A     -0.546820    20A     -0.518769    21A     -0.505446
      22A     -0.422573    23A     -0.366441

  @DF-RHF Final Energy:  -268.92700661742424

   => Energetics <=

    Nuclear Repulsion Energy =            216.5536507673539575
    One-Electron Energy =                -793.1611992421621835
    Two-Electron Energy =                 307.6805418573840143
    Total Energy =                       -268.9270066174242402
  Basis Set: (AUG-CC-PVTZ AUX)
    Blend: AUG-CC-PVTZ-RI
    Molecular point group: c1

    Geometry (in Angstrom), charge = 0, multiplicity = 1:

       Center              X                  Y                   Z               Mass
    ------------   -----------------  -----------------  -----------------  -----------------
         O           -2.642940122025    -0.234340432526    -0.000293511773    15.994914619570
         C            0.971371877975    -0.036804432526     0.000103488227    12.000000000000
         C            2.139620877975    -0.982378432526     0.000213488227    12.000000000000
         C            1.351727877975     1.418868567474     0.000184488227    12.000000000000
         C           -0.293057122025    -0.515989432526    -0.000047511773    12.000000000000
         C           -1.478517322025     0.301073767474    -0.000158211773    12.000000000000
         H            2.770176877975    -0.812896432526     0.880717488227     1.007825032230
         H            2.770345877975    -0.812889432526    -0.880168511773     1.007825032230
         H            1.816377877975    -2.025898432526     0.000177488227     1.007825032230
         H            1.966303877975     1.641059567474    -0.879422511773     1.007825032230
         H            1.966045877975     1.641028567474     0.879980488227     1.007825032230
         H            0.500221877975     2.098652567474     0.000071488227     1.007825032230
         H           -0.460675122025    -1.591712432526    -0.000088511773     1.007825032230
         H           -1.426436122025     1.381783567474    -0.000130511773     1.007825032230

  Basis Set: AUG-CC-PVTZ
    Blend: AUG-CC-PVTZ
  Basis Set: (AUG-CC-PVTZ AUX)
    Blend: AUG-CC-PVTZ-JKFIT
	 Reference Energy          =    -268.9270066174242402 [Eh]
	 Singles Energy            =      -0.0000000000000000 [Eh]
	 Same-Spin Energy          =      -0.2728354115818591 [Eh]
	 Opposite-Spin Energy      =      -0.9192115561005254 [Eh]
	 Correlation Energy        =      -1.1920469676823846 [Eh]
	 Total Energy              =    -270.1190535851065988 [Eh]

	 ================> DF-SCS-MP2 Energies <==================
	-----------------------------------------------------------
	 SCS Same-Spin Scale       =       0.3333333333333333 [-]
	 SCS Opposite-Spin Scale   =       1.2000000000000000 [-]
	 SCS Same-Spin Energy      =      -0.0909451371939530 [Eh]
	 SCS Opposite-Spin Energy  =      -1.1030538673206305 [Eh]
	 SCS Correlation Energy    =      -1.1939990045145836 [Eh]
	 SCS Total Energy          =    -270.1210056219388207 [Eh]
	-----------------------------------------------------------

  Dipole Moment: [D]
     X:     4.3761      Y:     1.0294      Z:     0.0005     Total:     4.4955

*** Psi4 exiting successfully. Buy a developer a beer!
