                               Psi4 1.4a3.dev225

  ==> Input File <==

--------------------------------------------------------------------------
#psi4
#
memory 32 gb

molecule  {
0 1
  O       -2.7436610    -0.2479860    -0.0003050
  C        0.8706510    -0.0504500     0.0000920
  C        2.0389000    -0.9960240     0.0002020
  C        1.2510070     1.4052230     0.0001730
  C       -0.3937780    -0.5296350    -0.0000590
  C       -1.6246660     0.2665400    -0.0001750
  H        2.6982175    -0.8188114     0.9208684
  H        2.6696250    -0.8265350    -0.8801800
  H        1.7156570    -2.0395440     0.0001660
  H        1.8655830     1.6274140    -0.8794340
  H        1.8653250     1.6273830     0.8799690
  H        0.3995010     2.0850070     0.0000600
  H       -0.5613960    -1.6053580    -0.0001000
  H       -1.5271570     1.3681380    -0.0001420
units angstrom
no_reorient  #important for SAPT in psi4, default
symmetry c1  #important for SAPT in psi4, default
}

set PROPERTIES_ORIGIN ["COM"]
properties('MP2/aug-cc-pvtz', properties = ['dipole'])
--------------------------------------------------------------------------

    Molecular point group: c1
  Charge       = 0
  Multiplicity = 1
  Basis Set: AUG-CC-PVTZ
    Blend: AUG-CC-PVTZ
  Basis Set: (AUG-CC-PVTZ AUX)
    Blend: AUG-CC-PVTZ-JKFIT

    Orbital Energies [Eh]
    ---------------------

    Doubly Occupied:

       1A    -20.544648     2A    -11.327740     3A    -11.283664
       4A    -11.249111     5A    -11.247333     6A    -11.236289
       7A     -1.367429     8A     -1.124053     9A     -0.984700
      10A     -0.965562    11A     -0.829536    12A     -0.744911
      13A     -0.669416    14A     -0.640256    15A     -0.614997
      16A     -0.600695    17A     -0.559286    18A     -0.551939
      19A     -0.545401    20A     -0.522665    21A     -0.517357
      22A     -0.419339    23A     -0.367458

  @DF-RHF Final Energy:  -268.93422696416053

   => Energetics <=

    Nuclear Repulsion Energy =            216.5201221510396010
    One-Electron Energy =                -793.0811286435324519
    Two-Electron Energy =                 307.6267795283323494
    Total Energy =                       -268.9342269641605299
  Basis Set: (AUG-CC-PVTZ AUX)
    Blend: AUG-CC-PVTZ-RI
    Molecular point group: c1

    Geometry (in Angstrom), charge = 0, multiplicity = 1:

       Center              X                  Y                   Z               Mass
    ------------   -----------------  -----------------  -----------------  -----------------
         O           -2.636799718742    -0.231451133358    -0.000774290584    15.994914619570
         C            0.977512281258    -0.033915133358    -0.000377290584    12.000000000000
         C            2.145761281258    -0.979489133358    -0.000267290584    12.000000000000
         C            1.357868281258     1.421757866642    -0.000296290584    12.000000000000
         C           -0.286916718742    -0.513100133358    -0.000528290584    12.000000000000
         C           -1.517804718742     0.283074866642    -0.000644290584    12.000000000000
         H            2.805078781258    -0.802276533358     0.920399109416     1.007825032230
         H            2.776486281258    -0.810000133358    -0.880649290584     1.007825032230
         H            1.822518281258    -2.023009133358    -0.000303290584     1.007825032230
         H            1.972444281258     1.643948866642    -0.879903290584     1.007825032230
         H            1.972186281258     1.643917866642     0.879499709416     1.007825032230
         H            0.506362281258     2.101541866642    -0.000409290584     1.007825032230
         H           -0.454534718742    -1.588823133358    -0.000569290584     1.007825032230
         H           -1.420295718742     1.384672866642    -0.000611290584     1.007825032230

  Basis Set: AUG-CC-PVTZ
    Blend: AUG-CC-PVTZ
  Basis Set: (AUG-CC-PVTZ AUX)
    Blend: AUG-CC-PVTZ-JKFIT
	 Reference Energy          =    -268.9342269641605299 [Eh]
	 Singles Energy            =      -0.0000000000000000 [Eh]
	 Same-Spin Energy          =      -0.2712104657203015 [Eh]
	 Opposite-Spin Energy      =      -0.9162376768537356 [Eh]
	 Correlation Energy        =      -1.1874481425740371 [Eh]
	 Total Energy              =    -270.1216751067345854 [Eh]

	 ================> DF-SCS-MP2 Energies <==================
	-----------------------------------------------------------
	 SCS Same-Spin Scale       =       0.3333333333333333 [-]
	 SCS Opposite-Spin Scale   =       1.2000000000000000 [-]
	 SCS Same-Spin Energy      =      -0.0904034885734338 [Eh]
	 SCS Opposite-Spin Energy  =      -1.0994852122244827 [Eh]
	 SCS Correlation Energy    =      -1.1898887007979164 [Eh]
	 SCS Total Energy          =    -270.1241156649584241 [Eh]
	-----------------------------------------------------------

  Dipole Moment: [D]
     X:     4.0893      Y:     0.9749      Z:    -0.0151     Total:     4.2039

*** Psi4 exiting successfully. Buy a developer a beer!
