                               Psi4 1.4a3.dev225

  ==> Input File <==

--------------------------------------------------------------------------
#psi4
#
memory 32 gb

molecule  {
0 1
  O       -2.7436610    -0.2479860    -0.0003050
  C        0.8706510    -0.0504500     0.0000920
  C        2.0389000    -0.9960240     0.0002020
  C        1.2510070     1.4052230     0.0001730
  C       -0.3937780    -0.5296350    -0.0000590
  C       -1.6246660     0.2665400    -0.0001750
  H        2.5544100    -0.8574643     0.7200566
  H        2.6696250    -0.8265350    -0.8801800
  H        1.7156570    -2.0395440     0.0001660
  H        1.8655830     1.6274140    -0.8794340
  H        1.8653250     1.6273830     0.8799690
  H        0.3995010     2.0850070     0.0000600
  H       -0.5613960    -1.6053580    -0.0001000
  H       -1.5271570     1.3681380    -0.0001420
units angstrom
no_reorient  #important for SAPT in psi4, default
symmetry c1  #important for SAPT in psi4, default
}

set PROPERTIES_ORIGIN ["COM"]
properties('MP2/aug-cc-pvtz', properties = ['dipole'])
--------------------------------------------------------------------------

    Molecular point group: c1
  Charge       = 0
  Multiplicity = 1
  Basis Set: AUG-CC-PVTZ
    Blend: AUG-CC-PVTZ
  Basis Set: (AUG-CC-PVTZ AUX)
    Blend: AUG-CC-PVTZ-JKFIT

    Orbital Energies [Eh]
    ---------------------

    Doubly Occupied:

       1A    -20.543750     2A    -11.326818     3A    -11.282023
       4A    -11.247666     5A    -11.234750     6A    -11.218795
       7A     -1.366588     8A     -1.127730     9A     -0.998656
      10A     -0.974918    11A     -0.836934    12A     -0.745511
      13A     -0.668462    14A     -0.650461    15A     -0.629036
      16A     -0.599992    17A     -0.579844    18A     -0.557038
      19A     -0.545385    20A     -0.522212    21A     -0.516014
      22A     -0.418476    23A     -0.367739

  @DF-RHF Final Energy:  -268.90278758449392

   => Energetics <=

    Nuclear Repulsion Energy =            217.6726249453477635
    One-Electron Energy =                -795.2332242499135191
    Two-Electron Energy =                 308.6578117200718907
    Total Energy =                       -268.9027875844939217
  Basis Set: (AUG-CC-PVTZ AUX)
    Blend: AUG-CC-PVTZ-RI
    Molecular point group: c1

    Geometry (in Angstrom), charge = 0, multiplicity = 1:

       Center              X                  Y                   Z               Mass
    ------------   -----------------  -----------------  -----------------  -----------------
         O           -2.635075508854    -0.230987696386     0.001633384198    15.994914619570
         C            0.979236491146    -0.033451696386     0.002030384198    12.000000000000
         C            2.147485491146    -0.979025696386     0.002140384198    12.000000000000
         C            1.359592491146     1.422221303614     0.002111384198    12.000000000000
         C           -0.285192508854    -0.512636696386     0.001879384198    12.000000000000
         C           -1.516080508854     0.283538303614     0.001763384198    12.000000000000
         H            2.662995491146    -0.840465996386     0.721994984198     1.007825032230
         H            2.778210491146    -0.809536696386    -0.878241615802     1.007825032230
         H            1.824242491146    -2.022545696386     0.002104384198     1.007825032230
         H            1.974168491146     1.644412303614    -0.877495615802     1.007825032230
         H            1.973910491146     1.644381303614     0.881907384198     1.007825032230
         H            0.508086491146     2.102005303614     0.001998384198     1.007825032230
         H           -0.452810508854    -1.588359696386     0.001838384198     1.007825032230
         H           -1.418571508854     1.385136303614     0.001796384198     1.007825032230

  Basis Set: AUG-CC-PVTZ
    Blend: AUG-CC-PVTZ
  Basis Set: (AUG-CC-PVTZ AUX)
    Blend: AUG-CC-PVTZ-JKFIT
	 Reference Energy          =    -268.9027875844939217 [Eh]
	 Singles Energy            =      -0.0000000000000000 [Eh]
	 Same-Spin Energy          =      -0.2712883876572953 [Eh]
	 Opposite-Spin Energy      =      -0.9152967518079198 [Eh]
	 Correlation Energy        =      -1.1865851394652152 [Eh]
	 Total Energy              =    -270.0893727239591158 [Eh]

	 ================> DF-SCS-MP2 Energies <==================
	-----------------------------------------------------------
	 SCS Same-Spin Scale       =       0.3333333333333333 [-]
	 SCS Opposite-Spin Scale   =       1.2000000000000000 [-]
	 SCS Same-Spin Energy      =      -0.0904294625524318 [Eh]
	 SCS Opposite-Spin Energy  =      -1.0983561021695036 [Eh]
	 SCS Correlation Energy    =      -1.1887855647219354 [Eh]
	 SCS Total Energy          =    -270.0915731492158329 [Eh]
	-----------------------------------------------------------

  Dipole Moment: [D]
     X:     4.1709      Y:     0.9853      Z:     0.0370     Total:     4.2858

*** Psi4 exiting successfully. Buy a developer a beer!
