                               Psi4 1.4a3.dev225

  ==> Input File <==

--------------------------------------------------------------------------
#psi4
#
memory 32 gb

molecule  {
0 1
  O       -2.7436610    -0.2479860    -0.0003050
  C        0.8706510    -0.0504500     0.0000920
  C        2.0222195    -1.0162687     0.0001997
  C        1.2510070     1.4052230     0.0001730
  C       -0.3937780    -0.5296350    -0.0000590
  C       -1.6246660     0.2665400    -0.0001750
  H        2.6694560    -0.8265420     0.8807060
  H        2.6696250    -0.8265350    -0.8801800
  H        1.7156570    -2.0395440     0.0001660
  H        1.8655830     1.6274140    -0.8794340
  H        1.8653250     1.6273830     0.8799690
  H        0.3995010     2.0850070     0.0000600
  H       -0.5613960    -1.6053580    -0.0001000
  H       -1.5271570     1.3681380    -0.0001420
units angstrom
no_reorient  #important for SAPT in psi4, default
symmetry c1  #important for SAPT in psi4, default
}

set PROPERTIES_ORIGIN ["COM"]
properties('MP2/aug-cc-pvtz', properties = ['dipole'])
--------------------------------------------------------------------------

    Molecular point group: c1
  Charge       = 0
  Multiplicity = 1
  Basis Set: AUG-CC-PVTZ
    Blend: AUG-CC-PVTZ
  Basis Set: (AUG-CC-PVTZ AUX)
    Blend: AUG-CC-PVTZ-JKFIT

    Orbital Energies [Eh]
    ---------------------

    Doubly Occupied:

       1A    -20.544024     2A    -11.327094     3A    -11.283312
       4A    -11.248027     5A    -11.243581     6A    -11.235287
       7A     -1.366866     8A     -1.124449     9A     -0.984784
      10A     -0.968796    11A     -0.830158    12A     -0.744975
      13A     -0.670983    14A     -0.640309    15A     -0.615026
      16A     -0.601228    17A     -0.559649    18A     -0.556381
      19A     -0.544891    20A     -0.522168    21A     -0.520997
      22A     -0.418630    23A     -0.366713

  @DF-RHF Final Energy:  -268.93561573950791

   => Energetics <=

    Nuclear Repulsion Energy =            216.7339187010172168
    One-Electron Energy =                -793.5024066910307283
    Two-Electron Energy =                 307.8328722505055453
    Total Energy =                       -268.9356157395079094
  Basis Set: (AUG-CC-PVTZ AUX)
    Blend: AUG-CC-PVTZ-RI
    Molecular point group: c1

    Geometry (in Angstrom), charge = 0, multiplicity = 1:

       Center              X                  Y                   Z               Mass
    ------------   -----------------  -----------------  -----------------  -----------------
         O           -2.634073578670    -0.228468324593    -0.000292426802    15.994914619570
         C            0.980238421330    -0.030932324593     0.000104573198    12.000000000000
         C            2.131806921330    -0.996751024593     0.000212273198    12.000000000000
         C            1.360594421330     1.424740675407     0.000185573198    12.000000000000
         C           -0.284190578670    -0.510117324593    -0.000046426802    12.000000000000
         C           -1.515078578670     0.286057675407    -0.000162426802    12.000000000000
         H            2.779043421330    -0.807024324593     0.880718573198     1.007825032230
         H            2.779212421330    -0.807017324593    -0.880167426802     1.007825032230
         H            1.825244421330    -2.020026324593     0.000178573198     1.007825032230
         H            1.975170421330     1.646931675407    -0.879421426802     1.007825032230
         H            1.974912421330     1.646900675407     0.879981573198     1.007825032230
         H            0.509088421330     2.104524675407     0.000072573198     1.007825032230
         H           -0.451808578670    -1.585840324593    -0.000087426802     1.007825032230
         H           -1.417569578670     1.387655675407    -0.000129426802     1.007825032230

  Basis Set: AUG-CC-PVTZ
    Blend: AUG-CC-PVTZ
  Basis Set: (AUG-CC-PVTZ AUX)
    Blend: AUG-CC-PVTZ-JKFIT
	 Reference Energy          =    -268.9356157395079094 [Eh]
	 Singles Energy            =      -0.0000000000000000 [Eh]
	 Same-Spin Energy          =      -0.2712157721654865 [Eh]
	 Opposite-Spin Energy      =      -0.9158807290021760 [Eh]
	 Correlation Energy        =      -1.1870965011676624 [Eh]
	 Total Energy              =    -270.1227122406755825 [Eh]

	 ================> DF-SCS-MP2 Energies <==================
	-----------------------------------------------------------
	 SCS Same-Spin Scale       =       0.3333333333333333 [-]
	 SCS Opposite-Spin Scale   =       1.2000000000000000 [-]
	 SCS Same-Spin Energy      =      -0.0904052573884955 [Eh]
	 SCS Opposite-Spin Energy  =      -1.0990568748026111 [Eh]
	 SCS Correlation Energy    =      -1.1894621321911065 [Eh]
	 SCS Total Energy          =    -270.1250778716990339 [Eh]
	-----------------------------------------------------------

  Dipole Moment: [D]
     X:     4.1223      Y:     0.9744      Z:     0.0005     Total:     4.2359

*** Psi4 exiting successfully. Buy a developer a beer!
