                               Psi4 1.4a3.dev225

  ==> Input File <==

--------------------------------------------------------------------------
#psi4
#
memory 32 gb

molecule  {
0 1
  O       -2.7436610    -0.2479860    -0.0003050
  C        0.8706510    -0.0504500     0.0000920
  C        2.0389000    -0.9960240     0.0002020
  C        1.2510070     1.4052230     0.0001730
  C       -0.3937780    -0.5296350    -0.0000590
  C       -1.6246660     0.2665400    -0.0001750
  H        2.6694560    -0.8265420     0.8807060
  H        2.6696250    -0.8265350    -0.8801800
  H        1.7215748    -2.0204396     0.0001667
  H        1.8655830     1.6274140    -0.8794340
  H        1.8653250     1.6273830     0.8799690
  H        0.3995010     2.0850070     0.0000600
  H       -0.5613960    -1.6053580    -0.0001000
  H       -1.5271570     1.3681380    -0.0001420
units angstrom
no_reorient  #important for SAPT in psi4, default
symmetry c1  #important for SAPT in psi4, default
}

set PROPERTIES_ORIGIN ["COM"]
properties('MP2/aug-cc-pvtz', properties = ['dipole'])
--------------------------------------------------------------------------

    Molecular point group: c1
  Charge       = 0
  Multiplicity = 1
  Basis Set: AUG-CC-PVTZ
    Blend: AUG-CC-PVTZ
  Basis Set: (AUG-CC-PVTZ AUX)
    Blend: AUG-CC-PVTZ-JKFIT

    Orbital Energies [Eh]
    ---------------------

    Doubly Occupied:

       1A    -20.544324     2A    -11.327448     3A    -11.283117
       4A    -11.247216     5A    -11.240875     6A    -11.235797
       7A     -1.367136     8A     -1.124529     9A     -0.986020
      10A     -0.968767    11A     -0.830874    12A     -0.745020
      13A     -0.670294    14A     -0.640632    15A     -0.617439
      16A     -0.600895    17A     -0.560248    18A     -0.559444
      19A     -0.545483    20A     -0.522532    21A     -0.517774
      22A     -0.419030    23A     -0.367437

  @DF-RHF Final Energy:  -268.93637270225065

   => Energetics <=

    Nuclear Repulsion Energy =            216.8016223215345804
    One-Electron Energy =                -793.6313268247339465
    Two-Electron Energy =                 307.8933318009486584
    Total Energy =                       -268.9363727022506509
  Basis Set: (AUG-CC-PVTZ AUX)
    Blend: AUG-CC-PVTZ-RI
    Molecular point group: c1

    Geometry (in Angstrom), charge = 0, multiplicity = 1:

       Center              X                  Y                   Z               Mass
    ------------   -----------------  -----------------  -----------------  -----------------
         O           -2.636525829457    -0.231587501896    -0.000292763541    15.994914619570
         C            0.977786170543    -0.034051501896     0.000104236459    12.000000000000
         C            2.146035170543    -0.979625501896     0.000214236459    12.000000000000
         C            1.358142170543     1.421621498104     0.000185236459    12.000000000000
         C           -0.286642829457    -0.513236501896    -0.000046763541    12.000000000000
         C           -1.517530829457     0.282938498104    -0.000162763541    12.000000000000
         H            2.776591170543    -0.810143501896     0.880718236459     1.007825032230
         H            2.776760170543    -0.810136501896    -0.880167763541     1.007825032230
         H            1.828709970543    -2.004041101896     0.000178936459     1.007825032230
         H            1.972718170543     1.643812498104    -0.879421763541     1.007825032230
         H            1.972460170543     1.643781498104     0.879981236459     1.007825032230
         H            0.506636170543     2.101405498104     0.000072236459     1.007825032230
         H           -0.454260829457    -1.588959501896    -0.000087763541     1.007825032230
         H           -1.420021829457     1.384536498104    -0.000129763541     1.007825032230

  Basis Set: AUG-CC-PVTZ
    Blend: AUG-CC-PVTZ
  Basis Set: (AUG-CC-PVTZ AUX)
    Blend: AUG-CC-PVTZ-JKFIT
	 Reference Energy          =    -268.9363727022506509 [Eh]
	 Singles Energy            =      -0.0000000000000000 [Eh]
	 Same-Spin Energy          =      -0.2711894792979591 [Eh]
	 Opposite-Spin Energy      =      -0.9157534251847204 [Eh]
	 Correlation Energy        =      -1.1869429044826794 [Eh]
	 Total Energy              =    -270.1233156067333425 [Eh]

	 ================> DF-SCS-MP2 Energies <==================
	-----------------------------------------------------------
	 SCS Same-Spin Scale       =       0.3333333333333333 [-]
	 SCS Opposite-Spin Scale   =       1.2000000000000000 [-]
	 SCS Same-Spin Energy      =      -0.0903964930993197 [Eh]
	 SCS Opposite-Spin Energy  =      -1.0989041102216643 [Eh]
	 SCS Correlation Energy    =      -1.1893006033209841 [Eh]
	 SCS Total Energy          =    -270.1256733055716381 [Eh]
	-----------------------------------------------------------

  Dipole Moment: [D]
     X:     4.1152      Y:     0.9665      Z:     0.0005     Total:     4.2272

*** Psi4 exiting successfully. Buy a developer a beer!
