                               Psi4 1.4a3.dev225

  ==> Input File <==

--------------------------------------------------------------------------
#psi4
#
memory 32 gb

molecule  {
0 1
  O       -2.7436610    -0.2479860    -0.0003050
  C        0.8706510    -0.0504500     0.0000920
  C        2.0389000    -0.9960240     0.0002020
  C        1.2510070     1.4052230     0.0001730
  C       -0.5807984    -0.6005108    -0.0000813
  C       -1.6246660     0.2665400    -0.0001750
  H        2.6694560    -0.8265420     0.8807060
  H        2.6696250    -0.8265350    -0.8801800
  H        1.7156570    -2.0395440     0.0001660
  H        1.8655830     1.6274140    -0.8794340
  H        1.8653250     1.6273830     0.8799690
  H        0.3995010     2.0850070     0.0000600
  H       -0.5613960    -1.6053580    -0.0001000
  H       -1.5271570     1.3681380    -0.0001420
units angstrom
no_reorient  #important for SAPT in psi4, default
symmetry c1  #important for SAPT in psi4, default
}

set PROPERTIES_ORIGIN ["COM"]
properties('MP2/aug-cc-pvtz', properties = ['dipole'])
--------------------------------------------------------------------------

    Molecular point group: c1
  Charge       = 0
  Multiplicity = 1
  Basis Set: AUG-CC-PVTZ
    Blend: AUG-CC-PVTZ
  Basis Set: (AUG-CC-PVTZ AUX)
    Blend: AUG-CC-PVTZ-JKFIT

    Orbital Energies [Eh]
    ---------------------

    Doubly Occupied:

       1A    -20.517691     2A    -11.321174     3A    -11.305989
       4A    -11.255947     5A    -11.253947     6A    -11.238597
       7A     -1.354718     8A     -1.111361     9A     -0.998223
      10A     -0.975577    11A     -0.814125    12A     -0.755767
      13A     -0.677936    14A     -0.639971    15A     -0.622716
      16A     -0.594615    17A     -0.579642    18A     -0.569008
      19A     -0.534950    20A     -0.519122    21A     -0.515509
      22A     -0.408812    23A     -0.330402

  @DF-RHF Final Energy:  -268.88056420229071

   => Energetics <=

    Nuclear Repulsion Energy =            215.7700174812501359
    One-Electron Energy =                -791.5095674376647139
    Two-Electron Energy =                 306.8589857541238075
    Total Energy =                       -268.8805642022907136
  Basis Set: (AUG-CC-PVTZ AUX)
    Blend: AUG-CC-PVTZ-RI
    Molecular point group: c1

    Geometry (in Angstrom), charge = 0, multiplicity = 1:

       Center              X                  Y                   Z               Mass
    ------------   -----------------  -----------------  -----------------  -----------------
         O           -2.609755957539    -0.221240259370    -0.000289571614    15.994914619570
         C            1.004556042461    -0.023704259370     0.000107428386    12.000000000000
         C            2.172805042461    -0.969278259370     0.000217428386    12.000000000000
         C            1.384912042461     1.431968740630     0.000188428386    12.000000000000
         C           -0.446893357539    -0.573765059370    -0.000065871614    12.000000000000
         C           -1.490760957539     0.293285740630    -0.000159571614    12.000000000000
         H            2.803361042461    -0.799796259370     0.880721428386     1.007825032230
         H            2.803530042461    -0.799789259370    -0.880164571614     1.007825032230
         H            1.849562042461    -2.012798259370     0.000181428386     1.007825032230
         H            1.999488042461     1.654159740630    -0.879418571614     1.007825032230
         H            1.999230042461     1.654128740630     0.879984428386     1.007825032230
         H            0.533406042461     2.111752740630     0.000075428386     1.007825032230
         H           -0.427490957539    -1.578612259370    -0.000084571614     1.007825032230
         H           -1.393251957539     1.394883740630    -0.000126571614     1.007825032230

  Basis Set: AUG-CC-PVTZ
    Blend: AUG-CC-PVTZ
  Basis Set: (AUG-CC-PVTZ AUX)
    Blend: AUG-CC-PVTZ-JKFIT
	 Reference Energy          =    -268.8805642022907136 [Eh]
	 Singles Energy            =      -0.0000000000000000 [Eh]
	 Same-Spin Energy          =      -0.2748007871911219 [Eh]
	 Opposite-Spin Energy      =      -0.9213119887574792 [Eh]
	 Correlation Energy        =      -1.1961127759486012 [Eh]
	 Total Energy              =    -270.0766769782393339 [Eh]

	 ================> DF-SCS-MP2 Energies <==================
	-----------------------------------------------------------
	 SCS Same-Spin Scale       =       0.3333333333333333 [-]
	 SCS Opposite-Spin Scale   =       1.2000000000000000 [-]
	 SCS Same-Spin Energy      =      -0.0916002623970406 [Eh]
	 SCS Opposite-Spin Energy  =      -1.1055743865089751 [Eh]
	 SCS Correlation Energy    =      -1.1971746489060158 [Eh]
	 SCS Total Energy          =    -270.0777388511967274 [Eh]
	-----------------------------------------------------------

  Dipole Moment: [D]
     X:     4.4658      Y:     0.8870      Z:     0.0005     Total:     4.5530

*** Psi4 exiting successfully. Buy a developer a beer!
