                               Psi4 1.4a3.dev225

  ==> Input File <==

--------------------------------------------------------------------------
#psi4
#
memory 32 gb

molecule  {
0 1
  O       -2.7436610    -0.2479860    -0.0003050
  C        0.8706510    -0.0504500     0.0000920
  C        2.0389000    -0.9960240     0.0002020
  C        1.2459509     1.3858727     0.0001719
  C       -0.3937780    -0.5296350    -0.0000590
  C       -1.6246660     0.2665400    -0.0001750
  H        2.6694560    -0.8265420     0.8807060
  H        2.6696250    -0.8265350    -0.8801800
  H        1.7156570    -2.0395440     0.0001660
  H        1.8655830     1.6274140    -0.8794340
  H        1.8653250     1.6273830     0.8799690
  H        0.3995010     2.0850070     0.0000600
  H       -0.5613960    -1.6053580    -0.0001000
  H       -1.5271570     1.3681380    -0.0001420
units angstrom
no_reorient  #important for SAPT in psi4, default
symmetry c1  #important for SAPT in psi4, default
}

set PROPERTIES_ORIGIN ["COM"]
properties('MP2/aug-cc-pvtz', properties = ['dipole'])
--------------------------------------------------------------------------

    Molecular point group: c1
  Charge       = 0
  Multiplicity = 1
  Basis Set: AUG-CC-PVTZ
    Blend: AUG-CC-PVTZ
  Basis Set: (AUG-CC-PVTZ AUX)
    Blend: AUG-CC-PVTZ-JKFIT

    Orbital Energies [Eh]
    ---------------------

    Doubly Occupied:

       1A    -20.544391     2A    -11.327428     3A    -11.282321
       4A    -11.248083     5A    -11.243149     6A    -11.235960
       7A     -1.367181     8A     -1.126799     9A     -0.986035
      10A     -0.967423    11A     -0.830676    12A     -0.745358
      13A     -0.670767    14A     -0.641284    15A     -0.617196
      16A     -0.600294    17A     -0.558351    18A     -0.557221
      19A     -0.542767    20A     -0.522439    21A     -0.520191
      22A     -0.418984    23A     -0.367094

  @DF-RHF Final Energy:  -268.93561992295031

   => Energetics <=

    Nuclear Repulsion Energy =            216.9992425454164220
    One-Electron Energy =                -794.0269414713458218
    Two-Electron Energy =                 308.0920790029790624
    Total Energy =                       -268.9356199229503090
  Basis Set: (AUG-CC-PVTZ AUX)
    Blend: AUG-CC-PVTZ-RI
    Molecular point group: c1

    Geometry (in Angstrom), charge = 0, multiplicity = 1:

       Center              X                  Y                   Z               Mass
    ------------   -----------------  -----------------  -----------------  -----------------
         O           -2.635733070986    -0.228596008596    -0.000292598113    15.994914619570
         C            0.978578929014    -0.031060008596     0.000104401887    12.000000000000
         C            2.146827929014    -0.976634008596     0.000214401887    12.000000000000
         C            1.353878829014     1.405262691404     0.000184301887    12.000000000000
         C           -0.285850070986    -0.510245008596    -0.000046598113    12.000000000000
         C           -1.516738070986     0.285929991404    -0.000162598113    12.000000000000
         H            2.777383929014    -0.807152008596     0.880718401887     1.007825032230
         H            2.777552929014    -0.807145008596    -0.880167598113     1.007825032230
         H            1.823584929014    -2.020154008596     0.000178401887     1.007825032230
         H            1.973510929014     1.646803991404    -0.879421598113     1.007825032230
         H            1.973252929014     1.646772991404     0.879981401887     1.007825032230
         H            0.507428929014     2.104396991404     0.000072401887     1.007825032230
         H           -0.453468070986    -1.585968008596    -0.000087598113     1.007825032230
         H           -1.419229070986     1.387527991404    -0.000129598113     1.007825032230

  Basis Set: AUG-CC-PVTZ
    Blend: AUG-CC-PVTZ
  Basis Set: (AUG-CC-PVTZ AUX)
    Blend: AUG-CC-PVTZ-JKFIT
	 Reference Energy          =    -268.9356199229503090 [Eh]
	 Singles Energy            =      -0.0000000000000000 [Eh]
	 Same-Spin Energy          =      -0.2714104170693504 [Eh]
	 Opposite-Spin Energy      =      -0.9161057669965890 [Eh]
	 Correlation Energy        =      -1.1875161840659394 [Eh]
	 Total Energy              =    -270.1231361070162507 [Eh]

	 ================> DF-SCS-MP2 Energies <==================
	-----------------------------------------------------------
	 SCS Same-Spin Scale       =       0.3333333333333333 [-]
	 SCS Opposite-Spin Scale   =       1.2000000000000000 [-]
	 SCS Same-Spin Energy      =      -0.0904701390231168 [Eh]
	 SCS Opposite-Spin Energy  =      -1.0993269203959066 [Eh]
	 SCS Correlation Energy    =      -1.1897970594190235 [Eh]
	 SCS Total Energy          =    -270.1254169823693587 [Eh]
	-----------------------------------------------------------

  Dipole Moment: [D]
     X:     4.1158      Y:     0.9876      Z:     0.0005     Total:     4.2326

*** Psi4 exiting successfully. Buy a developer a beer!
