                               Psi4 1.4a3.dev225

  ==> Input File <==

--------------------------------------------------------------------------
#psi4
#
memory 32 gb

molecule  {
0 1
  O       -2.7436610    -0.2479860    -0.0003050
  C        0.8706510    -0.0504500     0.0000920
  C        2.0389000    -0.9960240     0.0002020
  C        1.2510070     1.4052230     0.0001730
  C       -0.3937780    -0.5296350    -0.0000590
  C       -1.6666489     0.2936958    -0.0001790
  H        2.6694560    -0.8265420     0.8807060
  H        2.6696250    -0.8265350    -0.8801800
  H        1.7156570    -2.0395440     0.0001660
  H        1.8655830     1.6274140    -0.8794340
  H        1.8653250     1.6273830     0.8799690
  H        0.3995010     2.0850070     0.0000600
  H       -0.5613960    -1.6053580    -0.0001000
  H       -1.5271570     1.3681380    -0.0001420
units angstrom
no_reorient  #important for SAPT in psi4, default
symmetry c1  #important for SAPT in psi4, default
}

set PROPERTIES_ORIGIN ["COM"]
properties('MP2/aug-cc-pvtz', properties = ['dipole'])
--------------------------------------------------------------------------

    Molecular point group: c1
  Charge       = 0
  Multiplicity = 1
  Basis Set: AUG-CC-PVTZ
    Blend: AUG-CC-PVTZ
  Basis Set: (AUG-CC-PVTZ AUX)
    Blend: AUG-CC-PVTZ-JKFIT

    Orbital Energies [Eh]
    ---------------------

    Doubly Occupied:

       1A    -20.549217     2A    -11.328141     3A    -11.276708
       4A    -11.244966     5A    -11.239901     6A    -11.235529
       7A     -1.387587     8A     -1.118438     9A     -0.975081
      10A     -0.964548    11A     -0.830975    12A     -0.744247
      13A     -0.668855    14A     -0.640827    15A     -0.614537
      16A     -0.608974    17A     -0.557542    18A     -0.556003
      19A     -0.543257    20A     -0.532658    21A     -0.514981
      22A     -0.417067    23A     -0.365258

  @DF-RHF Final Energy:  -268.93681667659865

   => Energetics <=

    Nuclear Repulsion Energy =            216.4732376807266974
    One-Electron Energy =                -792.9895169671633539
    Two-Electron Energy =                 307.5794626098380036
    Total Energy =                       -268.9368166765986530
  Basis Set: (AUG-CC-PVTZ AUX)
    Blend: AUG-CC-PVTZ-RI
    Molecular point group: c1

    Geometry (in Angstrom), charge = 0, multiplicity = 1:

       Center              X                  Y                   Z               Mass
    ------------   -----------------  -----------------  -----------------  -----------------
         O           -2.630461423345    -0.235235191313    -0.000292184111    15.994914619570
         C            0.983850576655    -0.037699191313     0.000104815889    12.000000000000
         C            2.152099576655    -0.983273191313     0.000214815889    12.000000000000
         C            1.364206576655     1.417973808687     0.000185815889    12.000000000000
         C           -0.280578423345    -0.516884191313    -0.000046184111    12.000000000000
         C           -1.553449323345     0.306446608687    -0.000166184111    12.000000000000
         H            2.782655576655    -0.813791191313     0.880718815889     1.007825032230
         H            2.782824576655    -0.813784191313    -0.880167184111     1.007825032230
         H            1.828856576655    -2.026793191313     0.000178815889     1.007825032230
         H            1.978782576655     1.640164808687    -0.879421184111     1.007825032230
         H            1.978524576655     1.640133808687     0.879981815889     1.007825032230
         H            0.512700576655     2.097757808687     0.000072815889     1.007825032230
         H           -0.448196423345    -1.592607191313    -0.000087184111     1.007825032230
         H           -1.413957423345     1.380888808687    -0.000129184111     1.007825032230

  Basis Set: AUG-CC-PVTZ
    Blend: AUG-CC-PVTZ
  Basis Set: (AUG-CC-PVTZ AUX)
    Blend: AUG-CC-PVTZ-JKFIT
	 Reference Energy          =    -268.9368166765986530 [Eh]
	 Singles Energy            =      -0.0000000000000000 [Eh]
	 Same-Spin Energy          =      -0.2700726623844257 [Eh]
	 Opposite-Spin Energy      =      -0.9141717395744361 [Eh]
	 Correlation Energy        =      -1.1842444019588618 [Eh]
	 Total Energy              =    -270.1210610785574886 [Eh]

	 ================> DF-SCS-MP2 Energies <==================
	-----------------------------------------------------------
	 SCS Same-Spin Scale       =       0.3333333333333333 [-]
	 SCS Opposite-Spin Scale   =       1.2000000000000000 [-]
	 SCS Same-Spin Energy      =      -0.0900242207948086 [Eh]
	 SCS Opposite-Spin Energy  =      -1.0970060874893233 [Eh]
	 SCS Correlation Energy    =      -1.1870303082841318 [Eh]
	 SCS Total Energy          =    -270.1238469848827890 [Eh]
	-----------------------------------------------------------

  Dipole Moment: [D]
     X:     3.7758      Y:     1.0547      Z:     0.0004     Total:     3.9204

*** Psi4 exiting successfully. Buy a developer a beer!
