                               Psi4 1.4a3.dev225

  ==> Input File <==

--------------------------------------------------------------------------
#psi4
#
memory 32 gb

molecule  {
0 1
  O       -2.7436610    -0.2479860    -0.0003050
  C        0.8706510    -0.0504500     0.0000920
  C        2.0389000    -0.9960240     0.0002020
  C        1.2510070     1.4052230     0.0001730
  C       -0.3937780    -0.5296350    -0.0000590
  C       -1.6246660     0.2665400    -0.0001750
  H        2.6694560    -0.8265420     0.8807060
  H        2.6696250    -0.8265350    -0.8801800
  H        1.7156570    -2.0395440     0.0001660
  H        1.8655830     1.6274140    -0.8794340
  H        1.8765372     1.6314377     0.8960266
  H        0.3995010     2.0850070     0.0000600
  H       -0.5613960    -1.6053580    -0.0001000
  H       -1.5271570     1.3681380    -0.0001420
units angstrom
no_reorient  #important for SAPT in psi4, default
symmetry c1  #important for SAPT in psi4, default
}

set PROPERTIES_ORIGIN ["COM"]
properties('MP2/aug-cc-pvtz', properties = ['dipole'])
--------------------------------------------------------------------------

    Molecular point group: c1
  Charge       = 0
  Multiplicity = 1
  Basis Set: AUG-CC-PVTZ
    Blend: AUG-CC-PVTZ
  Basis Set: (AUG-CC-PVTZ AUX)
    Blend: AUG-CC-PVTZ-JKFIT

    Orbital Energies [Eh]
    ---------------------

    Doubly Occupied:

       1A    -20.544478     2A    -11.327578     3A    -11.283400
       4A    -11.249745     5A    -11.243206     6A    -11.235999
       7A     -1.367272     8A     -1.124189     9A     -0.985378
      10A     -0.966488    11A     -0.830590    12A     -0.744573
      13A     -0.669246    14A     -0.640556    15A     -0.616364
      16A     -0.600275    17A     -0.559026    18A     -0.557190
      19A     -0.544846    20A     -0.522595    21A     -0.517135
      22A     -0.419181    23A     -0.367471

  @DF-RHF Final Energy:  -268.93579158008970

   => Energetics <=

    Nuclear Repulsion Energy =            216.6372787244858387
    One-Electron Energy =                -793.3125772710704950
    Two-Electron Energy =                 307.7395069664949006
    Total Energy =                       -268.9357915800896990
  Basis Set: (AUG-CC-PVTZ AUX)
    Blend: AUG-CC-PVTZ-RI
    Molecular point group: c1

    Geometry (in Angstrom), charge = 0, multiplicity = 1:

       Center              X                  Y                   Z               Mass
    ------------   -----------------  -----------------  -----------------  -----------------
         O           -2.636589307765    -0.231407060392    -0.000485281078    15.994914619570
         C            0.977722692235    -0.033871060392    -0.000088281078    12.000000000000
         C            2.145971692235    -0.979445060392     0.000021718922    12.000000000000
         C            1.358078692235     1.421801939608    -0.000007281078    12.000000000000
         C           -0.286706307765    -0.513056060392    -0.000239281078    12.000000000000
         C           -1.517594307765     0.283118939608    -0.000355281078    12.000000000000
         H            2.776527692235    -0.809963060392     0.880525718922     1.007825032230
         H            2.776696692235    -0.809956060392    -0.880360281078     1.007825032230
         H            1.822728692235    -2.022965060392    -0.000014281078     1.007825032230
         H            1.972654692235     1.643992939608    -0.879614281078     1.007825032230
         H            1.983608892235     1.648016639608     0.895846318922     1.007825032230
         H            0.506572692235     2.101585939608    -0.000120281078     1.007825032230
         H           -0.454324307765    -1.588779060392    -0.000280281078     1.007825032230
         H           -1.420085307765     1.384716939608    -0.000322281078     1.007825032230

  Basis Set: AUG-CC-PVTZ
    Blend: AUG-CC-PVTZ
  Basis Set: (AUG-CC-PVTZ AUX)
    Blend: AUG-CC-PVTZ-JKFIT
	 Reference Energy          =    -268.9357915800896990 [Eh]
	 Singles Energy            =      -0.0000000000000000 [Eh]
	 Same-Spin Energy          =      -0.2712051665272829 [Eh]
	 Opposite-Spin Energy      =      -0.9160332848340547 [Eh]
	 Correlation Energy        =      -1.1872384513613377 [Eh]
	 Total Energy              =    -270.1230300314510373 [Eh]

	 ================> DF-SCS-MP2 Energies <==================
	-----------------------------------------------------------
	 SCS Same-Spin Scale       =       0.3333333333333333 [-]
	 SCS Opposite-Spin Scale   =       1.2000000000000000 [-]
	 SCS Same-Spin Energy      =      -0.0904017221757610 [Eh]
	 SCS Opposite-Spin Energy  =      -1.0992399418008656 [Eh]
	 SCS Correlation Energy    =      -1.1896416639766265 [Eh]
	 SCS Total Energy          =    -270.1254332440663006 [Eh]
	-----------------------------------------------------------

  Dipole Moment: [D]
     X:     4.1057      Y:     0.9727      Z:    -0.0049     Total:     4.2193

*** Psi4 exiting successfully. Buy a developer a beer!
