                               Psi4 1.4a3.dev225

  ==> Input File <==

--------------------------------------------------------------------------
#psi4
#
memory 32 gb

molecule  {
0 1
  O       -2.7436610    -0.2479860    -0.0003050
  C        0.8706510    -0.0504500     0.0000920
  C        2.0389000    -0.9960240     0.0002020
  C        1.2510070     1.4052230     0.0001730
  C       -0.3937780    -0.5296350    -0.0000590
  C       -1.6246660     0.2665400    -0.0001750
  H        2.6694560    -0.8265420     0.8807060
  H        2.6696250    -0.8265350    -0.8801800
  H        1.7156570    -2.0395440     0.0001660
  H        1.8655830     1.6274140    -0.8794340
  H        1.8653250     1.6273830     0.8799690
  H        0.3995010     2.0850070     0.0000600
  H       -0.5613960    -1.6053580    -0.0001000
  H       -1.5447912     1.1689169    -0.0001480
units angstrom
no_reorient  #important for SAPT in psi4, default
symmetry c1  #important for SAPT in psi4, default
}

set PROPERTIES_ORIGIN ["COM"]
properties('MP2/aug-cc-pvtz', properties = ['dipole'])
--------------------------------------------------------------------------

    Molecular point group: c1
  Charge       = 0
  Multiplicity = 1
  Basis Set: AUG-CC-PVTZ
    Blend: AUG-CC-PVTZ
  Basis Set: (AUG-CC-PVTZ AUX)
    Blend: AUG-CC-PVTZ-JKFIT

    Orbital Energies [Eh]
    ---------------------

    Doubly Occupied:

       1A    -20.541370     2A    -11.303625     3A    -11.281842
       4A    -11.248127     5A    -11.242485     6A    -11.233129
       7A     -1.366185     8A     -1.124204     9A     -0.990529
      10A     -0.967744    11A     -0.866013    12A     -0.763984
      13A     -0.671689    14A     -0.640755    15A     -0.617475
      16A     -0.608131    17A     -0.560302    18A     -0.556522
      19A     -0.545004    20A     -0.520325    21A     -0.516480
      22A     -0.425740    23A     -0.365915

  @DF-RHF Final Energy:  -268.90650378533257

   => Energetics <=

    Nuclear Repulsion Energy =            217.6949828752093197
    One-Electron Energy =                -795.2878250124471151
    Two-Electron Energy =                 308.6863383519051922
    Total Energy =                       -268.9065037853325748
  Basis Set: (AUG-CC-PVTZ AUX)
    Blend: AUG-CC-PVTZ-RI
    Molecular point group: c1

    Geometry (in Angstrom), charge = 0, multiplicity = 1:

       Center              X                  Y                   Z               Mass
    ------------   -----------------  -----------------  -----------------  -----------------
         O           -2.636243447861    -0.228969842970    -0.000292683210    15.994914619570
         C            0.978068552139    -0.031433842970     0.000104316790    12.000000000000
         C            2.146317552139    -0.977007842970     0.000214316790    12.000000000000
         C            1.358424552139     1.424239157030     0.000185316790    12.000000000000
         C           -0.286360447861    -0.510618842970    -0.000046683210    12.000000000000
         C           -1.517248447861     0.285556157030    -0.000162683210    12.000000000000
         H            2.776873552139    -0.807525842970     0.880718316790     1.007825032230
         H            2.777042552139    -0.807518842970    -0.880167683210     1.007825032230
         H            1.823074552139    -2.020527842970     0.000178316790     1.007825032230
         H            1.973000552139     1.646430157030    -0.879421683210     1.007825032230
         H            1.972742552139     1.646399157030     0.879981316790     1.007825032230
         H            0.506918552139     2.104023157030     0.000072316790     1.007825032230
         H           -0.453978447861    -1.586341842970    -0.000087683210     1.007825032230
         H           -1.437373647861     1.187933057030    -0.000135683210     1.007825032230

  Basis Set: AUG-CC-PVTZ
    Blend: AUG-CC-PVTZ
  Basis Set: (AUG-CC-PVTZ AUX)
    Blend: AUG-CC-PVTZ-JKFIT
	 Reference Energy          =    -268.9065037853325748 [Eh]
	 Singles Energy            =      -0.0000000000000000 [Eh]
	 Same-Spin Energy          =      -0.2705658726858637 [Eh]
	 Opposite-Spin Energy      =      -0.9150572080789092 [Eh]
	 Correlation Energy        =      -1.1856230807647730 [Eh]
	 Total Energy              =    -270.0921268660973737 [Eh]

	 ================> DF-SCS-MP2 Energies <==================
	-----------------------------------------------------------
	 SCS Same-Spin Scale       =       0.3333333333333333 [-]
	 SCS Opposite-Spin Scale   =       1.2000000000000000 [-]
	 SCS Same-Spin Energy      =      -0.0901886242286212 [Eh]
	 SCS Opposite-Spin Energy  =      -1.0980686496946910 [Eh]
	 SCS Correlation Energy    =      -1.1882572739233122 [Eh]
	 SCS Total Energy          =    -270.0947610592558590 [Eh]
	-----------------------------------------------------------

  Dipole Moment: [D]
     X:     4.1295      Y:     1.1225      Z:     0.0005     Total:     4.2794

*** Psi4 exiting successfully. Buy a developer a beer!
