                               Psi4 1.4a3.dev225

  ==> Input File <==

--------------------------------------------------------------------------
#psi4
#
memory 32 gb

molecule  {
0 1
  O       -2.7436610    -0.2479860    -0.0003050
  C        0.8706510    -0.0504500     0.0000920
  C        2.0389000    -0.9960240     0.0002020
  C        1.2510070     1.4052230     0.0001730
  C       -0.3937780    -0.5296350    -0.0000590
  C       -1.4567344     0.1579169    -0.0001592
  H        2.6694560    -0.8265420     0.8807060
  H        2.6696250    -0.8265350    -0.8801800
  H        1.7156570    -2.0395440     0.0001660
  H        1.8655830     1.6274140    -0.8794340
  H        1.8653250     1.6273830     0.8799690
  H        0.3995010     2.0850070     0.0000600
  H       -0.5613960    -1.6053580    -0.0001000
  H       -1.5271570     1.3681380    -0.0001420
units angstrom
no_reorient  #important for SAPT in psi4, default
symmetry c1  #important for SAPT in psi4, default
}

set PROPERTIES_ORIGIN ["COM"]
properties('MP2/aug-cc-pvtz', properties = ['dipole'])
--------------------------------------------------------------------------

    Molecular point group: c1
  Charge       = 0
  Multiplicity = 1
  Basis Set: AUG-CC-PVTZ
    Blend: AUG-CC-PVTZ
  Basis Set: (AUG-CC-PVTZ AUX)
    Blend: AUG-CC-PVTZ-JKFIT

    Orbital Energies [Eh]
    ---------------------

    Doubly Occupied:

       1A    -20.518564     2A    -11.319753     3A    -11.315431
       4A    -11.259181     5A    -11.259007     6A    -11.228257
       7A     -1.284628     8A     -1.154228     9A     -1.036342
      10A     -0.982703    11A     -0.846708    12A     -0.737826
      13A     -0.681895    14A     -0.640013    15A     -0.632580
      16A     -0.574268    17A     -0.571958    18A     -0.570119
      19A     -0.537811    20A     -0.516326    21A     -0.501753
      22A     -0.400387    23A     -0.363819

  @DF-RHF Final Energy:  -268.86477596031222

   => Energetics <=

    Nuclear Repulsion Energy =            218.0898008587393520
    One-Electron Energy =                -796.0420394719318438
    Two-Electron Energy =                 309.0874626528803333
    Total Energy =                       -268.8647759603122154
  Basis Set: (AUG-CC-PVTZ AUX)
    Blend: AUG-CC-PVTZ-RI
    Molecular point group: c1

    Geometry (in Angstrom), charge = 0, multiplicity = 1:

       Center              X                  Y                   Z               Mass
    ------------   -----------------  -----------------  -----------------  -----------------
         O           -2.660428690444    -0.215851477645    -0.000295010747    15.994914619570
         C            0.953883309556    -0.018315477645     0.000101989253    12.000000000000
         C            2.122132309556    -0.963889477645     0.000211989253    12.000000000000
         C            1.334239309556     1.437357522355     0.000182989253    12.000000000000
         C           -0.310545690444    -0.497500477645    -0.000049010747    12.000000000000
         C           -1.373502090444     0.190051422355    -0.000149210747    12.000000000000
         H            2.752688309556    -0.794407477645     0.880715989253     1.007825032230
         H            2.752857309556    -0.794400477645    -0.880170010747     1.007825032230
         H            1.798889309556    -2.007409477645     0.000175989253     1.007825032230
         H            1.948815309556     1.659548522355    -0.879424010747     1.007825032230
         H            1.948557309556     1.659517522355     0.879978989253     1.007825032230
         H            0.482733309556     2.117141522355     0.000069989253     1.007825032230
         H           -0.478163690444    -1.573223477645    -0.000090010747     1.007825032230
         H           -1.443924690444     1.400272522355    -0.000132010747     1.007825032230

  Basis Set: AUG-CC-PVTZ
    Blend: AUG-CC-PVTZ
  Basis Set: (AUG-CC-PVTZ AUX)
    Blend: AUG-CC-PVTZ-JKFIT
	 Reference Energy          =    -268.8647759603122154 [Eh]
	 Singles Energy            =      -0.0000000000000000 [Eh]
	 Same-Spin Energy          =      -0.2780170680676076 [Eh]
	 Opposite-Spin Energy      =      -0.9267064712660700 [Eh]
	 Correlation Energy        =      -1.2047235393336777 [Eh]
	 Total Energy              =    -270.0694994996458718 [Eh]

	 ================> DF-SCS-MP2 Energies <==================
	-----------------------------------------------------------
	 SCS Same-Spin Scale       =       0.3333333333333333 [-]
	 SCS Opposite-Spin Scale   =       1.2000000000000000 [-]
	 SCS Same-Spin Energy      =      -0.0926723560225359 [Eh]
	 SCS Opposite-Spin Energy  =      -1.1120477655192840 [Eh]
	 SCS Correlation Energy    =      -1.2047201215418197 [Eh]
	 SCS Total Energy          =    -270.0694960818540267 [Eh]
	-----------------------------------------------------------

  Dipole Moment: [D]
     X:     5.2373      Y:     0.6853      Z:     0.0006     Total:     5.2819

*** Psi4 exiting successfully. Buy a developer a beer!
