                               Psi4 1.4a3.dev225

  ==> Input File <==

--------------------------------------------------------------------------
#psi4
#
memory 32 gb

molecule  {
0 1
  O       -2.7436610    -0.2479860    -0.0003050
  C        0.8706510    -0.0504500     0.0000920
  C        2.0389000    -0.9960240     0.0002020
  C        1.2510070     1.4052230     0.0001730
  C       -0.3937780    -0.5296350    -0.0000590
  C       -1.5338104     0.3083164    -0.0001644
  H        2.6694560    -0.8265420     0.8807060
  H        2.6696250    -0.8265350    -0.8801800
  H        1.7156570    -2.0395440     0.0001660
  H        1.8655830     1.6274140    -0.8794340
  H        1.8653250     1.6273830     0.8799690
  H        0.3995010     2.0850070     0.0000600
  H       -0.5613960    -1.6053580    -0.0001000
  H       -1.5271570     1.3681380    -0.0001420
units angstrom
no_reorient  #important for SAPT in psi4, default
symmetry c1  #important for SAPT in psi4, default
}

set PROPERTIES_ORIGIN ["COM"]
properties('MP2/aug-cc-pvtz', properties = ['dipole'])
--------------------------------------------------------------------------

    Molecular point group: c1
  Charge       = 0
  Multiplicity = 1
  Basis Set: AUG-CC-PVTZ
    Blend: AUG-CC-PVTZ
  Basis Set: (AUG-CC-PVTZ AUX)
    Blend: AUG-CC-PVTZ-JKFIT

    Orbital Energies [Eh]
    ---------------------

    Doubly Occupied:

       1A    -20.534566     2A    -11.329253     3A    -11.291388
       4A    -11.252944     5A    -11.247984     6A    -11.238813
       7A     -1.303704     8A     -1.133772     9A     -0.999686
      10A     -0.973613    11A     -0.842250    12A     -0.753527
      13A     -0.673276    14A     -0.641599    15A     -0.622946
      16A     -0.576702    17A     -0.565554    18A     -0.560258
      19A     -0.543721    20A     -0.521220    21A     -0.492073
      22A     -0.422671    23A     -0.364070

  @DF-RHF Final Energy:  -268.91139452070490

   => Energetics <=

    Nuclear Repulsion Energy =            216.4494497672741318
    One-Electron Energy =                -792.9505079584715759
    Two-Electron Energy =                 307.5896636704925413
    Total Energy =                       -268.9113945207049028
  Basis Set: (AUG-CC-PVTZ AUX)
    Blend: AUG-CC-PVTZ-RI
    Molecular point group: c1

    Geometry (in Angstrom), charge = 0, multiplicity = 1:

       Center              X                  Y                   Z               Mass
    ------------   -----------------  -----------------  -----------------  -----------------
         O           -2.649425367286    -0.237322419329    -0.000294268398    15.994914619570
         C            0.964886632714    -0.039786419329     0.000102731602    12.000000000000
         C            2.133135632714    -0.985360419329     0.000212731602    12.000000000000
         C            1.345242632714     1.415886580671     0.000183731602    12.000000000000
         C           -0.299542367286    -0.518971419329    -0.000048268398    12.000000000000
         C           -1.439574767286     0.318979980671    -0.000153668398    12.000000000000
         H            2.763691632714    -0.815878419329     0.880716731602     1.007825032230
         H            2.763860632714    -0.815871419329    -0.880169268398     1.007825032230
         H            1.809892632714    -2.028880419329     0.000176731602     1.007825032230
         H            1.959818632714     1.638077580671    -0.879423268398     1.007825032230
         H            1.959560632714     1.638046580671     0.879979731602     1.007825032230
         H            0.493736632714     2.095670580671     0.000070731602     1.007825032230
         H           -0.467160367286    -1.594694419329    -0.000089268398     1.007825032230
         H           -1.432921367286     1.378801580671    -0.000131268398     1.007825032230

  Basis Set: AUG-CC-PVTZ
    Blend: AUG-CC-PVTZ
  Basis Set: (AUG-CC-PVTZ AUX)
    Blend: AUG-CC-PVTZ-JKFIT
	 Reference Energy          =    -268.9113945207049028 [Eh]
	 Singles Energy            =      -0.0000000000000000 [Eh]
	 Same-Spin Energy          =      -0.2746552977142085 [Eh]
	 Opposite-Spin Energy      =      -0.9228330273849459 [Eh]
	 Correlation Energy        =      -1.1974883250991544 [Eh]
	 Total Energy              =    -270.1088828458040325 [Eh]

	 ================> DF-SCS-MP2 Energies <==================
	-----------------------------------------------------------
	 SCS Same-Spin Scale       =       0.3333333333333333 [-]
	 SCS Opposite-Spin Scale   =       1.2000000000000000 [-]
	 SCS Same-Spin Energy      =      -0.0915517659047362 [Eh]
	 SCS Opposite-Spin Energy  =      -1.1073996328619351 [Eh]
	 SCS Correlation Energy    =      -1.1989513987666713 [Eh]
	 SCS Total Energy          =    -270.1103459194715697 [Eh]
	-----------------------------------------------------------

  Dipole Moment: [D]
     X:     4.5839      Y:     1.0566      Z:     0.0005     Total:     4.7041

*** Psi4 exiting successfully. Buy a developer a beer!
