                               Psi4 1.4a3.dev225

  ==> Input File <==

--------------------------------------------------------------------------
#psi4
#
memory 32 gb

molecule  {
0 1
  O       -2.7436610    -0.2479860    -0.0003050
  C        0.8706510    -0.0504500     0.0000920
  C        2.0389000    -0.9960240     0.0002020
  C        1.2510070     1.4052230     0.0001730
  C       -0.3002678    -0.4941971    -0.0000478
  C       -1.6246660     0.2665400    -0.0001750
  H        2.6694560    -0.8265420     0.8807060
  H        2.6696250    -0.8265350    -0.8801800
  H        1.7156570    -2.0395440     0.0001660
  H        1.8655830     1.6274140    -0.8794340
  H        1.8653250     1.6273830     0.8799690
  H        0.3995010     2.0850070     0.0000600
  H       -0.5613960    -1.6053580    -0.0001000
  H       -1.5271570     1.3681380    -0.0001420
units angstrom
no_reorient  #important for SAPT in psi4, default
symmetry c1  #important for SAPT in psi4, default
}

set PROPERTIES_ORIGIN ["COM"]
properties('MP2/aug-cc-pvtz', properties = ['dipole'])
--------------------------------------------------------------------------

    Molecular point group: c1
  Charge       = 0
  Multiplicity = 1
  Basis Set: AUG-CC-PVTZ
    Blend: AUG-CC-PVTZ
  Basis Set: (AUG-CC-PVTZ AUX)
    Blend: AUG-CC-PVTZ-JKFIT

    Orbital Energies [Eh]
    ---------------------

    Doubly Occupied:

       1A    -20.555182     2A    -11.336631     3A    -11.260941
       4A    -11.244082     5A    -11.238829     6A    -11.232953
       7A     -1.373033     8A     -1.138472     9A     -0.979792
      10A     -0.965096    11A     -0.840197    12A     -0.736839
      13A     -0.667482    14A     -0.641595    15A     -0.617239
      16A     -0.605695    17A     -0.557127    18A     -0.554500
      19A     -0.542610    20A     -0.524904    21A     -0.508200
      22A     -0.414845    23A     -0.390491

  @DF-RHF Final Energy:  -268.92275316922621

   => Energetics <=

    Nuclear Repulsion Energy =            217.4863576688837270
    One-Electron Energy =                -794.9647553824702300
    Two-Electron Energy =                 308.5556445443602342
    Total Energy =                       -268.9227531692262119
  Basis Set: (AUG-CC-PVTZ AUX)
    Blend: AUG-CC-PVTZ-RI
    Molecular point group: c1

    Geometry (in Angstrom), charge = 0, multiplicity = 1:

       Center              X                  Y                   Z               Mass
    ------------   -----------------  -----------------  -----------------  -----------------
         O           -2.649804336377    -0.236417538901    -0.000294354054    15.994914619570
         C            0.964507663623    -0.038881538901     0.000102645946    12.000000000000
         C            2.132756663623    -0.984455538901     0.000212645946    12.000000000000
         C            1.344863663623     1.416791461099     0.000183645946    12.000000000000
         C           -0.206411136377    -0.482628638901    -0.000037154054    12.000000000000
         C           -1.530809336377     0.278108461099    -0.000164354054    12.000000000000
         H            2.763312663623    -0.814973538901     0.880716645946     1.007825032230
         H            2.763481663623    -0.814966538901    -0.880169354054     1.007825032230
         H            1.809513663623    -2.027975538901     0.000176645946     1.007825032230
         H            1.959439663623     1.638982461099    -0.879423354054     1.007825032230
         H            1.959181663623     1.638951461099     0.879979645946     1.007825032230
         H            0.493357663623     2.096575461099     0.000070645946     1.007825032230
         H           -0.467539336377    -1.593789538901    -0.000089354054     1.007825032230
         H           -1.433300336377     1.379706461099    -0.000131354054     1.007825032230

  Basis Set: AUG-CC-PVTZ
    Blend: AUG-CC-PVTZ
  Basis Set: (AUG-CC-PVTZ AUX)
    Blend: AUG-CC-PVTZ-JKFIT
	 Reference Energy          =    -268.9227531692262119 [Eh]
	 Singles Energy            =      -0.0000000000000000 [Eh]
	 Same-Spin Energy          =      -0.2704539810740242 [Eh]
	 Opposite-Spin Energy      =      -0.9148672568105248 [Eh]
	 Correlation Energy        =      -1.1853212378845490 [Eh]
	 Total Energy              =    -270.1080744071107347 [Eh]

	 ================> DF-SCS-MP2 Energies <==================
	-----------------------------------------------------------
	 SCS Same-Spin Scale       =       0.3333333333333333 [-]
	 SCS Opposite-Spin Scale   =       1.2000000000000000 [-]
	 SCS Same-Spin Energy      =      -0.0901513270246747 [Eh]
	 SCS Opposite-Spin Energy  =      -1.0978407081726298 [Eh]
	 SCS Correlation Energy    =      -1.1879920351973046 [Eh]
	 SCS Total Energy          =    -270.1107452044234947 [Eh]
	-----------------------------------------------------------

  Dipole Moment: [D]
     X:     3.7977      Y:     1.0208      Z:     0.0004     Total:     3.9325

*** Psi4 exiting successfully. Buy a developer a beer!
