                               Psi4 1.4a3.dev225

  ==> Input File <==

--------------------------------------------------------------------------
#psi4
#
memory 32 gb

molecule  {
0 1
  O       -2.7436610    -0.2479860    -0.0003050
  C        0.8706510    -0.0504500     0.0000920
  C        2.0389000    -0.9960240     0.0002020
  C        1.2510070     1.4052230     0.0001730
  C       -0.3937780    -0.5296350    -0.0000590
  C       -1.6064949     0.2748953    -0.0001729
  H        2.6694560    -0.8265420     0.8807060
  H        2.6696250    -0.8265350    -0.8801800
  H        1.7156570    -2.0395440     0.0001660
  H        1.8655830     1.6274140    -0.8794340
  H        1.8653250     1.6273830     0.8799690
  H        0.3995010     2.0850070     0.0000600
  H       -0.5613960    -1.6053580    -0.0001000
  H       -1.5271570     1.3681380    -0.0001420
units angstrom
no_reorient  #important for SAPT in psi4, default
symmetry c1  #important for SAPT in psi4, default
}

set PROPERTIES_ORIGIN ["COM"]
properties('MP2/aug-cc-pvtz', properties = ['dipole'])
--------------------------------------------------------------------------

    Molecular point group: c1
  Charge       = 0
  Multiplicity = 1
  Basis Set: AUG-CC-PVTZ
    Blend: AUG-CC-PVTZ
  Basis Set: (AUG-CC-PVTZ AUX)
    Blend: AUG-CC-PVTZ-JKFIT

    Orbital Energies [Eh]
    ---------------------

    Doubly Occupied:

       1A    -20.542505     2A    -11.327901     3A    -11.284801
       4A    -11.248503     5A    -11.244160     6A    -11.236454
       7A     -1.353428     8A     -1.126194     9A     -0.988541
      10A     -0.968846    11A     -0.833085    12A     -0.746410
      13A     -0.669469    14A     -0.639636    15A     -0.618655
      16A     -0.596096    17A     -0.561442    18A     -0.557420
      19A     -0.546382    20A     -0.517630    21A     -0.515261
      22A     -0.420900    23A     -0.367214

  @DF-RHF Final Energy:  -268.93344160695142

   => Energetics <=

    Nuclear Repulsion Energy =            216.6456414662143004
    One-Electron Energy =                -793.3363016867472197
    Two-Electron Energy =                 307.7572186135814718
    Total Energy =                       -268.9334416069514191
  Basis Set: (AUG-CC-PVTZ AUX)
    Blend: AUG-CC-PVTZ-RI
    Molecular point group: c1

    Geometry (in Angstrom), charge = 0, multiplicity = 1:

       Center              X                  Y                   Z               Mass
    ------------   -----------------  -----------------  -----------------  -----------------
         O           -2.639048972014    -0.232551243300    -0.000293054943    15.994914619570
         C            0.975263027986    -0.035015243300     0.000103945057    12.000000000000
         C            2.143512027986    -0.980589243300     0.000213945057    12.000000000000
         C            1.355619027986     1.420657756700     0.000184945057    12.000000000000
         C           -0.289165972014    -0.514200243300    -0.000047054943    12.000000000000
         C           -1.501882872014     0.290330056700    -0.000160954943    12.000000000000
         H            2.774068027986    -0.811107243300     0.880717945057     1.007825032230
         H            2.774237027986    -0.811100243300    -0.880168054943     1.007825032230
         H            1.820269027986    -2.024109243300     0.000177945057     1.007825032230
         H            1.970195027986     1.642848756700    -0.879422054943     1.007825032230
         H            1.969937027986     1.642817756700     0.879980945057     1.007825032230
         H            0.504113027986     2.100441756700     0.000071945057     1.007825032230
         H           -0.456783972014    -1.589923243300    -0.000088054943     1.007825032230
         H           -1.422544972014     1.383572756700    -0.000130054943     1.007825032230

  Basis Set: AUG-CC-PVTZ
    Blend: AUG-CC-PVTZ
  Basis Set: (AUG-CC-PVTZ AUX)
    Blend: AUG-CC-PVTZ-JKFIT
	 Reference Energy          =    -268.9334416069514191 [Eh]
	 Singles Energy            =      -0.0000000000000000 [Eh]
	 Same-Spin Energy          =      -0.2718322338388715 [Eh]
	 Opposite-Spin Energy      =      -0.9171870321021748 [Eh]
	 Correlation Energy        =      -1.1890192659410463 [Eh]
	 Total Energy              =    -270.1224608728924750 [Eh]

	 ================> DF-SCS-MP2 Energies <==================
	-----------------------------------------------------------
	 SCS Same-Spin Scale       =       0.3333333333333333 [-]
	 SCS Opposite-Spin Scale   =       1.2000000000000000 [-]
	 SCS Same-Spin Energy      =      -0.0906107446129572 [Eh]
	 SCS Opposite-Spin Energy  =      -1.1006244385226096 [Eh]
	 SCS Correlation Energy    =      -1.1912351831355668 [Eh]
	 SCS Total Energy          =    -270.1246767900869941 [Eh]
	-----------------------------------------------------------

  Dipole Moment: [D]
     X:     4.2247      Y:     1.0010      Z:     0.0005     Total:     4.3417

*** Psi4 exiting successfully. Buy a developer a beer!
