                               Psi4 1.4a3.dev225

  ==> Input File <==

--------------------------------------------------------------------------
#psi4
#
memory 32 gb

molecule  {
0 1
  O       -2.7436610    -0.2479860    -0.0003050
  C        0.8706510    -0.0504500     0.0000920
  C        2.0389000    -0.9960240     0.0002020
  C        1.2510070     1.4052230     0.0001730
  C       -0.3937780    -0.5296350    -0.0000590
  C       -1.6246660     0.2665400    -0.0001750
  H        2.6694560    -0.8265420     0.8807060
  H        2.6696250    -0.8265350    -0.8801800
  H        1.7156570    -2.0395440     0.0001660
  H        1.8655830     1.6274140    -0.8794340
  H        1.8653250     1.6273830     0.8799690
  H        0.3995010     2.0850070     0.0000600
  H       -0.5613960    -1.6053580    -0.0001000
  H       -1.5315656     1.3183327    -0.0001435
units angstrom
no_reorient  #important for SAPT in psi4, default
symmetry c1  #important for SAPT in psi4, default
}

set PROPERTIES_ORIGIN ["COM"]
properties('MP2/aug-cc-pvtz', properties = ['dipole'])
--------------------------------------------------------------------------

    Molecular point group: c1
  Charge       = 0
  Multiplicity = 1
  Basis Set: AUG-CC-PVTZ
    Blend: AUG-CC-PVTZ
  Basis Set: (AUG-CC-PVTZ AUX)
    Blend: AUG-CC-PVTZ-JKFIT

    Orbital Energies [Eh]
    ---------------------

    Doubly Occupied:

       1A    -20.543333     2A    -11.321573     3A    -11.282807
       4A    -11.247606     5A    -11.243000     6A    -11.235005
       7A     -1.366624     8A     -1.124218     9A     -0.986280
      10A     -0.967673    11A     -0.836831    12A     -0.750342
      13A     -0.669892    14A     -0.640582    15A     -0.617566
      16A     -0.602764    17A     -0.560389    18A     -0.557044
      19A     -0.545428    20A     -0.521803    21A     -0.516825
      22A     -0.420973    23A     -0.366997

  @DF-RHF Final Energy:  -268.93595628442301

   => Energetics <=

    Nuclear Repulsion Energy =            216.9390858279818417
    One-Electron Energy =                -793.8989770434378670
    Two-Electron Energy =                 308.0239349310330681
    Total Energy =                       -268.9359562844230140
  Basis Set: (AUG-CC-PVTZ AUX)
    Blend: AUG-CC-PVTZ-RI
    Molecular point group: c1

    Geometry (in Angstrom), charge = 0, multiplicity = 1:

       Center              X                  Y                   Z               Mass
    ------------   -----------------  -----------------  -----------------  -----------------
         O           -2.636402018939    -0.230761294736    -0.000292737164    15.994914619570
         C            0.977909981061    -0.033225294736     0.000104262836    12.000000000000
         C            2.146158981061    -0.978799294736     0.000214262836    12.000000000000
         C            1.358265981061     1.422447705264     0.000185262836    12.000000000000
         C           -0.286519018939    -0.512410294736    -0.000046737164    12.000000000000
         C           -1.517407018939     0.283764705264    -0.000162737164    12.000000000000
         H            2.776714981061    -0.809317294736     0.880718262836     1.007825032230
         H            2.776883981061    -0.809310294736    -0.880167737164     1.007825032230
         H            1.822915981061    -2.022319294736     0.000178262836     1.007825032230
         H            1.972841981061     1.644638705264    -0.879421737164     1.007825032230
         H            1.972583981061     1.644607705264     0.879981262836     1.007825032230
         H            0.506759981061     2.102231705264     0.000072262836     1.007825032230
         H           -0.454137018939    -1.588133294736    -0.000087737164     1.007825032230
         H           -1.424306618939     1.335557405264    -0.000131237164     1.007825032230

  Basis Set: AUG-CC-PVTZ
    Blend: AUG-CC-PVTZ
  Basis Set: (AUG-CC-PVTZ AUX)
    Blend: AUG-CC-PVTZ-JKFIT
	 Reference Energy          =    -268.9359562844230140 [Eh]
	 Singles Energy            =      -0.0000000000000000 [Eh]
	 Same-Spin Energy          =      -0.2709796447656279 [Eh]
	 Opposite-Spin Energy      =      -0.9155079320073327 [Eh]
	 Correlation Energy        =      -1.1864875767729606 [Eh]
	 Total Energy              =    -270.1224438611959613 [Eh]

	 ================> DF-SCS-MP2 Energies <==================
	-----------------------------------------------------------
	 SCS Same-Spin Scale       =       0.3333333333333333 [-]
	 SCS Opposite-Spin Scale   =       1.2000000000000000 [-]
	 SCS Same-Spin Energy      =      -0.0903265482552093 [Eh]
	 SCS Opposite-Spin Energy  =      -1.0986095184087992 [Eh]
	 SCS Correlation Energy    =      -1.1889360666640085 [Eh]
	 SCS Total Energy          =    -270.1248923510869986 [Eh]
	-----------------------------------------------------------

  Dipole Moment: [D]
     X:     4.1177      Y:     1.0250      Z:     0.0005     Total:     4.2433

*** Psi4 exiting successfully. Buy a developer a beer!
