                               Psi4 1.4a3.dev225

  ==> Input File <==

--------------------------------------------------------------------------
#psi4
#
memory 32 gb

molecule  {
0 1
  O       -2.7436610    -0.2479860    -0.0003050
  C        0.8706510    -0.0504500     0.0000920
  C        2.0389000    -0.9960240     0.0002020
  C        1.2510070     1.4052230     0.0001730
  C       -0.3937780    -0.5296350    -0.0000590
  C       -1.6246660     0.2665400    -0.0001750
  H        2.6694560    -0.8265420     0.8807060
  H        2.6696250    -0.8265350    -0.8801800
  H        1.7304516    -1.9917829     0.0001676
  H        1.8655830     1.6274140    -0.8794340
  H        1.8653250     1.6273830     0.8799690
  H        0.3995010     2.0850070     0.0000600
  H       -0.5613960    -1.6053580    -0.0001000
  H       -1.5271570     1.3681380    -0.0001420
units angstrom
no_reorient  #important for SAPT in psi4, default
symmetry c1  #important for SAPT in psi4, default
}

set PROPERTIES_ORIGIN ["COM"]
properties('MP2/aug-cc-pvtz', properties = ['dipole'])
--------------------------------------------------------------------------

    Molecular point group: c1
  Charge       = 0
  Multiplicity = 1
  Basis Set: AUG-CC-PVTZ
    Blend: AUG-CC-PVTZ
  Basis Set: (AUG-CC-PVTZ AUX)
    Blend: AUG-CC-PVTZ-JKFIT

    Orbital Energies [Eh]
    ---------------------

    Doubly Occupied:

       1A    -20.544264     2A    -11.327421     3A    -11.282940
       4A    -11.246973     5A    -11.237301     6A    -11.235749
       7A     -1.367089     8A     -1.124854     9A     -0.986705
      10A     -0.970431    11A     -0.831326    12A     -0.745282
      13A     -0.672202    14A     -0.640549    15A     -0.617188
      16A     -0.601640    17A     -0.562631    18A     -0.559994
      19A     -0.545333    20A     -0.522494    21A     -0.518739
      22A     -0.418968    23A     -0.367383

  @DF-RHF Final Energy:  -268.93541162292485

   => Energetics <=

    Nuclear Repulsion Energy =            216.9274993521428030
    One-Electron Energy =                -793.8709115320979208
    Two-Electron Energy =                 308.0080005570302433
    Total Energy =                       -268.9354116229248461
  Basis Set: (AUG-CC-PVTZ AUX)
    Blend: AUG-CC-PVTZ-RI
    Molecular point group: c1

    Geometry (in Angstrom), charge = 0, multiplicity = 1:

       Center              X                  Y                   Z               Mass
    ------------   -----------------  -----------------  -----------------  -----------------
         O           -2.636632259694    -0.231931087352    -0.000292774332    15.994914619570
         C            0.977679740306    -0.034395087352     0.000104225668    12.000000000000
         C            2.145928740306    -0.979969087352     0.000214225668    12.000000000000
         C            1.358035740306     1.421277912648     0.000185225668    12.000000000000
         C           -0.286749259694    -0.513580087352    -0.000046774332    12.000000000000
         C           -1.517637259694     0.282594912648    -0.000162774332    12.000000000000
         H            2.776484740306    -0.810487087352     0.880718225668     1.007825032230
         H            2.776653740306    -0.810480087352    -0.880167774332     1.007825032230
         H            1.837480340306    -1.975727987352     0.000179825668     1.007825032230
         H            1.972611740306     1.643468912648    -0.879421774332     1.007825032230
         H            1.972353740306     1.643437912648     0.879981225668     1.007825032230
         H            0.506529740306     2.101061912648     0.000072225668     1.007825032230
         H           -0.454367259694    -1.589303087352    -0.000087774332     1.007825032230
         H           -1.420128259694     1.384192912648    -0.000129774332     1.007825032230

  Basis Set: AUG-CC-PVTZ
    Blend: AUG-CC-PVTZ
  Basis Set: (AUG-CC-PVTZ AUX)
    Blend: AUG-CC-PVTZ-JKFIT
	 Reference Energy          =    -268.9354116229248461 [Eh]
	 Singles Energy            =      -0.0000000000000000 [Eh]
	 Same-Spin Energy          =      -0.2711727028257284 [Eh]
	 Opposite-Spin Energy      =      -0.9155475633913074 [Eh]
	 Correlation Energy        =      -1.1867202662170357 [Eh]
	 Total Energy              =    -270.1221318891418832 [Eh]

	 ================> DF-SCS-MP2 Energies <==================
	-----------------------------------------------------------
	 SCS Same-Spin Scale       =       0.3333333333333333 [-]
	 SCS Opposite-Spin Scale   =       1.2000000000000000 [-]
	 SCS Same-Spin Energy      =      -0.0903909009419094 [Eh]
	 SCS Opposite-Spin Energy  =      -1.0986570760695689 [Eh]
	 SCS Correlation Energy    =      -1.1890479770114784 [Eh]
	 SCS Total Energy          =    -270.1244595999363014 [Eh]
	-----------------------------------------------------------

  Dipole Moment: [D]
     X:     4.1177      Y:     0.9523      Z:     0.0005     Total:     4.2264

*** Psi4 exiting successfully. Buy a developer a beer!
