                               Psi4 1.4a3.dev225

  ==> Input File <==

--------------------------------------------------------------------------
#psi4
#
memory 32 gb

molecule  {
0 1
  O       -2.7436610    -0.2479860    -0.0003050
  C        0.8706510    -0.0504500     0.0000920
  C        2.0389000    -0.9960240     0.0002020
  C        1.2510070     1.4052230     0.0001730
  C       -0.3937780    -0.5296350    -0.0000590
  C       -1.6246660     0.2665400    -0.0001750
  H        2.6406945    -0.8342726     0.8405436
  H        2.6696250    -0.8265350    -0.8801800
  H        1.7156570    -2.0395440     0.0001660
  H        1.8655830     1.6274140    -0.8794340
  H        1.8653250     1.6273830     0.8799690
  H        0.3995010     2.0850070     0.0000600
  H       -0.5613960    -1.6053580    -0.0001000
  H       -1.5271570     1.3681380    -0.0001420
units angstrom
no_reorient  #important for SAPT in psi4, default
symmetry c1  #important for SAPT in psi4, default
}

set PROPERTIES_ORIGIN ["COM"]
properties('MP2/aug-cc-pvtz', properties = ['dipole'])
--------------------------------------------------------------------------

    Molecular point group: c1
  Charge       = 0
  Multiplicity = 1
  Basis Set: AUG-CC-PVTZ
    Blend: AUG-CC-PVTZ
  Basis Set: (AUG-CC-PVTZ AUX)
    Blend: AUG-CC-PVTZ-JKFIT

    Orbital Energies [Eh]
    ---------------------

    Doubly Occupied:

       1A    -20.544140     2A    -11.327245     3A    -11.282869
       4A    -11.247451     5A    -11.237181     6A    -11.235457
       7A     -1.366960     8A     -1.124832     9A     -0.987326
      10A     -0.969873    11A     -0.831886    12A     -0.744904
      13A     -0.668886    14A     -0.641625    15A     -0.620664
      16A     -0.600288    17A     -0.566106    18A     -0.557699
      19A     -0.545532    20A     -0.522447    21A     -0.516671
      22A     -0.418859    23A     -0.367513

  @DF-RHF Final Energy:  -268.93534424869949

   => Energetics <=

    Nuclear Repulsion Energy =            216.9338981514708280
    One-Electron Energy =                -793.8856517324148854
    Two-Electron Energy =                 308.0164093322446206
    Total Energy =                       -268.9353442486994936
  Basis Set: (AUG-CC-PVTZ AUX)
    Blend: AUG-CC-PVTZ-RI
    Molecular point group: c1

    Geometry (in Angstrom), charge = 0, multiplicity = 1:

       Center              X                  Y                   Z               Mass
    ------------   -----------------  -----------------  -----------------  -----------------
         O           -2.636110034787    -0.231265758090     0.000188780288    15.994914619570
         C            0.978201965213    -0.033729758090     0.000585780288    12.000000000000
         C            2.146450965213    -0.979303758090     0.000695780288    12.000000000000
         C            1.358557965213     1.421943241910     0.000666780288    12.000000000000
         C           -0.286227034787    -0.512914758090     0.000434780288    12.000000000000
         C           -1.517115034787     0.283260241910     0.000318780288    12.000000000000
         H            2.748245465213    -0.817552358090     0.841037380288     1.007825032230
         H            2.777175965213    -0.809814758090    -0.879686219712     1.007825032230
         H            1.823207965213    -2.022823758090     0.000659780288     1.007825032230
         H            1.973133965213     1.644134241910    -0.878940219712     1.007825032230
         H            1.972875965213     1.644103241910     0.880462780288     1.007825032230
         H            0.507051965213     2.101727241910     0.000553780288     1.007825032230
         H           -0.453845034787    -1.588637758090     0.000393780288     1.007825032230
         H           -1.419606034787     1.384858241910     0.000351780288     1.007825032230

  Basis Set: AUG-CC-PVTZ
    Blend: AUG-CC-PVTZ
  Basis Set: (AUG-CC-PVTZ AUX)
    Blend: AUG-CC-PVTZ-JKFIT
	 Reference Energy          =    -268.9353442486994936 [Eh]
	 Singles Energy            =      -0.0000000000000000 [Eh]
	 Same-Spin Energy          =      -0.2712030102858223 [Eh]
	 Opposite-Spin Energy      =      -0.9156318813698662 [Eh]
	 Correlation Energy        =      -1.1868348916556886 [Eh]
	 Total Energy              =    -270.1221791403551720 [Eh]

	 ================> DF-SCS-MP2 Energies <==================
	-----------------------------------------------------------
	 SCS Same-Spin Scale       =       0.3333333333333333 [-]
	 SCS Opposite-Spin Scale   =       1.2000000000000000 [-]
	 SCS Same-Spin Energy      =      -0.0904010034286074 [Eh]
	 SCS Opposite-Spin Energy  =      -1.0987582576438393 [Eh]
	 SCS Correlation Energy    =      -1.1891592610724466 [Eh]
	 SCS Total Energy          =    -270.1245035097719551 [Eh]
	-----------------------------------------------------------

  Dipole Moment: [D]
     X:     4.1337      Y:     0.9787      Z:     0.0135     Total:     4.2480

*** Psi4 exiting successfully. Buy a developer a beer!
