                               Psi4 1.4a3.dev225

  ==> Input File <==

--------------------------------------------------------------------------
#psi4
#
memory 32 gb

molecule  {
0 1
  O       -2.7436610    -0.2479860    -0.0003050
  C        0.8706510    -0.0504500     0.0000920
  C        2.0389000    -0.9960240     0.0002020
  C        1.2510070     1.4052230     0.0001730
  C       -0.3937780    -0.5296350    -0.0000590
  C       -1.7925976     0.3751631    -0.0001908
  H        2.6694560    -0.8265420     0.8807060
  H        2.6696250    -0.8265350    -0.8801800
  H        1.7156570    -2.0395440     0.0001660
  H        1.8655830     1.6274140    -0.8794340
  H        1.8653250     1.6273830     0.8799690
  H        0.3995010     2.0850070     0.0000600
  H       -0.5613960    -1.6053580    -0.0001000
  H       -1.5271570     1.3681380    -0.0001420
units angstrom
no_reorient  #important for SAPT in psi4, default
symmetry c1  #important for SAPT in psi4, default
}

set PROPERTIES_ORIGIN ["COM"]
properties('MP2/aug-cc-pvtz', properties = ['dipole'])
--------------------------------------------------------------------------

    Molecular point group: c1
  Charge       = 0
  Multiplicity = 1
  Basis Set: AUG-CC-PVTZ
    Blend: AUG-CC-PVTZ
  Basis Set: (AUG-CC-PVTZ AUX)
    Blend: AUG-CC-PVTZ-JKFIT

    Orbital Energies [Eh]
    ---------------------

    Doubly Occupied:

       1A    -20.564666     2A    -11.333157     3A    -11.258458
       4A    -11.237973     5A    -11.230019     6A    -11.228031
       7A     -1.447578     8A     -1.102619     9A     -0.955713
      10A     -0.948637    11A     -0.842201    12A     -0.736793
      13A     -0.684926    14A     -0.644436    15A     -0.615232
      16A     -0.605853    17A     -0.569077    18A     -0.556613
      19A     -0.549111    20A     -0.533790    21A     -0.508597
      22A     -0.394947    23A     -0.354394

  @DF-RHF Final Energy:  -268.90696765158958

   => Energetics <=

    Nuclear Repulsion Energy =            215.8390956775545533
    One-Electron Energy =                -791.6864867598441151
    Two-Electron Energy =                 306.9404234306999228
    Total Energy =                       -268.9069676515895821
  Basis Set: (AUG-CC-PVTZ AUX)
    Blend: AUG-CC-PVTZ-RI
    Molecular point group: c1

    Geometry (in Angstrom), charge = 0, multiplicity = 1:

       Center              X                  Y                   Z               Mass
    ------------   -----------------  -----------------  -----------------  -----------------
         O           -2.612481063085    -0.246865413803    -0.000290499550    15.994914619570
         C            1.001830936915    -0.049329413803     0.000106500450    12.000000000000
         C            2.170079936915    -0.994903413803     0.000216500450    12.000000000000
         C            1.382186936915     1.406343586197     0.000187500450    12.000000000000
         C           -0.262598063085    -0.528514413803    -0.000044499550    12.000000000000
         C           -1.661417663085     0.376283686197    -0.000176299550    12.000000000000
         H            2.800635936915    -0.825421413803     0.880720500450     1.007825032230
         H            2.800804936915    -0.825414413803    -0.880165499550     1.007825032230
         H            1.846836936915    -2.038423413803     0.000180500450     1.007825032230
         H            1.996762936915     1.628534586197    -0.879419499550     1.007825032230
         H            1.996504936915     1.628503586197     0.879983500450     1.007825032230
         H            0.530680936915     2.086127586197     0.000074500450     1.007825032230
         H           -0.430216063085    -1.604237413803    -0.000085499550     1.007825032230
         H           -1.395977063085     1.369258586197    -0.000127499550     1.007825032230

  Basis Set: AUG-CC-PVTZ
    Blend: AUG-CC-PVTZ
  Basis Set: (AUG-CC-PVTZ AUX)
    Blend: AUG-CC-PVTZ-JKFIT
	 Reference Energy          =    -268.9069676515895821 [Eh]
	 Singles Energy            =      -0.0000000000000000 [Eh]
	 Same-Spin Energy          =      -0.2682699409735364 [Eh]
	 Opposite-Spin Energy      =      -0.9116829304378493 [Eh]
	 Correlation Energy        =      -1.1799528714113858 [Eh]
	 Total Energy              =    -270.0869205230009698 [Eh]

	 ================> DF-SCS-MP2 Energies <==================
	-----------------------------------------------------------
	 SCS Same-Spin Scale       =       0.3333333333333333 [-]
	 SCS Opposite-Spin Scale   =       1.2000000000000000 [-]
	 SCS Same-Spin Energy      =      -0.0894233136578455 [Eh]
	 SCS Opposite-Spin Energy  =      -1.0940195165254192 [Eh]
	 SCS Correlation Energy    =      -1.1834428301832647 [Eh]
	 SCS Total Energy          =    -270.0904104817728353 [Eh]
	-----------------------------------------------------------

  Dipole Moment: [D]
     X:     2.6474      Y:     1.3222      Z:     0.0003     Total:     2.9593

*** Psi4 exiting successfully. Buy a developer a beer!
