                               Psi4 1.4a3.dev225

  ==> Input File <==

--------------------------------------------------------------------------
#psi4
#
memory 32 gb

molecule  {
0 1
  O       -2.7436610    -0.2479860    -0.0003050
  C        0.8706510    -0.0504500     0.0000920
  C        2.0389000    -0.9960240     0.0002020
  C        1.2257265     1.3084713     0.0001676
  C       -0.3937780    -0.5296350    -0.0000590
  C       -1.6246660     0.2665400    -0.0001750
  H        2.6694560    -0.8265420     0.8807060
  H        2.6696250    -0.8265350    -0.8801800
  H        1.7156570    -2.0395440     0.0001660
  H        1.8655830     1.6274140    -0.8794340
  H        1.8653250     1.6273830     0.8799690
  H        0.3995010     2.0850070     0.0000600
  H       -0.5613960    -1.6053580    -0.0001000
  H       -1.5271570     1.3681380    -0.0001420
units angstrom
no_reorient  #important for SAPT in psi4, default
symmetry c1  #important for SAPT in psi4, default
}

set PROPERTIES_ORIGIN ["COM"]
properties('MP2/aug-cc-pvtz', properties = ['dipole'])
--------------------------------------------------------------------------

    Molecular point group: c1
  Charge       = 0
  Multiplicity = 1
  Basis Set: AUG-CC-PVTZ
    Blend: AUG-CC-PVTZ
  Basis Set: (AUG-CC-PVTZ AUX)
    Blend: AUG-CC-PVTZ-JKFIT

    Orbital Energies [Eh]
    ---------------------

    Doubly Occupied:

       1A    -20.544462     2A    -11.327213     3A    -11.277841
       4A    -11.251865     5A    -11.242843     6A    -11.236549
       7A     -1.367200     8A     -1.138442     9A     -0.987669
      10A     -0.966945    11A     -0.830807    12A     -0.747451
      13A     -0.678387    14A     -0.643671    15A     -0.616576
      16A     -0.600574    17A     -0.557255    18A     -0.549984
      19A     -0.541552    20A     -0.521623    21A     -0.518698
      22A     -0.418380    23A     -0.364883

  @DF-RHF Final Energy:  -268.92389163627422

   => Energetics <=

    Nuclear Repulsion Energy =            218.1611338498605051
    One-Electron Energy =                -796.3083114644663283
    Two-Electron Energy =                 309.2232859783316599
    Total Energy =                       -268.9238916362742202
  Basis Set: (AUG-CC-PVTZ AUX)
    Blend: AUG-CC-PVTZ-RI
    Molecular point group: c1

    Geometry (in Angstrom), charge = 0, multiplicity = 1:

       Center              X                  Y                   Z               Mass
    ------------   -----------------  -----------------  -----------------  -----------------
         O           -2.632845847870    -0.217546231531    -0.000291984248    15.994914619570
         C            0.981466152130    -0.020010231531     0.000105015752    12.000000000000
         C            2.149715152130    -0.965584231531     0.000215015752    12.000000000000
         C            1.336541652130     1.338911068469     0.000180615752    12.000000000000
         C           -0.282962847870    -0.499195231531    -0.000045984248    12.000000000000
         C           -1.513850847870     0.296979768469    -0.000161984248    12.000000000000
         H            2.780271152130    -0.796102231531     0.880719015752     1.007825032230
         H            2.780440152130    -0.796095231531    -0.880166984248     1.007825032230
         H            1.826472152130    -2.009104231531     0.000179015752     1.007825032230
         H            1.976398152130     1.657853768469    -0.879420984248     1.007825032230
         H            1.976140152130     1.657822768469     0.879982015752     1.007825032230
         H            0.510316152130     2.115446768469     0.000073015752     1.007825032230
         H           -0.450580847870    -1.574918231531    -0.000086984248     1.007825032230
         H           -1.416341847870     1.398577768469    -0.000128984248     1.007825032230

  Basis Set: AUG-CC-PVTZ
    Blend: AUG-CC-PVTZ
  Basis Set: (AUG-CC-PVTZ AUX)
    Blend: AUG-CC-PVTZ-JKFIT
	 Reference Energy          =    -268.9238916362742202 [Eh]
	 Singles Energy            =      -0.0000000000000000 [Eh]
	 Same-Spin Energy          =      -0.2726046584999903 [Eh]
	 Opposite-Spin Energy      =      -0.9175128062100285 [Eh]
	 Correlation Energy        =      -1.1901174647100188 [Eh]
	 Total Energy              =    -270.1140091009842195 [Eh]

	 ================> DF-SCS-MP2 Energies <==================
	-----------------------------------------------------------
	 SCS Same-Spin Scale       =       0.3333333333333333 [-]
	 SCS Opposite-Spin Scale   =       1.2000000000000000 [-]
	 SCS Same-Spin Energy      =      -0.0908682194999968 [Eh]
	 SCS Opposite-Spin Energy  =      -1.1010153674520342 [Eh]
	 SCS Correlation Energy    =      -1.1918835869520310 [Eh]
	 SCS Total Energy          =    -270.1157752232262510 [Eh]
	-----------------------------------------------------------

  Dipole Moment: [D]
     X:     4.1267      Y:     1.0312      Z:     0.0005     Total:     4.2536

*** Psi4 exiting successfully. Buy a developer a beer!
