                               Psi4 1.4a3.dev225

  ==> Input File <==

--------------------------------------------------------------------------
#psi4
#
memory 32 gb

molecule  {
0 1
  O       -2.7436610    -0.2479860    -0.0003050
  C        0.8706510    -0.0504500     0.0000920
  C        2.0389000    -0.9960240     0.0002020
  C        1.2510070     1.4052230     0.0001730
  C       -0.3937780    -0.5296350    -0.0000590
  C       -1.6246660     0.2665400    -0.0001750
  H        2.7845020    -0.7956197     1.0413554
  H        2.6696250    -0.8265350    -0.8801800
  H        1.7156570    -2.0395440     0.0001660
  H        1.8655830     1.6274140    -0.8794340
  H        1.8653250     1.6273830     0.8799690
  H        0.3995010     2.0850070     0.0000600
  H       -0.5613960    -1.6053580    -0.0001000
  H       -1.5271570     1.3681380    -0.0001420
units angstrom
no_reorient  #important for SAPT in psi4, default
symmetry c1  #important for SAPT in psi4, default
}

set PROPERTIES_ORIGIN ["COM"]
properties('MP2/aug-cc-pvtz', properties = ['dipole'])
--------------------------------------------------------------------------

    Molecular point group: c1
  Charge       = 0
  Multiplicity = 1
  Basis Set: AUG-CC-PVTZ
    Blend: AUG-CC-PVTZ
  Basis Set: (AUG-CC-PVTZ AUX)
    Blend: AUG-CC-PVTZ-JKFIT

    Orbital Energies [Eh]
    ---------------------

    Doubly Occupied:

       1A    -20.545813     2A    -11.328820     3A    -11.285186
       4A    -11.265496     5A    -11.247240     6A    -11.238119
       7A     -1.368493     8A     -1.124036     9A     -0.983703
      10A     -0.960813    11A     -0.827581    12A     -0.745506
      13A     -0.670595    14A     -0.640496    15A     -0.609868
      16A     -0.601657    17A     -0.561136    18A     -0.546987
      19A     -0.528985    20A     -0.521325    21A     -0.517759
      22A     -0.420403    23A     -0.367434

  @DF-RHF Final Energy:  -268.91651185966225

   => Energetics <=

    Nuclear Repulsion Energy =            215.9837883467155280
    One-Electron Energy =                -791.9856987868108718
    Two-Electron Energy =                 307.0853985804330932
    Total Energy =                       -268.9165118596622506
  Basis Set: (AUG-CC-PVTZ AUX)
    Blend: AUG-CC-PVTZ-RI
    Molecular point group: c1

    Geometry (in Angstrom), charge = 0, multiplicity = 1:

       Center              X                  Y                   Z               Mass
    ------------   -----------------  -----------------  -----------------  -----------------
         O           -2.637834244675    -0.231729195062    -0.002218894494    15.994914619570
         C            0.976477755325    -0.034193195062    -0.001821894494    12.000000000000
         C            2.144726755325    -0.979767195062    -0.001711894494    12.000000000000
         C            1.356833755325     1.421479804938    -0.001740894494    12.000000000000
         C           -0.287951244675    -0.513378195062    -0.001972894494    12.000000000000
         C           -1.518839244675     0.282796804938    -0.002088894494    12.000000000000
         H            2.890328755325    -0.779362895062     1.039441505506     1.007825032230
         H            2.775451755325    -0.810278195062    -0.882093894494     1.007825032230
         H            1.821483755325    -2.023287195062    -0.001747894494     1.007825032230
         H            1.971409755325     1.643670804938    -0.881347894494     1.007825032230
         H            1.971151755325     1.643639804938     0.878055105506     1.007825032230
         H            0.505327755325     2.101263804938    -0.001853894494     1.007825032230
         H           -0.455569244675    -1.589101195062    -0.002013894494     1.007825032230
         H           -1.421330244675     1.384394804938    -0.002055894494     1.007825032230

  Basis Set: AUG-CC-PVTZ
    Blend: AUG-CC-PVTZ
  Basis Set: (AUG-CC-PVTZ AUX)
    Blend: AUG-CC-PVTZ-JKFIT
	 Reference Energy          =    -268.9165118596622506 [Eh]
	 Singles Energy            =      -0.0000000000000000 [Eh]
	 Same-Spin Energy          =      -0.2712442582044996 [Eh]
	 Opposite-Spin Energy      =      -0.9174865942186283 [Eh]
	 Correlation Energy        =      -1.1887308524231279 [Eh]
	 Total Energy              =    -270.1052427120853849 [Eh]

	 ================> DF-SCS-MP2 Energies <==================
	-----------------------------------------------------------
	 SCS Same-Spin Scale       =       0.3333333333333333 [-]
	 SCS Opposite-Spin Scale   =       1.2000000000000000 [-]
	 SCS Same-Spin Energy      =      -0.0904147527348332 [Eh]
	 SCS Opposite-Spin Energy  =      -1.1009839130623540 [Eh]
	 SCS Correlation Energy    =      -1.1913986657971871 [Eh]
	 SCS Total Energy          =    -270.1079105254594310 [Eh]
	-----------------------------------------------------------

  Dipole Moment: [D]
     X:     3.9929      Y:     0.9714      Z:    -0.0768     Total:     4.1101

*** Psi4 exiting successfully. Buy a developer a beer!
