                               Psi4 1.4a3.dev225

  ==> Input File <==

--------------------------------------------------------------------------
#psi4
#
memory 32 gb

molecule  {
0 1
  O       -2.7436610    -0.2479860    -0.0003050
  C        0.8706510    -0.0504500     0.0000920
  C        2.0389000    -0.9960240     0.0002020
  C        1.2510070     1.4052230     0.0001730
  C       -0.3937780    -0.5296350    -0.0000590
  C       -1.6246660     0.2665400    -0.0001750
  H        2.6694560    -0.8265420     0.8807060
  H        2.6696250    -0.8265350    -0.8801800
  H        1.7156570    -2.0395440     0.0001660
  H        1.8655830     1.6274140    -0.8794340
  H        1.8653250     1.6273830     0.8799690
  H        0.3995010     2.0850070     0.0000600
  H       -0.5613960    -1.6053580    -0.0001000
  H       -1.5253936     1.3880601    -0.0001414
units angstrom
no_reorient  #important for SAPT in psi4, default
symmetry c1  #important for SAPT in psi4, default
}

set PROPERTIES_ORIGIN ["COM"]
properties('MP2/aug-cc-pvtz', properties = ['dipole'])
--------------------------------------------------------------------------

    Molecular point group: c1
  Charge       = 0
  Multiplicity = 1
  Basis Set: AUG-CC-PVTZ
    Blend: AUG-CC-PVTZ
  Basis Set: (AUG-CC-PVTZ AUX)
    Blend: AUG-CC-PVTZ-JKFIT

    Orbital Energies [Eh]
    ---------------------

    Doubly Occupied:

       1A    -20.544835     2A    -11.329785     3A    -11.283436
       4A    -11.247295     5A    -11.243332     6A    -11.236193
       7A     -1.367442     8A     -1.124421     9A     -0.985540
      10A     -0.967682    11A     -0.828556    12A     -0.742657
      13A     -0.668796    14A     -0.640765    15A     -0.617645
      16A     -0.599473    17A     -0.560454    18A     -0.557426
      19A     -0.545636    20A     -0.522902    21A     -0.517069
      22A     -0.418261    23A     -0.367689

  @DF-RHF Final Energy:  -268.93558698970014

   => Energetics <=

    Nuclear Repulsion Energy =            216.6368456151784301
    One-Electron Energy =                -793.3102837224525956
    Two-Electron Energy =                 307.7378511175739959
    Total Energy =                       -268.9355869897001412
  Basis Set: (AUG-CC-PVTZ AUX)
    Blend: AUG-CC-PVTZ-RI
    Molecular point group: c1

    Geometry (in Angstrom), charge = 0, multiplicity = 1:

       Center              X                  Y                   Z               Mass
    ------------   -----------------  -----------------  -----------------  -----------------
         O           -2.636476019415    -0.231597305879    -0.000292762342    15.994914619570
         C            0.977835980585    -0.034061305879     0.000104237658    12.000000000000
         C            2.146084980585    -0.979635305879     0.000214237658    12.000000000000
         C            1.358191980585     1.421611694121     0.000185237658    12.000000000000
         C           -0.286593019415    -0.513246305879    -0.000046762342    12.000000000000
         C           -1.517481019415     0.282928694121    -0.000162762342    12.000000000000
         H            2.776640980585    -0.810153305879     0.880718237658     1.007825032230
         H            2.776809980585    -0.810146305879    -0.880167762342     1.007825032230
         H            1.822841980585    -2.023155305879     0.000178237658     1.007825032230
         H            1.972767980585     1.643802694121    -0.879421762342     1.007825032230
         H            1.972509980585     1.643771694121     0.879981237658     1.007825032230
         H            0.506685980585     2.101395694121     0.000072237658     1.007825032230
         H           -0.454211019415    -1.588969305879    -0.000087762342     1.007825032230
         H           -1.418208619415     1.404448794121    -0.000129162342     1.007825032230

  Basis Set: AUG-CC-PVTZ
    Blend: AUG-CC-PVTZ
  Basis Set: (AUG-CC-PVTZ AUX)
    Blend: AUG-CC-PVTZ-JKFIT
	 Reference Energy          =    -268.9355869897001412 [Eh]
	 Singles Energy            =      -0.0000000000000000 [Eh]
	 Same-Spin Energy          =      -0.2713029468130493 [Eh]
	 Opposite-Spin Energy      =      -0.9160991688437299 [Eh]
	 Correlation Energy        =      -1.1874021156567791 [Eh]
	 Total Energy              =    -270.1229891053569077 [Eh]

	 ================> DF-SCS-MP2 Energies <==================
	-----------------------------------------------------------
	 SCS Same-Spin Scale       =       0.3333333333333333 [-]
	 SCS Opposite-Spin Scale   =       1.2000000000000000 [-]
	 SCS Same-Spin Energy      =      -0.0904343156043498 [Eh]
	 SCS Opposite-Spin Energy  =      -1.0993190026124757 [Eh]
	 SCS Correlation Energy    =      -1.1897533182168254 [Eh]
	 SCS Total Energy          =    -270.1253403079169857 [Eh]
	-----------------------------------------------------------

  Dipole Moment: [D]
     X:     4.1118      Y:     0.9550      Z:     0.0005     Total:     4.2213

*** Psi4 exiting successfully. Buy a developer a beer!
