                               Psi4 1.4a3.dev225

  ==> Input File <==

--------------------------------------------------------------------------
#psi4
#
memory 32 gb

molecule  {
0 1
  O       -2.7436610    -0.2479860    -0.0003050
  C        0.8706510    -0.0504500     0.0000920
  C        2.0389000    -0.9960240     0.0002020
  C        1.2510070     1.4052230     0.0001730
  C       -0.4124800    -0.5367226    -0.0000612
  C       -1.6246660     0.2665400    -0.0001750
  H        2.6694560    -0.8265420     0.8807060
  H        2.6696250    -0.8265350    -0.8801800
  H        1.7156570    -2.0395440     0.0001660
  H        1.8655830     1.6274140    -0.8794340
  H        1.8653250     1.6273830     0.8799690
  H        0.3995010     2.0850070     0.0000600
  H       -0.5613960    -1.6053580    -0.0001000
  H       -1.5271570     1.3681380    -0.0001420
units angstrom
no_reorient  #important for SAPT in psi4, default
symmetry c1  #important for SAPT in psi4, default
}

set PROPERTIES_ORIGIN ["COM"]
properties('MP2/aug-cc-pvtz', properties = ['dipole'])
--------------------------------------------------------------------------

    Molecular point group: c1
  Charge       = 0
  Multiplicity = 1
  Basis Set: AUG-CC-PVTZ
    Blend: AUG-CC-PVTZ
  Basis Set: (AUG-CC-PVTZ AUX)
    Blend: AUG-CC-PVTZ-JKFIT

    Orbital Energies [Eh]
    ---------------------

    Doubly Occupied:

       1A    -20.541994     2A    -11.325471     3A    -11.287498
       4A    -11.248157     5A    -11.244221     6A    -11.236261
       7A     -1.365933     8A     -1.122228     9A     -0.987014
      10A     -0.968326    11A     -0.828576    12A     -0.746237
      13A     -0.669542    14A     -0.640705    15A     -0.617919
      16A     -0.599509    17A     -0.561194    18A     -0.559389
      19A     -0.544464    20A     -0.522110    21A     -0.518549
      22A     -0.419055    23A     -0.363250

  @DF-RHF Final Energy:  -268.93503260350951

   => Energetics <=

    Nuclear Repulsion Energy =            216.5939935489472532
    One-Electron Energy =                -793.2228432059798706
    Two-Electron Energy =                 307.6938170535230483
    Total Energy =                       -268.9350326035095122
  Basis Set: (AUG-CC-PVTZ AUX)
    Blend: AUG-CC-PVTZ-RI
    Molecular point group: c1

    Geometry (in Angstrom), charge = 0, multiplicity = 1:

       Center              X                  Y                   Z               Mass
    ------------   -----------------  -----------------  -----------------  -----------------
         O           -2.633784990552    -0.230346624233    -0.000292441078    15.994914619570
         C            0.980527009448    -0.032810624233     0.000104558922    12.000000000000
         C            2.148776009448    -0.978384624233     0.000214558922    12.000000000000
         C            1.360883009448     1.422862375767     0.000185558922    12.000000000000
         C           -0.302603990552    -0.519083224233    -0.000048641078    12.000000000000
         C           -1.514789990552     0.284179375767    -0.000162441078    12.000000000000
         H            2.779332009448    -0.808902624233     0.880718558922     1.007825032230
         H            2.779501009448    -0.808895624233    -0.880167441078     1.007825032230
         H            1.825533009448    -2.021904624233     0.000178558922     1.007825032230
         H            1.975459009448     1.645053375767    -0.879421441078     1.007825032230
         H            1.975201009448     1.645022375767     0.879981558922     1.007825032230
         H            0.509377009448     2.102646375767     0.000072558922     1.007825032230
         H           -0.451519990552    -1.587718624233    -0.000087441078     1.007825032230
         H           -1.417280990552     1.385777375767    -0.000129441078     1.007825032230

  Basis Set: AUG-CC-PVTZ
    Blend: AUG-CC-PVTZ
  Basis Set: (AUG-CC-PVTZ AUX)
    Blend: AUG-CC-PVTZ-JKFIT
	 Reference Energy          =    -268.9350326035095122 [Eh]
	 Singles Energy            =      -0.0000000000000000 [Eh]
	 Same-Spin Energy          =      -0.2714517866116037 [Eh]
	 Opposite-Spin Energy      =      -0.9162692875656538 [Eh]
	 Correlation Energy        =      -1.1877210741772575 [Eh]
	 Total Energy              =    -270.1227536776867737 [Eh]

	 ================> DF-SCS-MP2 Energies <==================
	-----------------------------------------------------------
	 SCS Same-Spin Scale       =       0.3333333333333333 [-]
	 SCS Opposite-Spin Scale   =       1.2000000000000000 [-]
	 SCS Same-Spin Energy      =      -0.0904839288705346 [Eh]
	 SCS Opposite-Spin Energy  =      -1.0995231450787846 [Eh]
	 SCS Correlation Energy    =      -1.1900070739493191 [Eh]
	 SCS Total Energy          =    -270.1250396774588580 [Eh]
	-----------------------------------------------------------

  Dipole Moment: [D]
     X:     4.1716      Y:     0.9689      Z:     0.0005     Total:     4.2827

*** Psi4 exiting successfully. Buy a developer a beer!
