                               Psi4 1.4a3.dev225

  ==> Input File <==

--------------------------------------------------------------------------
#psi4
#
memory 32 gb

molecule  {
0 1
  O       -2.7436610    -0.2479860    -0.0003050
  C        0.8706510    -0.0504500     0.0000920
  C        2.0389000    -0.9960240     0.0002020
  C        1.2636472     1.4535989     0.0001757
  C       -0.3937780    -0.5296350    -0.0000590
  C       -1.6246660     0.2665400    -0.0001750
  H        2.6694560    -0.8265420     0.8807060
  H        2.6696250    -0.8265350    -0.8801800
  H        1.7156570    -2.0395440     0.0001660
  H        1.8655830     1.6274140    -0.8794340
  H        1.8653250     1.6273830     0.8799690
  H        0.3995010     2.0850070     0.0000600
  H       -0.5613960    -1.6053580    -0.0001000
  H       -1.5271570     1.3681380    -0.0001420
units angstrom
no_reorient  #important for SAPT in psi4, default
symmetry c1  #important for SAPT in psi4, default
}

set PROPERTIES_ORIGIN ["COM"]
properties('MP2/aug-cc-pvtz', properties = ['dipole'])
--------------------------------------------------------------------------

    Molecular point group: c1
  Charge       = 0
  Multiplicity = 1
  Basis Set: AUG-CC-PVTZ
    Blend: AUG-CC-PVTZ
  Basis Set: (AUG-CC-PVTZ AUX)
    Blend: AUG-CC-PVTZ-JKFIT

    Orbital Energies [Eh]
    ---------------------

    Doubly Occupied:

       1A    -20.544300     2A    -11.327554     3A    -11.285230
       4A    -11.246162     5A    -11.243437     6A    -11.235547
       7A     -1.367132     8A     -1.118915     9A     -0.984953
      10A     -0.968494    11A     -0.830376    12A     -0.743727
      13A     -0.665668    14A     -0.639194    15A     -0.619144
      16A     -0.601435    17A     -0.565371    18A     -0.558252
      19A     -0.552226    20A     -0.522768    21A     -0.506827
      22A     -0.419216    23A     -0.368203

  @DF-RHF Final Energy:  -268.93473408587465

   => Energetics <=

    Nuclear Repulsion Energy =            216.0403878731518148
    One-Electron Energy =                -792.1219788605839085
    Two-Electron Energy =                 307.1468569015573848
    Total Energy =                       -268.9347340858746520
  Basis Set: (AUG-CC-PVTZ AUX)
    Blend: AUG-CC-PVTZ-RI
    Molecular point group: c1

    Geometry (in Angstrom), charge = 0, multiplicity = 1:

       Center              X                  Y                   Z               Mass
    ------------   -----------------  -----------------  -----------------  -----------------
         O           -2.638259384074    -0.238264559958    -0.000293140599    15.994914619570
         C            0.976052615926    -0.040728559958     0.000103859401    12.000000000000
         C            2.144301615926    -0.986302559958     0.000213859401    12.000000000000
         C            1.369048815926     1.463320340042     0.000187559401    12.000000000000
         C           -0.288376384074    -0.519913559958    -0.000047140599    12.000000000000
         C           -1.519264384074     0.276261440042    -0.000163140599    12.000000000000
         H            2.774857615926    -0.816820559958     0.880717859401     1.007825032230
         H            2.775026615926    -0.816813559958    -0.880168140599     1.007825032230
         H            1.821058615926    -2.029822559958     0.000177859401     1.007825032230
         H            1.970984615926     1.637135440042    -0.879422140599     1.007825032230
         H            1.970726615926     1.637104440042     0.879980859401     1.007825032230
         H            0.504902615926     2.094728440042     0.000071859401     1.007825032230
         H           -0.455994384074    -1.595636559958    -0.000088140599     1.007825032230
         H           -1.421755384074     1.377859440042    -0.000130140599     1.007825032230

  Basis Set: AUG-CC-PVTZ
    Blend: AUG-CC-PVTZ
  Basis Set: (AUG-CC-PVTZ AUX)
    Blend: AUG-CC-PVTZ-JKFIT
	 Reference Energy          =    -268.9347340858746520 [Eh]
	 Singles Energy            =      -0.0000000000000000 [Eh]
	 Same-Spin Energy          =      -0.2708295993239180 [Eh]
	 Opposite-Spin Energy      =      -0.9156502765326786 [Eh]
	 Correlation Energy        =      -1.1864798758565966 [Eh]
	 Total Energy              =    -270.1212139617312573 [Eh]

	 ================> DF-SCS-MP2 Energies <==================
	-----------------------------------------------------------
	 SCS Same-Spin Scale       =       0.3333333333333333 [-]
	 SCS Opposite-Spin Scale   =       1.2000000000000000 [-]
	 SCS Same-Spin Energy      =      -0.0902765331079727 [Eh]
	 SCS Opposite-Spin Energy  =      -1.0987803318392142 [Eh]
	 SCS Correlation Energy    =      -1.1890568649471869 [Eh]
	 SCS Total Energy          =    -270.1237909508218422 [Eh]
	-----------------------------------------------------------

  Dipole Moment: [D]
     X:     4.1081      Y:     0.9492      Z:     0.0005     Total:     4.2164

*** Psi4 exiting successfully. Buy a developer a beer!
