                               Psi4 1.4a3.dev225

  ==> Input File <==

--------------------------------------------------------------------------
#psi4
#
memory 32 gb

molecule  {
0 1
  O       -2.7436610    -0.2479860    -0.0003050
  C        0.8706510    -0.0504500     0.0000920
  C        2.0389000    -0.9960240     0.0002020
  C        1.2510070     1.4052230     0.0001730
  C       -0.3937780    -0.5296350    -0.0000590
  C       -1.6246660     0.2665400    -0.0001750
  H        2.6694560    -0.8265420     0.8807060
  H        2.6696250    -0.8265350    -0.8801800
  H        1.7156570    -2.0395440     0.0001660
  H        1.8655830     1.6274140    -0.8794340
  H        1.9774471     1.6679305     1.0405447
  H        0.3995010     2.0850070     0.0000600
  H       -0.5613960    -1.6053580    -0.0001000
  H       -1.5271570     1.3681380    -0.0001420
units angstrom
no_reorient  #important for SAPT in psi4, default
symmetry c1  #important for SAPT in psi4, default
}

set PROPERTIES_ORIGIN ["COM"]
properties('MP2/aug-cc-pvtz', properties = ['dipole'])
--------------------------------------------------------------------------

    Molecular point group: c1
  Charge       = 0
  Multiplicity = 1
  Basis Set: AUG-CC-PVTZ
    Blend: AUG-CC-PVTZ
  Basis Set: (AUG-CC-PVTZ AUX)
    Blend: AUG-CC-PVTZ-JKFIT

    Orbital Energies [Eh]
    ---------------------

    Doubly Occupied:

       1A    -20.545840     2A    -11.328873     3A    -11.285119
       4A    -11.269476     5A    -11.243065     6A    -11.238041
       7A     -1.368524     8A     -1.123860     9A     -0.984574
      10A     -0.958420    11A     -0.831016    12A     -0.743368
      13A     -0.670799    14A     -0.640894    15A     -0.610559
      16A     -0.598054    17A     -0.558223    18A     -0.553370
      19A     -0.528672    20A     -0.521221    21A     -0.516792
      22A     -0.420476    23A     -0.367474

  @DF-RHF Final Energy:  -268.91646928521823

   => Energetics <=

    Nuclear Repulsion Energy =            215.9685424171792079
    One-Electron Energy =                -791.9566040109936012
    Two-Electron Energy =                 307.0715923085961094
    Total Energy =                       -268.9164692852182270
  Basis Set: (AUG-CC-PVTZ AUX)
    Blend: AUG-CC-PVTZ-RI
    Molecular point group: c1

    Geometry (in Angstrom), charge = 0, multiplicity = 1:

       Center              X                  Y                   Z               Mass
    ------------   -----------------  -----------------  -----------------  -----------------
         O           -2.637799187969    -0.231844598396    -0.002218010853    15.994914619570
         C            0.976512812031    -0.034308598396    -0.001821010853    12.000000000000
         C            2.144761812031    -0.979882598396    -0.001711010853    12.000000000000
         C            1.356868812031     1.421364401604    -0.001740010853    12.000000000000
         C           -0.287916187969    -0.513493598396    -0.001972010853    12.000000000000
         C           -1.518804187969     0.282681401604    -0.002088010853    12.000000000000
         H            2.775317812031    -0.810400598396     0.878792989147     1.007825032230
         H            2.775486812031    -0.810393598396    -0.882093010853     1.007825032230
         H            1.821518812031    -2.023402598396    -0.001747010853     1.007825032230
         H            1.971444812031     1.643555401604    -0.881347010853     1.007825032230
         H            2.083308912031     1.684071901604     1.038631689147     1.007825032230
         H            0.505362812031     2.101148401604    -0.001853010853     1.007825032230
         H           -0.455534187969    -1.589216598396    -0.002013010853     1.007825032230
         H           -1.421295187969     1.384279401604    -0.002055010853     1.007825032230

  Basis Set: AUG-CC-PVTZ
    Blend: AUG-CC-PVTZ
  Basis Set: (AUG-CC-PVTZ AUX)
    Blend: AUG-CC-PVTZ-JKFIT
	 Reference Energy          =    -268.9164692852182270 [Eh]
	 Singles Energy            =      -0.0000000000000000 [Eh]
	 Same-Spin Energy          =      -0.2712438142825924 [Eh]
	 Opposite-Spin Energy      =      -0.9175056847845764 [Eh]
	 Correlation Energy        =      -1.1887494990671688 [Eh]
	 Total Energy              =    -270.1052187842853982 [Eh]

	 ================> DF-SCS-MP2 Energies <==================
	-----------------------------------------------------------
	 SCS Same-Spin Scale       =       0.3333333333333333 [-]
	 SCS Opposite-Spin Scale   =       1.2000000000000000 [-]
	 SCS Same-Spin Energy      =      -0.0904146047608641 [Eh]
	 SCS Opposite-Spin Energy  =      -1.1010068217414917 [Eh]
	 SCS Correlation Energy    =      -1.1914214265023557 [Eh]
	 SCS Total Energy          =    -270.1078907117205858 [Eh]
	-----------------------------------------------------------

  Dipole Moment: [D]
     X:     4.0132      Y:     0.9216      Z:    -0.0701     Total:     4.1182

*** Psi4 exiting successfully. Buy a developer a beer!
