                               Psi4 1.4a3.dev225

  ==> Input File <==

--------------------------------------------------------------------------
#psi4
#
memory 32 gb

molecule  {
0 1
  O       -2.7436610    -0.2479860    -0.0003050
  C        0.8706510    -0.0504500     0.0000920
  C        2.0711884    -0.9546767     0.0002065
  C        1.2510070     1.4052230     0.0001730
  C       -0.3937780    -0.5296350    -0.0000590
  C       -1.6246660     0.2665400    -0.0001750
  H        2.6694560    -0.8265420     0.8807060
  H        2.6696250    -0.8265350    -0.8801800
  H        1.7156570    -2.0395440     0.0001660
  H        1.8655830     1.6274140    -0.8794340
  H        1.8653250     1.6273830     0.8799690
  H        0.3995010     2.0850070     0.0000600
  H       -0.5613960    -1.6053580    -0.0001000
  H       -1.5271570     1.3681380    -0.0001420
units angstrom
no_reorient  #important for SAPT in psi4, default
symmetry c1  #important for SAPT in psi4, default
}

set PROPERTIES_ORIGIN ["COM"]
properties('MP2/aug-cc-pvtz', properties = ['dipole'])
--------------------------------------------------------------------------

    Molecular point group: c1
  Charge       = 0
  Multiplicity = 1
  Basis Set: AUG-CC-PVTZ
    Blend: AUG-CC-PVTZ
  Basis Set: (AUG-CC-PVTZ AUX)
    Blend: AUG-CC-PVTZ-JKFIT

    Orbital Energies [Eh]
    ---------------------

    Doubly Occupied:

       1A    -20.545107     2A    -11.328264     3A    -11.283408
       4A    -11.246261     5A    -11.243237     6A    -11.237035
       7A     -1.367827     8A     -1.124411     9A     -0.987724
      10A     -0.965786    11A     -0.831742    12A     -0.745008
      13A     -0.666690    14A     -0.641329    15A     -0.624265
      16A     -0.599747    17A     -0.567334    18A     -0.554415
      19A     -0.545193    20A     -0.523292    21A     -0.506749
      22A     -0.419978    23A     -0.368956

  @DF-RHF Final Energy:  -268.93316142479148

   => Energetics <=

    Nuclear Repulsion Energy =            216.7047790308013191
    One-Electron Energy =                -793.4283683699165977
    Two-Electron Energy =                 307.7904279143238000
    Total Energy =                       -268.9331614247914786
  Basis Set: (AUG-CC-PVTZ AUX)
    Blend: AUG-CC-PVTZ-RI
    Molecular point group: c1

    Geometry (in Angstrom), charge = 0, multiplicity = 1:

       Center              X                  Y                   Z               Mass
    ------------   -----------------  -----------------  -----------------  -----------------
         O           -2.641064349226    -0.237261161272    -0.000293397566    15.994914619570
         C            0.973247650774    -0.039725161272     0.000103602434    12.000000000000
         C            2.173785050774    -0.943951861272     0.000218102434    12.000000000000
         C            1.353603650774     1.415947838728     0.000184602434    12.000000000000
         C           -0.291181349226    -0.518910161272    -0.000047397566    12.000000000000
         C           -1.522069349226     0.277264838728    -0.000163397566    12.000000000000
         H            2.772052650774    -0.815817161272     0.880717602434     1.007825032230
         H            2.772221650774    -0.815810161272    -0.880168397566     1.007825032230
         H            1.818253650774    -2.028819161272     0.000177602434     1.007825032230
         H            1.968179650774     1.638138838728    -0.879422397566     1.007825032230
         H            1.967921650774     1.638107838728     0.879980602434     1.007825032230
         H            0.502097650774     2.095731838728     0.000071602434     1.007825032230
         H           -0.458799349226    -1.594633161272    -0.000088397566     1.007825032230
         H           -1.424560349226     1.378862838728    -0.000130397566     1.007825032230

  Basis Set: AUG-CC-PVTZ
    Blend: AUG-CC-PVTZ
  Basis Set: (AUG-CC-PVTZ AUX)
    Blend: AUG-CC-PVTZ-JKFIT
	 Reference Energy          =    -268.9331614247914786 [Eh]
	 Singles Energy            =      -0.0000000000000000 [Eh]
	 Same-Spin Energy          =      -0.2712614339991283 [Eh]
	 Opposite-Spin Energy      =      -0.9161837043123247 [Eh]
	 Correlation Energy        =      -1.1874451383114528 [Eh]
	 Total Energy              =    -270.1206065631029105 [Eh]

	 ================> DF-SCS-MP2 Energies <==================
	-----------------------------------------------------------
	 SCS Same-Spin Scale       =       0.3333333333333333 [-]
	 SCS Opposite-Spin Scale   =       1.2000000000000000 [-]
	 SCS Same-Spin Energy      =      -0.0904204779997094 [Eh]
	 SCS Opposite-Spin Energy  =      -1.0994204451747895 [Eh]
	 SCS Correlation Energy    =      -1.1898409231744989 [Eh]
	 SCS Total Energy          =    -270.1230023479659508 [Eh]
	-----------------------------------------------------------

  Dipole Moment: [D]
     X:     4.0926      Y:     0.9881      Z:     0.0005     Total:     4.2102

*** Psi4 exiting successfully. Buy a developer a beer!
