                               Psi4 1.4a3.dev225

  ==> Input File <==

--------------------------------------------------------------------------
#psi4
#
memory 32 gb

molecule  {
0 1
  O       -2.7436610    -0.2479860    -0.0003050
  C        0.8706510    -0.0504500     0.0000920
  C        2.0389000    -0.9960240     0.0002020
  C        1.2510070     1.4052230     0.0001730
  C       -0.3937780    -0.5296350    -0.0000590
  C       -1.6246660     0.2665400    -0.0001750
  H        2.6694560    -0.8265420     0.8807060
  H        2.6696250    -0.8265350    -0.8801800
  H        1.6564787    -2.2305883     0.0001594
  H        1.8655830     1.6274140    -0.8794340
  H        1.8653250     1.6273830     0.8799690
  H        0.3995010     2.0850070     0.0000600
  H       -0.5613960    -1.6053580    -0.0001000
  H       -1.5271570     1.3681380    -0.0001420
units angstrom
no_reorient  #important for SAPT in psi4, default
symmetry c1  #important for SAPT in psi4, default
}

set PROPERTIES_ORIGIN ["COM"]
properties('MP2/aug-cc-pvtz', properties = ['dipole'])
--------------------------------------------------------------------------

    Molecular point group: c1
  Charge       = 0
  Multiplicity = 1
  Basis Set: AUG-CC-PVTZ
    Blend: AUG-CC-PVTZ
  Basis Set: (AUG-CC-PVTZ AUX)
    Blend: AUG-CC-PVTZ-JKFIT

    Orbital Energies [Eh]
    ---------------------

    Doubly Occupied:

       1A    -20.545026     2A    -11.327873     3A    -11.284904
       4A    -11.265163     5A    -11.249507     6A    -11.236480
       7A     -1.367703     8A     -1.123891     9A     -0.985173
      10A     -0.959596    11A     -0.829145    12A     -0.744162
      13A     -0.661446    14A     -0.641517    15A     -0.620060
      16A     -0.598531    17A     -0.563000    18A     -0.548195
      19A     -0.540133    20A     -0.523015    21A     -0.499305
      22A     -0.419721    23A     -0.368156

  @DF-RHF Final Energy:  -268.91558358832111

   => Energetics <=

    Nuclear Repulsion Energy =            216.0084075715252538
    One-Electron Energy =                -792.0445765310510069
    Two-Electron Energy =                 307.1205853712046405
    Total Energy =                       -268.9155835883211125
  Basis Set: (AUG-CC-PVTZ AUX)
    Blend: AUG-CC-PVTZ-RI
    Molecular point group: c1

    Geometry (in Angstrom), charge = 0, multiplicity = 1:

       Center              X                  Y                   Z               Mass
    ------------   -----------------  -----------------  -----------------  -----------------
         O           -2.635745346246    -0.229067880412    -0.000292676016    15.994914619570
         C            0.978566653754    -0.031531880412     0.000104323984    12.000000000000
         C            2.146815653754    -0.977105880412     0.000214323984    12.000000000000
         C            1.358922653754     1.424141119588     0.000185323984    12.000000000000
         C           -0.285862346246    -0.510716880412    -0.000046676016    12.000000000000
         C           -1.516750346246     0.285458119588    -0.000162676016    12.000000000000
         H            2.777371653754    -0.807623880412     0.880718323984     1.007825032230
         H            2.777540653754    -0.807616880412    -0.880167676016     1.007825032230
         H            1.764394353754    -2.211670180412     0.000171723984     1.007825032230
         H            1.973498653754     1.646332119588    -0.879421676016     1.007825032230
         H            1.973240653754     1.646301119588     0.879981323984     1.007825032230
         H            0.507416653754     2.103925119588     0.000072323984     1.007825032230
         H           -0.453480346246    -1.586439880412    -0.000087676016     1.007825032230
         H           -1.419241346246     1.387056119588    -0.000129676016     1.007825032230

  Basis Set: AUG-CC-PVTZ
    Blend: AUG-CC-PVTZ
  Basis Set: (AUG-CC-PVTZ AUX)
    Blend: AUG-CC-PVTZ-JKFIT
	 Reference Energy          =    -268.9155835883211125 [Eh]
	 Singles Energy            =      -0.0000000000000000 [Eh]
	 Same-Spin Energy          =      -0.2713829223032739 [Eh]
	 Opposite-Spin Energy      =      -0.9178681218717755 [Eh]
	 Correlation Energy        =      -1.1892510441750495 [Eh]
	 Total Energy              =    -270.1048346324961358 [Eh]

	 ================> DF-SCS-MP2 Energies <==================
	-----------------------------------------------------------
	 SCS Same-Spin Scale       =       0.3333333333333333 [-]
	 SCS Opposite-Spin Scale   =       1.2000000000000000 [-]
	 SCS Same-Spin Energy      =      -0.0904609741010913 [Eh]
	 SCS Opposite-Spin Energy  =      -1.1014417462461306 [Eh]
	 SCS Correlation Energy    =      -1.1919027203472219 [Eh]
	 SCS Total Energy          =    -270.1074863086683422 [Eh]
	-----------------------------------------------------------

  Dipole Moment: [D]
     X:     4.0948      Y:     1.1076      Z:     0.0005     Total:     4.2420

*** Psi4 exiting successfully. Buy a developer a beer!
