                               Psi4 1.4a3.dev225

  ==> Input File <==

--------------------------------------------------------------------------
#psi4
#
memory 32 gb

molecule  {
0 1
  O       -2.7436610    -0.2479860    -0.0003050
  C        0.8706510    -0.0504500     0.0000920
  C        2.0389000    -0.9960240     0.0002020
  C        1.2510070     1.4052230     0.0001730
  C       -0.3937780    -0.5296350    -0.0000590
  C       -1.5826831     0.2393842    -0.0001710
  H        2.6694560    -0.8265420     0.8807060
  H        2.6696250    -0.8265350    -0.8801800
  H        1.7156570    -2.0395440     0.0001660
  H        1.8655830     1.6274140    -0.8794340
  H        1.8653250     1.6273830     0.8799690
  H        0.3995010     2.0850070     0.0000600
  H       -0.5613960    -1.6053580    -0.0001000
  H       -1.5271570     1.3681380    -0.0001420
units angstrom
no_reorient  #important for SAPT in psi4, default
symmetry c1  #important for SAPT in psi4, default
}

set PROPERTIES_ORIGIN ["COM"]
properties('MP2/aug-cc-pvtz', properties = ['dipole'])
--------------------------------------------------------------------------

    Molecular point group: c1
  Charge       = 0
  Multiplicity = 1
  Basis Set: AUG-CC-PVTZ
    Blend: AUG-CC-PVTZ
  Basis Set: (AUG-CC-PVTZ AUX)
    Blend: AUG-CC-PVTZ-JKFIT

    Orbital Energies [Eh]
    ---------------------

    Doubly Occupied:

       1A    -20.539141     2A    -11.326682     3A    -11.290251
       4A    -11.249962     5A    -11.246727     6A    -11.235176
       7A     -1.346545     8A     -1.130826     9A     -0.997300
      10A     -0.970979    11A     -0.832237    12A     -0.744179
      13A     -0.671118    14A     -0.641127    15A     -0.620897
      16A     -0.589783    17A     -0.563487    18A     -0.559576
      19A     -0.546960    20A     -0.519151    21A     -0.513978
      22A     -0.418217    23A     -0.368712

  @DF-RHF Final Energy:  -268.92954952994336

   => Energetics <=

    Nuclear Repulsion Energy =            216.9982882886230016
    One-Electron Energy =                -794.0096555758328805
    Two-Electron Energy =                 308.0818177572664922
    Total Energy =                       -268.9295495299433583
  Basis Set: (AUG-CC-PVTZ AUX)
    Blend: AUG-CC-PVTZ-RI
    Molecular point group: c1

    Geometry (in Angstrom), charge = 0, multiplicity = 1:

       Center              X                  Y                   Z               Mass
    ------------   -----------------  -----------------  -----------------  -----------------
         O           -2.642448330184    -0.227481700135    -0.000293326186    15.994914619570
         C            0.971863669816    -0.029945700135     0.000103673814    12.000000000000
         C            2.140112669816    -0.975519700135     0.000213673814    12.000000000000
         C            1.352219669816     1.425727299865     0.000184673814    12.000000000000
         C           -0.292565330184    -0.509130700135    -0.000047326186    12.000000000000
         C           -1.481470430184     0.259888499865    -0.000159326186    12.000000000000
         H            2.770668669816    -0.806037700135     0.880717673814     1.007825032230
         H            2.770837669816    -0.806030700135    -0.880168326186     1.007825032230
         H            1.816869669816    -2.019039700135     0.000177673814     1.007825032230
         H            1.966795669816     1.647918299865    -0.879422326186     1.007825032230
         H            1.966537669816     1.647887299865     0.879980673814     1.007825032230
         H            0.500713669816     2.105511299865     0.000071673814     1.007825032230
         H           -0.460183330184    -1.584853700135    -0.000088326186     1.007825032230
         H           -1.425944330184     1.388642299865    -0.000130326186     1.007825032230

  Basis Set: AUG-CC-PVTZ
    Blend: AUG-CC-PVTZ
  Basis Set: (AUG-CC-PVTZ AUX)
    Blend: AUG-CC-PVTZ-JKFIT
	 Reference Energy          =    -268.9295495299433583 [Eh]
	 Singles Energy            =      -0.0000000000000000 [Eh]
	 Same-Spin Energy          =      -0.2725938568217496 [Eh]
	 Opposite-Spin Energy      =      -0.9180827973496274 [Eh]
	 Correlation Energy        =      -1.1906766541713769 [Eh]
	 Total Energy              =    -270.1202261841147561 [Eh]

	 ================> DF-SCS-MP2 Energies <==================
	-----------------------------------------------------------
	 SCS Same-Spin Scale       =       0.3333333333333333 [-]
	 SCS Opposite-Spin Scale   =       1.2000000000000000 [-]
	 SCS Same-Spin Energy      =      -0.0908646189405832 [Eh]
	 SCS Opposite-Spin Energy  =      -1.1016993568195528 [Eh]
	 SCS Correlation Energy    =      -1.1925639757601361 [Eh]
	 SCS Total Energy          =    -270.1221135057035099 [Eh]
	-----------------------------------------------------------

  Dipole Moment: [D]
     X:     4.4333      Y:     0.9019      Z:     0.0005     Total:     4.5241

*** Psi4 exiting successfully. Buy a developer a beer!
