                               Psi4 1.4a3.dev225

  ==> Input File <==

--------------------------------------------------------------------------
#psi4
#
memory 32 gb

molecule  {
0 1
  O       -2.7436610    -0.2479860    -0.0003050
  C        0.8706510    -0.0504500     0.0000920
  C        2.0389000    -0.9960240     0.0002020
  C        1.3015679     1.5987265     0.0001838
  C       -0.3937780    -0.5296350    -0.0000590
  C       -1.6246660     0.2665400    -0.0001750
  H        2.6694560    -0.8265420     0.8807060
  H        2.6696250    -0.8265350    -0.8801800
  H        1.7156570    -2.0395440     0.0001660
  H        1.8655830     1.6274140    -0.8794340
  H        1.8653250     1.6273830     0.8799690
  H        0.3995010     2.0850070     0.0000600
  H       -0.5613960    -1.6053580    -0.0001000
  H       -1.5271570     1.3681380    -0.0001420
units angstrom
no_reorient  #important for SAPT in psi4, default
symmetry c1  #important for SAPT in psi4, default
}

set PROPERTIES_ORIGIN ["COM"]
properties('MP2/aug-cc-pvtz', properties = ['dipole'])
--------------------------------------------------------------------------

    Molecular point group: c1
  Charge       = 0
  Multiplicity = 1
  Basis Set: AUG-CC-PVTZ
    Blend: AUG-CC-PVTZ
  Basis Set: (AUG-CC-PVTZ AUX)
    Blend: AUG-CC-PVTZ-JKFIT

    Orbital Energies [Eh]
    ---------------------

    Doubly Occupied:

       1A    -20.544044     2A    -11.327666     3A    -11.288886
       4A    -11.247343     5A    -11.244031     6A    -11.234864
       7A     -1.366955     8A     -1.107115     9A     -0.983576
      10A     -0.971698    11A     -0.829556    12A     -0.741157
      13A     -0.661423    14A     -0.634758    15A     -0.626686
      16A     -0.608912    17A     -0.576167    18A     -0.570199
      19A     -0.555511    20A     -0.522923    21A     -0.469304
      22A     -0.418848    23A     -0.369018

  @DF-RHF Final Energy:  -268.90916717609014

   => Energetics <=

    Nuclear Repulsion Energy =            214.1038325411261383
    One-Electron Energy =                -788.2247213464759170
    Two-Electron Energy =                 305.2117216292596140
    Total Energy =                       -268.9091671760901363
  Basis Set: (AUG-CC-PVTZ AUX)
    Blend: AUG-CC-PVTZ-RI
    Molecular point group: c1

    Geometry (in Angstrom), charge = 0, multiplicity = 1:

       Center              X                  Y                   Z               Mass
    ------------   -----------------  -----------------  -----------------  -----------------
         O           -2.643672920278    -0.258982888386    -0.000294296950    15.994914619570
         C            0.970639079722    -0.061446888386     0.000102703050    12.000000000000
         C            2.138888079722    -1.007020888386     0.000212703050    12.000000000000
         C            1.401555979722     1.587729611614     0.000194503050    12.000000000000
         C           -0.293789920278    -0.540631888386    -0.000048296950    12.000000000000
         C           -1.524677920278     0.255543111614    -0.000164296950    12.000000000000
         H            2.769444079722    -0.837538888386     0.880716703050     1.007825032230
         H            2.769613079722    -0.837531888386    -0.880169296950     1.007825032230
         H            1.815645079722    -2.050540888386     0.000176703050     1.007825032230
         H            1.965571079722     1.616417111614    -0.879423296950     1.007825032230
         H            1.965313079722     1.616386111614     0.879979703050     1.007825032230
         H            0.499489079722     2.074010111614     0.000070703050     1.007825032230
         H           -0.461407920278    -1.616354888386    -0.000089296950     1.007825032230
         H           -1.427168920278     1.357141111614    -0.000131296950     1.007825032230

  Basis Set: AUG-CC-PVTZ
    Blend: AUG-CC-PVTZ
  Basis Set: (AUG-CC-PVTZ AUX)
    Blend: AUG-CC-PVTZ-JKFIT
	 Reference Energy          =    -268.9091671760901363 [Eh]
	 Singles Energy            =      -0.0000000000000000 [Eh]
	 Same-Spin Energy          =      -0.2707898466075176 [Eh]
	 Opposite-Spin Energy      =      -0.9167929826467280 [Eh]
	 Correlation Energy        =      -1.1875828292542456 [Eh]
	 Total Energy              =    -270.0967500053444041 [Eh]

	 ================> DF-SCS-MP2 Energies <==================
	-----------------------------------------------------------
	 SCS Same-Spin Scale       =       0.3333333333333333 [-]
	 SCS Opposite-Spin Scale   =       1.2000000000000000 [-]
	 SCS Same-Spin Energy      =      -0.0902632822025059 [Eh]
	 SCS Opposite-Spin Energy  =      -1.1001515791760736 [Eh]
	 SCS Correlation Energy    =      -1.1904148613785794 [Eh]
	 SCS Total Energy          =    -270.0995820374687355 [Eh]
	-----------------------------------------------------------

  Dipole Moment: [D]
     X:     4.0874      Y:     0.8534      Z:     0.0005     Total:     4.1756

*** Psi4 exiting successfully. Buy a developer a beer!
