                               Psi4 1.4a3.dev225

  ==> Input File <==

--------------------------------------------------------------------------
#psi4
#
memory 32 gb

molecule  {
0 1
  O       -2.7436610    -0.2479860    -0.0003050
  C        0.8706510    -0.0504500     0.0000920
  C        2.0389000    -0.9960240     0.0002020
  C        1.2510070     1.4052230     0.0001730
  C       -0.3937780    -0.5296350    -0.0000590
  C       -1.6246660     0.2665400    -0.0001750
  H        2.6694560    -0.8265420     0.8807060
  H        2.6696250    -0.8265350    -0.8801800
  H        1.7008624    -2.0873051     0.0001644
  H        1.8655830     1.6274140    -0.8794340
  H        1.8653250     1.6273830     0.8799690
  H        0.3995010     2.0850070     0.0000600
  H       -0.5613960    -1.6053580    -0.0001000
  H       -1.5271570     1.3681380    -0.0001420
units angstrom
no_reorient  #important for SAPT in psi4, default
symmetry c1  #important for SAPT in psi4, default
}

set PROPERTIES_ORIGIN ["COM"]
properties('MP2/aug-cc-pvtz', properties = ['dipole'])
--------------------------------------------------------------------------

    Molecular point group: c1
  Charge       = 0
  Multiplicity = 1
  Basis Set: AUG-CC-PVTZ
    Blend: AUG-CC-PVTZ
  Basis Set: (AUG-CC-PVTZ AUX)
    Blend: AUG-CC-PVTZ-JKFIT

    Orbital Energies [Eh]
    ---------------------

    Doubly Occupied:

       1A    -20.544495     2A    -11.327539     3A    -11.283594
       4A    -11.249006     5A    -11.247850     6A    -11.235949
       7A     -1.367272     8A     -1.124026     9A     -0.985206
      10A     -0.965120    11A     -0.830032    12A     -0.744559
      13A     -0.666556    14A     -0.640861    15A     -0.618124
      16A     -0.599625    17A     -0.560957    18A     -0.552257
      19A     -0.545696    20A     -0.522646    21A     -0.514417
      22A     -0.419204    23A     -0.367601

  @DF-RHF Final Energy:  -268.93407913381628

   => Energetics <=

    Nuclear Repulsion Energy =            216.5264555553806360
    One-Electron Energy =                -793.0958832550628586
    Two-Electron Energy =                 307.6353485658659679
    Total Energy =                       -268.9340791338162830
  Basis Set: (AUG-CC-PVTZ AUX)
    Blend: AUG-CC-PVTZ-RI
    Molecular point group: c1

    Geometry (in Angstrom), charge = 0, multiplicity = 1:

       Center              X                  Y                   Z               Mass
    ------------   -----------------  -----------------  -----------------  -----------------
         O           -2.636277493835    -0.230785804096    -0.000292735965    15.994914619570
         C            0.978034506165    -0.033249804096     0.000104264035    12.000000000000
         C            2.146283506165    -0.978823804096     0.000214264035    12.000000000000
         C            1.358390506165     1.422423195904     0.000185264035    12.000000000000
         C           -0.286394493835    -0.512434804096    -0.000046735965    12.000000000000
         C           -1.517282493835     0.283740195904    -0.000162735965    12.000000000000
         H            2.776839506165    -0.809341804096     0.880718264035     1.007825032230
         H            2.777008506165    -0.809334804096    -0.880167735965     1.007825032230
         H            1.808245906165    -2.070104904096     0.000176664035     1.007825032230
         H            1.972966506165     1.644614195904    -0.879421735965     1.007825032230
         H            1.972708506165     1.644583195904     0.879981264035     1.007825032230
         H            0.506884506165     2.102207195904     0.000072264035     1.007825032230
         H           -0.454012493835    -1.588157804096    -0.000087735965     1.007825032230
         H           -1.419773493835     1.385338195904    -0.000129735965     1.007825032230

  Basis Set: AUG-CC-PVTZ
    Blend: AUG-CC-PVTZ
  Basis Set: (AUG-CC-PVTZ AUX)
    Blend: AUG-CC-PVTZ-JKFIT
	 Reference Energy          =    -268.9340791338162830 [Eh]
	 Singles Energy            =      -0.0000000000000000 [Eh]
	 Same-Spin Energy          =      -0.2712430189231227 [Eh]
	 Opposite-Spin Energy      =      -0.9163292359800522 [Eh]
	 Correlation Energy        =      -1.1875722549031749 [Eh]
	 Total Energy              =    -270.1216513887194424 [Eh]

	 ================> DF-SCS-MP2 Energies <==================
	-----------------------------------------------------------
	 SCS Same-Spin Scale       =       0.3333333333333333 [-]
	 SCS Opposite-Spin Scale   =       1.2000000000000000 [-]
	 SCS Same-Spin Energy      =      -0.0904143396410409 [Eh]
	 SCS Opposite-Spin Energy  =      -1.0995950831760626 [Eh]
	 SCS Correlation Energy    =      -1.1900094228171034 [Eh]
	 SCS Total Energy          =    -270.1240885566334100 [Eh]
	-----------------------------------------------------------

  Dipole Moment: [D]
     X:     4.1091      Y:     1.0046      Z:     0.0005     Total:     4.2301

*** Psi4 exiting successfully. Buy a developer a beer!
