                               Psi4 1.4a3.dev225

  ==> Input File <==

--------------------------------------------------------------------------
#psi4
#
memory 32 gb

molecule  {
0 1
  O       -2.7436610    -0.2479860    -0.0003050
  C        0.8706510    -0.0504500     0.0000920
  C        2.0389000    -0.9960240     0.0002020
  C        1.2510070     1.4052230     0.0001730
  C       -0.3937780    -0.5296350    -0.0000590
  C       -1.6078728     0.2556777    -0.0001734
  H        2.6694560    -0.8265420     0.8807060
  H        2.6696250    -0.8265350    -0.8801800
  H        1.7156570    -2.0395440     0.0001660
  H        1.8655830     1.6274140    -0.8794340
  H        1.8653250     1.6273830     0.8799690
  H        0.3995010     2.0850070     0.0000600
  H       -0.5613960    -1.6053580    -0.0001000
  H       -1.5271570     1.3681380    -0.0001420
units angstrom
no_reorient  #important for SAPT in psi4, default
symmetry c1  #important for SAPT in psi4, default
}

set PROPERTIES_ORIGIN ["COM"]
properties('MP2/aug-cc-pvtz', properties = ['dipole'])
--------------------------------------------------------------------------

    Molecular point group: c1
  Charge       = 0
  Multiplicity = 1
  Basis Set: AUG-CC-PVTZ
    Blend: AUG-CC-PVTZ
  Basis Set: (AUG-CC-PVTZ AUX)
    Blend: AUG-CC-PVTZ-JKFIT

    Orbital Energies [Eh]
    ---------------------

    Doubly Occupied:

       1A    -20.542340     2A    -11.327191     3A    -11.285982
       4A    -11.248396     5A    -11.244605     6A    -11.235682
       7A     -1.358944     8A     -1.126866     9A     -0.990223
      10A     -0.968972    11A     -0.831020    12A     -0.744745
      13A     -0.669764    14A     -0.640828    15A     -0.618903
      16A     -0.596349    17A     -0.561631    18A     -0.558106
      19A     -0.546279    20A     -0.518924    21A     -0.517841
      22A     -0.419071    23A     -0.368104

  @DF-RHF Final Energy:  -268.93438636299720

   => Energetics <=

    Nuclear Repulsion Energy =            216.8275063077954599
    One-Electron Energy =                -793.6822532952684242
    Two-Electron Energy =                 307.9203606244757339
    Total Energy =                       -268.9343863629972020
  Basis Set: (AUG-CC-PVTZ AUX)
    Blend: AUG-CC-PVTZ-RI
    Molecular point group: c1

    Geometry (in Angstrom), charge = 0, multiplicity = 1:

       Center              X                  Y                   Z               Mass
    ------------   -----------------  -----------------  -----------------  -----------------
         O           -2.638852263843    -0.229807750344    -0.000292983563    15.994914619570
         C            0.975459736157    -0.032271750344     0.000104016437    12.000000000000
         C            2.143708736157    -0.977845750344     0.000214016437    12.000000000000
         C            1.355815736157     1.423401249656     0.000185016437    12.000000000000
         C           -0.288969263843    -0.511456750344    -0.000046983563    12.000000000000
         C           -1.503064063843     0.273855949656    -0.000161383563    12.000000000000
         H            2.774264736157    -0.808363750344     0.880718016437     1.007825032230
         H            2.774433736157    -0.808356750344    -0.880167983563     1.007825032230
         H            1.820465736157    -2.021365750344     0.000178016437     1.007825032230
         H            1.970391736157     1.645592249656    -0.879421983563     1.007825032230
         H            1.970133736157     1.645561249656     0.879981016437     1.007825032230
         H            0.504309736157     2.103185249656     0.000072016437     1.007825032230
         H           -0.456587263843    -1.587179750344    -0.000087983563     1.007825032230
         H           -1.422348263843     1.386316249656    -0.000129983563     1.007825032230

  Basis Set: AUG-CC-PVTZ
    Blend: AUG-CC-PVTZ
  Basis Set: (AUG-CC-PVTZ AUX)
    Blend: AUG-CC-PVTZ-JKFIT
	 Reference Energy          =    -268.9343863629972020 [Eh]
	 Singles Energy            =      -0.0000000000000000 [Eh]
	 Same-Spin Energy          =      -0.2717290241932575 [Eh]
	 Opposite-Spin Energy      =      -0.9167247921249544 [Eh]
	 Correlation Energy        =      -1.1884538163182119 [Eh]
	 Total Energy              =    -270.1228401793154035 [Eh]

	 ================> DF-SCS-MP2 Energies <==================
	-----------------------------------------------------------
	 SCS Same-Spin Scale       =       0.3333333333333333 [-]
	 SCS Opposite-Spin Scale   =       1.2000000000000000 [-]
	 SCS Same-Spin Energy      =      -0.0905763413977525 [Eh]
	 SCS Opposite-Spin Energy  =      -1.1000697505499453 [Eh]
	 SCS Correlation Energy    =      -1.1906460919476978 [Eh]
	 SCS Total Energy          =    -270.1250324549449147 [Eh]
	-----------------------------------------------------------

  Dipole Moment: [D]
     X:     4.2437      Y:     0.9465      Z:     0.0005     Total:     4.3479

*** Psi4 exiting successfully. Buy a developer a beer!
