                               Psi4 1.4a3.dev225

  ==> Input File <==

--------------------------------------------------------------------------
#psi4
#
memory 32 gb

molecule  {
0 1
  O       -2.7436610    -0.2479860    -0.0003050
  C        0.8706510    -0.0504500     0.0000920
  C        2.0389000    -0.9960240     0.0002020
  C        1.2510070     1.4052230     0.0001730
  C       -0.4405331    -0.5473539    -0.0000646
  C       -1.6246660     0.2665400    -0.0001750
  H        2.6694560    -0.8265420     0.8807060
  H        2.6696250    -0.8265350    -0.8801800
  H        1.7156570    -2.0395440     0.0001660
  H        1.8655830     1.6274140    -0.8794340
  H        1.8653250     1.6273830     0.8799690
  H        0.3995010     2.0850070     0.0000600
  H       -0.5613960    -1.6053580    -0.0001000
  H       -1.5271570     1.3681380    -0.0001420
units angstrom
no_reorient  #important for SAPT in psi4, default
symmetry c1  #important for SAPT in psi4, default
}

set PROPERTIES_ORIGIN ["COM"]
properties('MP2/aug-cc-pvtz', properties = ['dipole'])
--------------------------------------------------------------------------

    Molecular point group: c1
  Charge       = 0
  Multiplicity = 1
  Basis Set: AUG-CC-PVTZ
    Blend: AUG-CC-PVTZ
  Basis Set: (AUG-CC-PVTZ AUX)
    Blend: AUG-CC-PVTZ-JKFIT

    Orbital Energies [Eh]
    ---------------------

    Doubly Occupied:

       1A    -20.538309     2A    -11.322391     3A    -11.293713
       4A    -11.249361     5A    -11.245754     6A    -11.236819
       7A     -1.364056     8A     -1.119440     9A     -0.989020
      10A     -0.969371    11A     -0.825602    12A     -0.748160
      13A     -0.670286    14A     -0.640779    15A     -0.618478
      16A     -0.598171    17A     -0.562915    18A     -0.562383
      19A     -0.542137    20A     -0.521463    21A     -0.520665
      22A     -0.418558    23A     -0.357132

  @DF-RHF Final Energy:  -268.93102622791537

   => Energetics <=

    Nuclear Repulsion Energy =            216.4191042817636230
    One-Electron Energy =                -792.8703343992502823
    Two-Electron Energy =                 307.5202038895712349
    Total Energy =                       -268.9310262279153676
  Basis Set: (AUG-CC-PVTZ AUX)
    Blend: AUG-CC-PVTZ-RI
    Molecular point group: c1

    Geometry (in Angstrom), charge = 0, multiplicity = 1:

       Center              X                  Y                   Z               Mass
    ------------   -----------------  -----------------  -----------------  -----------------
         O           -2.629780146958    -0.228828906273    -0.000291955696    15.994914619570
         C            0.984531853042    -0.031292906273     0.000105044304    12.000000000000
         C            2.152780853042    -0.976866906273     0.000215044304    12.000000000000
         C            1.364887853042     1.424380093727     0.000186044304    12.000000000000
         C           -0.326652246958    -0.528196806273    -0.000051555696    12.000000000000
         C           -1.510785146958     0.285697093727    -0.000161955696    12.000000000000
         H            2.783336853042    -0.807384906273     0.880719044304     1.007825032230
         H            2.783505853042    -0.807377906273    -0.880166955696     1.007825032230
         H            1.829537853042    -2.020386906273     0.000179044304     1.007825032230
         H            1.979463853042     1.646571093727    -0.879420955696     1.007825032230
         H            1.979205853042     1.646540093727     0.879982044304     1.007825032230
         H            0.513381853042     2.104164093727     0.000073044304     1.007825032230
         H           -0.447515146958    -1.586200906273    -0.000086955696     1.007825032230
         H           -1.413276146958     1.387295093727    -0.000128955696     1.007825032230

  Basis Set: AUG-CC-PVTZ
    Blend: AUG-CC-PVTZ
  Basis Set: (AUG-CC-PVTZ AUX)
    Blend: AUG-CC-PVTZ-JKFIT
	 Reference Energy          =    -268.9310262279153676 [Eh]
	 Singles Energy            =      -0.0000000000000000 [Eh]
	 Same-Spin Energy          =      -0.2718801821738931 [Eh]
	 Opposite-Spin Energy      =      -0.9169062665694862 [Eh]
	 Correlation Energy        =      -1.1887864487433792 [Eh]
	 Total Energy              =    -270.1198126766587393 [Eh]

	 ================> DF-SCS-MP2 Energies <==================
	-----------------------------------------------------------
	 SCS Same-Spin Scale       =       0.3333333333333333 [-]
	 SCS Opposite-Spin Scale   =       1.2000000000000000 [-]
	 SCS Same-Spin Energy      =      -0.0906267273912977 [Eh]
	 SCS Opposite-Spin Energy  =      -1.1002875198833832 [Eh]
	 SCS Correlation Energy    =      -1.1909142472746810 [Eh]
	 SCS Total Energy          =    -270.1219404751900584 [Eh]
	-----------------------------------------------------------

  Dipole Moment: [D]
     X:     4.2526      Y:     0.9572      Z:     0.0005     Total:     4.3590

*** Psi4 exiting successfully. Buy a developer a beer!
