                               Psi4 1.4a3.dev225

  ==> Input File <==

--------------------------------------------------------------------------
#psi4
#
memory 32 gb

molecule  {
0 1
  O       -2.7436610    -0.2479860    -0.0003050
  C        0.8706510    -0.0504500     0.0000920
  C        2.0389000    -0.9960240     0.0002020
  C        1.2510070     1.4052230     0.0001730
  C       -0.3470229    -0.5119161    -0.0000534
  C       -1.6246660     0.2665400    -0.0001750
  H        2.6694560    -0.8265420     0.8807060
  H        2.6696250    -0.8265350    -0.8801800
  H        1.7156570    -2.0395440     0.0001660
  H        1.8655830     1.6274140    -0.8794340
  H        1.8653250     1.6273830     0.8799690
  H        0.3995010     2.0850070     0.0000600
  H       -0.5613960    -1.6053580    -0.0001000
  H       -1.5271570     1.3681380    -0.0001420
units angstrom
no_reorient  #important for SAPT in psi4, default
symmetry c1  #important for SAPT in psi4, default
}

set PROPERTIES_ORIGIN ["COM"]
properties('MP2/aug-cc-pvtz', properties = ['dipole'])
--------------------------------------------------------------------------

    Molecular point group: c1
  Charge       = 0
  Multiplicity = 1
  Basis Set: AUG-CC-PVTZ
    Blend: AUG-CC-PVTZ
  Basis Set: (AUG-CC-PVTZ AUX)
    Blend: AUG-CC-PVTZ-JKFIT

    Orbital Energies [Eh]
    ---------------------

    Doubly Occupied:

       1A    -20.550001     2A    -11.332242     3A    -11.272275
       4A    -11.245608     5A    -11.240900     6A    -11.234560
       7A     -1.370185     8A     -1.130657     9A     -0.982558
      10A     -0.966238    11A     -0.835619    12A     -0.741109
      13A     -0.668251    14A     -0.640910    15A     -0.617171
      16A     -0.603026    17A     -0.558667    18A     -0.554304
      19A     -0.545762    20A     -0.523727    21A     -0.512747
      22A     -0.417925    23A     -0.378588

  @DF-RHF Final Energy:  -268.93401665710445

   => Energetics <=

    Nuclear Repulsion Energy =            217.0740913525413021
    One-Electron Energy =                -794.1701587807860960
    Two-Electron Energy =                 308.1620507711404002
    Total Energy =                       -268.9340166571044506
  Basis Set: (AUG-CC-PVTZ AUX)
    Blend: AUG-CC-PVTZ-RI
    Molecular point group: c1

    Geometry (in Angstrom), charge = 0, multiplicity = 1:

       Center              X                  Y                   Z               Mass
    ------------   -----------------  -----------------  -----------------  -----------------
         O           -2.643129606571    -0.233887985175    -0.000293554601    15.994914619570
         C            0.971182393429    -0.036351985175     0.000103445399    12.000000000000
         C            2.139431393429    -0.981925985175     0.000213445399    12.000000000000
         C            1.351538393429     1.419321014825     0.000184445399    12.000000000000
         C           -0.246491506571    -0.497818085175    -0.000041954601    12.000000000000
         C           -1.524134606571     0.280638014825    -0.000163554601    12.000000000000
         H            2.769987393429    -0.812443985175     0.880717445399     1.007825032230
         H            2.770156393429    -0.812436985175    -0.880168554601     1.007825032230
         H            1.816188393429    -2.025445985175     0.000177445399     1.007825032230
         H            1.966114393429     1.641512014825    -0.879422554601     1.007825032230
         H            1.965856393429     1.641481014825     0.879980445399     1.007825032230
         H            0.500032393429     2.099105014825     0.000071445399     1.007825032230
         H           -0.460864606571    -1.591259985175    -0.000088554601     1.007825032230
         H           -1.426625606571     1.382236014825    -0.000130554601     1.007825032230

  Basis Set: AUG-CC-PVTZ
    Blend: AUG-CC-PVTZ
  Basis Set: (AUG-CC-PVTZ AUX)
    Blend: AUG-CC-PVTZ-JKFIT
	 Reference Energy          =    -268.9340166571044506 [Eh]
	 Singles Energy            =      -0.0000000000000000 [Eh]
	 Same-Spin Energy          =      -0.2707207337543401 [Eh]
	 Opposite-Spin Energy      =      -0.9152207460245231 [Eh]
	 Correlation Energy        =      -1.1859414797788632 [Eh]
	 Total Energy              =    -270.1199581368833265 [Eh]

	 ================> DF-SCS-MP2 Energies <==================
	-----------------------------------------------------------
	 SCS Same-Spin Scale       =       0.3333333333333333 [-]
	 SCS Opposite-Spin Scale   =       1.2000000000000000 [-]
	 SCS Same-Spin Energy      =      -0.0902402445847800 [Eh]
	 SCS Opposite-Spin Energy  =      -1.0982648952294276 [Eh]
	 SCS Correlation Energy    =      -1.1885051398142077 [Eh]
	 SCS Total Energy          =    -270.1225217969186474 [Eh]
	-----------------------------------------------------------

  Dipole Moment: [D]
     X:     3.9585      Y:     0.9972      Z:     0.0005     Total:     4.0821

*** Psi4 exiting successfully. Buy a developer a beer!
