                               Psi4 1.4a3.dev225

  ==> Input File <==

--------------------------------------------------------------------------
#psi4
#
memory 32 gb

molecule  {
0 1
  O       -2.7436610    -0.2479860    -0.0003050
  C        0.8706510    -0.0504500     0.0000920
  C        2.0389000    -0.9960240     0.0002020
  C        1.2510070     1.4052230     0.0001730
  C       -0.3937780    -0.5296350    -0.0000590
  C       -1.4429549     0.3500927    -0.0001539
  H        2.6694560    -0.8265420     0.8807060
  H        2.6696250    -0.8265350    -0.8801800
  H        1.7156570    -2.0395440     0.0001660
  H        1.8655830     1.6274140    -0.8794340
  H        1.8653250     1.6273830     0.8799690
  H        0.3995010     2.0850070     0.0000600
  H       -0.5613960    -1.6053580    -0.0001000
  H       -1.5271570     1.3681380    -0.0001420
units angstrom
no_reorient  #important for SAPT in psi4, default
symmetry c1  #important for SAPT in psi4, default
}

set PROPERTIES_ORIGIN ["COM"]
properties('MP2/aug-cc-pvtz', properties = ['dipole'])
--------------------------------------------------------------------------

    Molecular point group: c1
  Charge       = 0
  Multiplicity = 1
  Basis Set: AUG-CC-PVTZ
    Blend: AUG-CC-PVTZ
  Basis Set: (AUG-CC-PVTZ AUX)
    Blend: AUG-CC-PVTZ-JKFIT

    Orbital Energies [Eh]
    ---------------------

    Doubly Occupied:

       1A    -20.522525     2A    -11.329813     3A    -11.300670
       4A    -11.258615     5A    -11.253134     6A    -11.241974
       7A     -1.252859     8A     -1.143164     9A     -1.012673
      10A     -0.979953    11A     -0.851987    12A     -0.763309
      13A     -0.681946    14A     -0.650433    15A     -0.628722
      16A     -0.571076    17A     -0.571005    18A     -0.564678
      19A     -0.527866    20A     -0.514895    21A     -0.475771
      22A     -0.414701    23A     -0.355354

  @DF-RHF Final Energy:  -268.86626410584267

   => Energetics <=

    Nuclear Repulsion Energy =            216.3952879626760932
    One-Electron Energy =                -792.7888588755939736
    Two-Electron Energy =                 307.5273068070752061
    Total Energy =                       -268.8662641058426743
  Basis Set: (AUG-CC-PVTZ AUX)
    Blend: AUG-CC-PVTZ-RI
    Molecular point group: c1

    Geometry (in Angstrom), charge = 0, multiplicity = 1:

       Center              X                  Y                   Z               Mass
    ------------   -----------------  -----------------  -----------------  -----------------
         O           -2.662395843532    -0.243286378657    -0.000295767372    15.994914619570
         C            0.951916156468    -0.045750378657     0.000101232628    12.000000000000
         C            2.120165156468    -0.991324378657     0.000211232628    12.000000000000
         C            1.332272156468     1.409922621343     0.000182232628    12.000000000000
         C           -0.312512843532    -0.524935378657    -0.000049767372    12.000000000000
         C           -1.361689743532     0.354792321343    -0.000144667372    12.000000000000
         H            2.750721156468    -0.821842378657     0.880715232628     1.007825032230
         H            2.750890156468    -0.821835378657    -0.880170767372     1.007825032230
         H            1.796922156468    -2.034844378657     0.000175232628     1.007825032230
         H            1.946848156468     1.632113621343    -0.879424767372     1.007825032230
         H            1.946590156468     1.632082621343     0.879978232628     1.007825032230
         H            0.480766156468     2.089706621343     0.000069232628     1.007825032230
         H           -0.480130843532    -1.600658378657    -0.000090767372     1.007825032230
         H           -1.445891843532     1.372837621343    -0.000132767372     1.007825032230

  Basis Set: AUG-CC-PVTZ
    Blend: AUG-CC-PVTZ
  Basis Set: (AUG-CC-PVTZ AUX)
    Blend: AUG-CC-PVTZ-JKFIT
	 Reference Energy          =    -268.8662641058426743 [Eh]
	 Singles Energy            =      -0.0000000000000000 [Eh]
	 Same-Spin Energy          =      -0.2787086892761291 [Eh]
	 Opposite-Spin Energy      =      -0.9306992758649414 [Eh]
	 Correlation Energy        =      -1.2094079651410705 [Eh]
	 Total Energy              =    -270.0756720709837282 [Eh]

	 ================> DF-SCS-MP2 Energies <==================
	-----------------------------------------------------------
	 SCS Same-Spin Scale       =       0.3333333333333333 [-]
	 SCS Opposite-Spin Scale   =       1.2000000000000000 [-]
	 SCS Same-Spin Energy      =      -0.0929028964253764 [Eh]
	 SCS Opposite-Spin Energy  =      -1.1168391310379295 [Eh]
	 SCS Correlation Energy    =      -1.2097420274633059 [Eh]
	 SCS Total Energy          =    -270.0760061333059525 [Eh]
	-----------------------------------------------------------

  Dipole Moment: [D]
     X:     4.8110      Y:     1.0454      Z:     0.0006     Total:     4.9233

*** Psi4 exiting successfully. Buy a developer a beer!
