                               Psi4 1.4a3.dev225

  ==> Input File <==

--------------------------------------------------------------------------
#psi4
#
memory 32 gb

molecule  {
0 1
  O       -2.7436610    -0.2479860    -0.0003050
  C        0.8706510    -0.0504500     0.0000920
  C        2.0389000    -0.9960240     0.0002020
  C        1.2510070     1.4052230     0.0001730
  C       -0.3937780    -0.5296350    -0.0000590
  C       -1.7086318     0.3208516    -0.0001829
  H        2.6694560    -0.8265420     0.8807060
  H        2.6696250    -0.8265350    -0.8801800
  H        1.7156570    -2.0395440     0.0001660
  H        1.8655830     1.6274140    -0.8794340
  H        1.8653250     1.6273830     0.8799690
  H        0.3995010     2.0850070     0.0000600
  H       -0.5613960    -1.6053580    -0.0001000
  H       -1.5271570     1.3681380    -0.0001420
units angstrom
no_reorient  #important for SAPT in psi4, default
symmetry c1  #important for SAPT in psi4, default
}

set PROPERTIES_ORIGIN ["COM"]
properties('MP2/aug-cc-pvtz', properties = ['dipole'])
--------------------------------------------------------------------------

    Molecular point group: c1
  Charge       = 0
  Multiplicity = 1
  Basis Set: AUG-CC-PVTZ
    Blend: AUG-CC-PVTZ
  Basis Set: (AUG-CC-PVTZ AUX)
    Blend: AUG-CC-PVTZ-JKFIT

    Orbital Energies [Eh]
    ---------------------

    Doubly Occupied:

       1A    -20.554005     2A    -11.329081     3A    -11.270491
       4A    -11.242630     5A    -11.236645     6A    -11.234173
       7A     -1.407787     8A     -1.112941     9A     -0.965516
      10A     -0.961458    11A     -0.833256    12A     -0.742439
      13A     -0.671259    14A     -0.641746    15A     -0.614003
      16A     -0.611578    17A     -0.555641    18A     -0.554740
      19A     -0.543936    20A     -0.540407    21A     -0.513021
      22A     -0.412210    23A     -0.362256

  @DF-RHF Final Energy:  -268.93167835127616

   => Energetics <=

    Nuclear Repulsion Energy =            216.2490638250652069
    One-Electron Energy =                -792.5390413208729115
    Two-Electron Energy =                 307.3582991445315997
    Total Energy =                       -268.9316783512761617
  Basis Set: (AUG-CC-PVTZ AUX)
    Blend: AUG-CC-PVTZ-RI
    Molecular point group: c1

    Geometry (in Angstrom), charge = 0, multiplicity = 1:

       Center              X                  Y                   Z               Mass
    ------------   -----------------  -----------------  -----------------  -----------------
         O           -2.624467969925    -0.239111936901    -0.000291627349    15.994914619570
         C            0.989844030075    -0.041575936901     0.000105372651    12.000000000000
         C            2.158093030075    -0.987149936901     0.000215372651    12.000000000000
         C            1.370200030075     1.414097063099     0.000186372651    12.000000000000
         C           -0.274584969925    -0.520760936901    -0.000045627349    12.000000000000
         C           -1.589438769925     0.329725663099    -0.000169527349    12.000000000000
         H            2.788649030075    -0.817667936901     0.880719372651     1.007825032230
         H            2.788818030075    -0.817660936901    -0.880166627349     1.007825032230
         H            1.834850030075    -2.030669936901     0.000179372651     1.007825032230
         H            1.984776030075     1.636288063099    -0.879420627349     1.007825032230
         H            1.984518030075     1.636257063099     0.879982372651     1.007825032230
         H            0.518694030075     2.093881063099     0.000073372651     1.007825032230
         H           -0.442202969925    -1.596483936901    -0.000086627349     1.007825032230
         H           -1.407963969925     1.377012063099    -0.000128627349     1.007825032230

  Basis Set: AUG-CC-PVTZ
    Blend: AUG-CC-PVTZ
  Basis Set: (AUG-CC-PVTZ AUX)
    Blend: AUG-CC-PVTZ-JKFIT
	 Reference Energy          =    -268.9316783512761617 [Eh]
	 Singles Energy            =      -0.0000000000000000 [Eh]
	 Same-Spin Energy          =      -0.2692109896840708 [Eh]
	 Opposite-Spin Energy      =      -0.9128972495842778 [Eh]
	 Correlation Energy        =      -1.1821082392683486 [Eh]
	 Total Energy              =    -270.1137865905445210 [Eh]

	 ================> DF-SCS-MP2 Energies <==================
	-----------------------------------------------------------
	 SCS Same-Spin Scale       =       0.3333333333333333 [-]
	 SCS Opposite-Spin Scale   =       1.2000000000000000 [-]
	 SCS Same-Spin Energy      =      -0.0897369965613569 [Eh]
	 SCS Opposite-Spin Energy  =      -1.0954766995011334 [Eh]
	 SCS Correlation Energy    =      -1.1852136960624904 [Eh]
	 SCS Total Energy          =    -270.1168920473386379 [Eh]
	-----------------------------------------------------------

  Dipole Moment: [D]
     X:     3.4203      Y:     1.1374      Z:     0.0004     Total:     3.6045

*** Psi4 exiting successfully. Buy a developer a beer!
