                               Psi4 1.4a3.dev225

  ==> Input File <==

--------------------------------------------------------------------------
#psi4
#
memory 32 gb

molecule  {
0 1
  O       -2.7436610    -0.2479860    -0.0003050
  C        0.8706510    -0.0504500     0.0000920
  C        2.0389000    -0.9960240     0.0002020
  C        1.2510070     1.4052230     0.0001730
  C       -0.3937780    -0.5296350    -0.0000590
  C       -1.6246660     0.2665400    -0.0001750
  H        2.6809606    -0.8234498     0.8967709
  H        2.6696250    -0.8265350    -0.8801800
  H        1.7156570    -2.0395440     0.0001660
  H        1.8655830     1.6274140    -0.8794340
  H        1.8653250     1.6273830     0.8799690
  H        0.3995010     2.0850070     0.0000600
  H       -0.5613960    -1.6053580    -0.0001000
  H       -1.5271570     1.3681380    -0.0001420
units angstrom
no_reorient  #important for SAPT in psi4, default
symmetry c1  #important for SAPT in psi4, default
}

set PROPERTIES_ORIGIN ["COM"]
properties('MP2/aug-cc-pvtz', properties = ['dipole'])
--------------------------------------------------------------------------

    Molecular point group: c1
  Charge       = 0
  Multiplicity = 1
  Basis Set: AUG-CC-PVTZ
    Blend: AUG-CC-PVTZ
  Basis Set: (AUG-CC-PVTZ AUX)
    Blend: AUG-CC-PVTZ-JKFIT

    Orbital Energies [Eh]
    ---------------------

    Doubly Occupied:

       1A    -20.544474     2A    -11.327573     3A    -11.283407
       4A    -11.247365     5A    -11.245606     6A    -11.236007
       7A     -1.367268     8A     -1.124212     9A     -0.985236
      10A     -0.966811    11A     -0.830150    12A     -0.744875
      13A     -0.669236    14A     -0.640471    15A     -0.616513
      16A     -0.600554    17A     -0.559411    18A     -0.555736
      19A     -0.545562    20A     -0.522606    21A     -0.517135
      22A     -0.419175    23A     -0.367469

  @DF-RHF Final Energy:  -268.93579195225180

   => Energetics <=

    Nuclear Repulsion Energy =            216.6388488221524540
    One-Electron Energy =                -793.3155825430895902
    Two-Electron Energy =                 307.7409417686853317
    Total Energy =                       -268.9357919522518046
  Basis Set: (AUG-CC-PVTZ AUX)
    Blend: AUG-CC-PVTZ-RI
    Molecular point group: c1

    Geometry (in Angstrom), charge = 0, multiplicity = 1:

       Center              X                  Y                   Z               Mass
    ------------   -----------------  -----------------  -----------------  -----------------
         O           -2.636592813556    -0.231395520298    -0.000485368603    15.994914619570
         C            0.977719186444    -0.033859520298    -0.000088368603    12.000000000000
         C            2.145968186444    -0.979433520298     0.000021631397    12.000000000000
         C            1.358075186444     1.421813479702    -0.000007368603    12.000000000000
         C           -0.286709813556    -0.513044520298    -0.000239368603    12.000000000000
         C           -1.517597813556     0.283130479702    -0.000355368603    12.000000000000
         H            2.788028786444    -0.806859320298     0.896590531397     1.007825032230
         H            2.776693186444    -0.809944520298    -0.880360368603     1.007825032230
         H            1.822725186444    -2.022953520298    -0.000014368603     1.007825032230
         H            1.972651186444     1.644004479702    -0.879614368603     1.007825032230
         H            1.972393186444     1.643973479702     0.879788631397     1.007825032230
         H            0.506569186444     2.101597479702    -0.000120368603     1.007825032230
         H           -0.454327813556    -1.588767520298    -0.000280368603     1.007825032230
         H           -1.420088813556     1.384728479702    -0.000322368603     1.007825032230

  Basis Set: AUG-CC-PVTZ
    Blend: AUG-CC-PVTZ
  Basis Set: (AUG-CC-PVTZ AUX)
    Blend: AUG-CC-PVTZ-JKFIT
	 Reference Energy          =    -268.9357919522518046 [Eh]
	 Singles Energy            =      -0.0000000000000000 [Eh]
	 Same-Spin Energy          =      -0.2712053610348274 [Eh]
	 Opposite-Spin Energy      =      -0.9160320372104478 [Eh]
	 Correlation Energy        =      -1.1872373982452751 [Eh]
	 Total Energy              =    -270.1230293504970632 [Eh]

	 ================> DF-SCS-MP2 Energies <==================
	-----------------------------------------------------------
	 SCS Same-Spin Scale       =       0.3333333333333333 [-]
	 SCS Opposite-Spin Scale   =       1.2000000000000000 [-]
	 SCS Same-Spin Energy      =      -0.0904017870116091 [Eh]
	 SCS Opposite-Spin Energy  =      -1.0992384446525374 [Eh]
	 SCS Correlation Energy    =      -1.1896402316641466 [Eh]
	 SCS Total Energy          =    -270.1254321839159616 [Eh]
	-----------------------------------------------------------

  Dipole Moment: [D]
     X:     4.1043      Y:     0.9760      Z:    -0.0055     Total:     4.2187

*** Psi4 exiting successfully. Buy a developer a beer!
