                               Psi4 1.4a3.dev225

  ==> Input File <==

--------------------------------------------------------------------------
#psi4
#
memory 32 gb

molecule  {
0 1
  O       -2.7436610    -0.2479860    -0.0003050
  C        0.8706510    -0.0504500     0.0000920
  C        2.0389000    -0.9960240     0.0002020
  C        1.2510070     1.4052230     0.0001730
  C       -0.2067576    -0.4587592    -0.0000367
  C       -1.6246660     0.2665400    -0.0001750
  H        2.6694560    -0.8265420     0.8807060
  H        2.6696250    -0.8265350    -0.8801800
  H        1.7156570    -2.0395440     0.0001660
  H        1.8655830     1.6274140    -0.8794340
  H        1.8653250     1.6273830     0.8799690
  H        0.3995010     2.0850070     0.0000600
  H       -0.5613960    -1.6053580    -0.0001000
  H       -1.5271570     1.3681380    -0.0001420
units angstrom
no_reorient  #important for SAPT in psi4, default
symmetry c1  #important for SAPT in psi4, default
}

set PROPERTIES_ORIGIN ["COM"]
properties('MP2/aug-cc-pvtz', properties = ['dipole'])
--------------------------------------------------------------------------

    Molecular point group: c1
  Charge       = 0
  Multiplicity = 1
  Basis Set: AUG-CC-PVTZ
    Blend: AUG-CC-PVTZ
  Basis Set: (AUG-CC-PVTZ AUX)
    Blend: AUG-CC-PVTZ-JKFIT

    Orbital Energies [Eh]
    ---------------------

    Doubly Occupied:

       1A    -20.564041     2A    -11.343948     3A    -11.242150
       4A    -11.238356     5A    -11.235786     6A    -11.228345
       7A     -1.377954     8A     -1.158504     9A     -0.975928
      10A     -0.963863    11A     -0.846463    12A     -0.726565
      13A     -0.665969    14A     -0.644454    15A     -0.619516
      16A     -0.611153    17A     -0.555863    18A     -0.554953
      19A     -0.536559    20A     -0.527073    21A     -0.499441
      22A     -0.416743    23A     -0.402088

  @DF-RHF Final Energy:  -268.86573462091570

   => Energetics <=

    Nuclear Repulsion Energy =            218.5151393278304965
    One-Electron Energy =                -796.8903185401095470
    Two-Electron Energy =                 309.5094445913633194
    Total Energy =                       -268.8657346209157026
  Basis Set: (AUG-CC-PVTZ AUX)
    Blend: AUG-CC-PVTZ-RI
    Molecular point group: c1

    Geometry (in Angstrom), charge = 0, multiplicity = 1:

       Center              X                  Y                   Z               Mass
    ------------   -----------------  -----------------  -----------------  -----------------
         O           -2.663153795990    -0.241476632078    -0.000295938683    15.994914619570
         C            0.951158204010    -0.043940632078     0.000101061317    12.000000000000
         C            2.119407204010    -0.989514632078     0.000211061317    12.000000000000
         C            1.331514204010     1.411732367922     0.000182061317    12.000000000000
         C           -0.126250395990    -0.452249832078    -0.000027638683    12.000000000000
         C           -1.544158795990     0.273049367922    -0.000165938683    12.000000000000
         H            2.749963204010    -0.820032632078     0.880715061317     1.007825032230
         H            2.750132204010    -0.820025632078    -0.880170938683     1.007825032230
         H            1.796164204010    -2.033034632078     0.000175061317     1.007825032230
         H            1.946090204010     1.633923367922    -0.879424938683     1.007825032230
         H            1.945832204010     1.633892367922     0.879978061317     1.007825032230
         H            0.480008204010     2.091516367922     0.000069061317     1.007825032230
         H           -0.480888795990    -1.598848632078    -0.000090938683     1.007825032230
         H           -1.446649795990     1.374647367922    -0.000132938683     1.007825032230

  Basis Set: AUG-CC-PVTZ
    Blend: AUG-CC-PVTZ
  Basis Set: (AUG-CC-PVTZ AUX)
    Blend: AUG-CC-PVTZ-JKFIT
	 Reference Energy          =    -268.8657346209157026 [Eh]
	 Singles Energy            =      -0.0000000000000000 [Eh]
	 Same-Spin Energy          =      -0.2706331540387544 [Eh]
	 Opposite-Spin Energy      =      -0.9151634600367062 [Eh]
	 Correlation Energy        =      -1.1857966140754606 [Eh]
	 Total Energy              =    -270.0515312349911596 [Eh]

	 ================> DF-SCS-MP2 Energies <==================
	-----------------------------------------------------------
	 SCS Same-Spin Scale       =       0.3333333333333333 [-]
	 SCS Opposite-Spin Scale   =       1.2000000000000000 [-]
	 SCS Same-Spin Energy      =      -0.0902110513462515 [Eh]
	 SCS Opposite-Spin Energy  =      -1.0981961520440475 [Eh]
	 SCS Correlation Energy    =      -1.1884072033902990 [Eh]
	 SCS Total Energy          =    -270.0541418243059866 [Eh]
	-----------------------------------------------------------

  Dipole Moment: [D]
     X:     3.4964      Y:     1.0864      Z:     0.0004     Total:     3.6613

*** Psi4 exiting successfully. Buy a developer a beer!
