                               Psi4 1.4a3.dev225

  ==> Input File <==

--------------------------------------------------------------------------
#psi4
#
memory 32 gb

molecule  {
0 1
  O       -2.7436610    -0.2479860    -0.0003050
  C        0.8706510    -0.0504500     0.0000920
  C        2.0389000    -0.9960240     0.0002020
  C        1.2510070     1.4052230     0.0001730
  C       -0.3937780    -0.5296350    -0.0000590
  C       -1.6246660     0.2665400    -0.0001750
  H        2.6694560    -0.8265420     0.8807060
  H        2.6696250    -0.8265350    -0.8801800
  H        1.7156570    -2.0395440     0.0001660
  H        1.8655830     1.6274140    -0.8794340
  H        1.8541128     1.6233283     0.8639114
  H        0.3995010     2.0850070     0.0000600
  H       -0.5613960    -1.6053580    -0.0001000
  H       -1.5271570     1.3681380    -0.0001420
units angstrom
no_reorient  #important for SAPT in psi4, default
symmetry c1  #important for SAPT in psi4, default
}

set PROPERTIES_ORIGIN ["COM"]
properties('MP2/aug-cc-pvtz', properties = ['dipole'])
--------------------------------------------------------------------------

    Molecular point group: c1
  Charge       = 0
  Multiplicity = 1
  Basis Set: AUG-CC-PVTZ
    Blend: AUG-CC-PVTZ
  Basis Set: (AUG-CC-PVTZ AUX)
    Blend: AUG-CC-PVTZ-JKFIT

    Orbital Energies [Eh]
    ---------------------

    Doubly Occupied:

       1A    -20.544266     2A    -11.327370     3A    -11.283095
       4A    -11.245003     5A    -11.243257     6A    -11.235683
       7A     -1.367077     8A     -1.124544     9A     -0.986101
      10A     -0.968898    11A     -0.830629    12A     -0.745198
      13A     -0.669016    14A     -0.640891    15A     -0.618994
      16A     -0.600647    17A     -0.562020    18A     -0.557333
      19A     -0.546096    20A     -0.522523    21A     -0.516858
      22A     -0.418978    23A     -0.367488

  @DF-RHF Final Energy:  -268.93633425955028

   => Energetics <=

    Nuclear Repulsion Energy =            216.8057564720754158
    One-Electron Energy =                -793.6402514666918933
    Two-Electron Energy =                 307.8981607350662557
    Total Energy =                       -268.9363342595502786
  Basis Set: (AUG-CC-PVTZ AUX)
    Blend: AUG-CC-PVTZ-RI
    Molecular point group: c1

    Geometry (in Angstrom), charge = 0, multiplicity = 1:

       Center              X                  Y                   Z               Mass
    ------------   -----------------  -----------------  -----------------  -----------------
         O           -2.636320445764    -0.231309831056    -0.000100229218    15.994914619570
         C            0.977991554236    -0.033773831056     0.000296770782    12.000000000000
         C            2.146240554236    -0.979347831056     0.000406770782    12.000000000000
         C            1.358347554236     1.421899168944     0.000377770782    12.000000000000
         C           -0.286437445764    -0.512958831056     0.000145770782    12.000000000000
         C           -1.517325445764     0.283216168944     0.000029770782    12.000000000000
         H            2.776796554236    -0.809865831056     0.880910770782     1.007825032230
         H            2.776965554236    -0.809858831056    -0.879975229218     1.007825032230
         H            1.822997554236    -2.022867831056     0.000370770782     1.007825032230
         H            1.972923554236     1.644090168944    -0.879229229218     1.007825032230
         H            1.961453354236     1.640004468944     0.864116170782     1.007825032230
         H            0.506841554236     2.101683168944     0.000264770782     1.007825032230
         H           -0.454055445764    -1.588681831056     0.000104770782     1.007825032230
         H           -1.419816445764     1.384814168944     0.000062770782     1.007825032230

  Basis Set: AUG-CC-PVTZ
    Blend: AUG-CC-PVTZ
  Basis Set: (AUG-CC-PVTZ AUX)
    Blend: AUG-CC-PVTZ-JKFIT
	 Reference Energy          =    -268.9363342595502786 [Eh]
	 Singles Energy            =      -0.0000000000000000 [Eh]
	 Same-Spin Energy          =      -0.2712021286691036 [Eh]
	 Opposite-Spin Energy      =      -0.9157871610525027 [Eh]
	 Correlation Energy        =      -1.1869892897216063 [Eh]
	 Total Energy              =    -270.1233235492719018 [Eh]

	 ================> DF-SCS-MP2 Energies <==================
	-----------------------------------------------------------
	 SCS Same-Spin Scale       =       0.3333333333333333 [-]
	 SCS Opposite-Spin Scale   =       1.2000000000000000 [-]
	 SCS Same-Spin Energy      =      -0.0904007095563679 [Eh]
	 SCS Opposite-Spin Energy  =      -1.0989445932630031 [Eh]
	 SCS Correlation Energy    =      -1.1893453028193710 [Eh]
	 SCS Total Energy          =    -270.1256795623696689 [Eh]
	-----------------------------------------------------------

  Dipole Moment: [D]
     X:     4.1208      Y:     0.9804      Z:     0.0054     Total:     4.2358

*** Psi4 exiting successfully. Buy a developer a beer!
