                               Psi4 1.4a3.dev225

  ==> Input File <==

--------------------------------------------------------------------------
#psi4
#
memory 32 gb

molecule  {
0 1
  O       -2.7436610    -0.2479860    -0.0003050
  C        0.8706510    -0.0504500     0.0000920
  C        2.0389000    -0.9960240     0.0002020
  C        1.2510070     1.4052230     0.0001730
  C       -0.3750760    -0.5225474    -0.0000568
  C       -1.6246660     0.2665400    -0.0001750
  H        2.6694560    -0.8265420     0.8807060
  H        2.6696250    -0.8265350    -0.8801800
  H        1.7156570    -2.0395440     0.0001660
  H        1.8655830     1.6274140    -0.8794340
  H        1.8653250     1.6273830     0.8799690
  H        0.3995010     2.0850070     0.0000600
  H       -0.5613960    -1.6053580    -0.0001000
  H       -1.5271570     1.3681380    -0.0001420
units angstrom
no_reorient  #important for SAPT in psi4, default
symmetry c1  #important for SAPT in psi4, default
}

set PROPERTIES_ORIGIN ["COM"]
properties('MP2/aug-cc-pvtz', properties = ['dipole'])
--------------------------------------------------------------------------

    Molecular point group: c1
  Charge       = 0
  Multiplicity = 1
  Basis Set: AUG-CC-PVTZ
    Blend: AUG-CC-PVTZ
  Basis Set: (AUG-CC-PVTZ AUX)
    Blend: AUG-CC-PVTZ-JKFIT

    Orbital Energies [Eh]
    ---------------------

    Doubly Occupied:

       1A    -20.546674     2A    -11.329420     3A    -11.278910
       4A    -11.246649     5A    -11.242272     6A    -11.235363
       7A     -1.368392     8A     -1.126698     9A     -0.984407
      10A     -0.967068    11A     -0.832633    12A     -0.743423
      13A     -0.668754    14A     -0.640731    15A     -0.617386
      16A     -0.601470    17A     -0.559703    18A     -0.555635
      19A     -0.546173    20A     -0.523022    21A     -0.515348
      22A     -0.418830    23A     -0.371829

  @DF-RHF Final Energy:  -268.93637013895835

   => Energetics <=

    Nuclear Repulsion Energy =            216.8552985093940038
    One-Electron Energy =                -793.7417586759050891
    Two-Electron Energy =                 307.9500900275527897
    Total Energy =                       -268.9363701389583525
  Basis Set: (AUG-CC-PVTZ AUX)
    Blend: AUG-CC-PVTZ-RI
    Molecular point group: c1

    Geometry (in Angstrom), charge = 0, multiplicity = 1:

       Center              X                  Y                   Z               Mass
    ------------   -----------------  -----------------  -----------------  -----------------
         O           -2.639124762977    -0.232370267215    -0.000293069219    15.994914619570
         C            0.975187237023    -0.034834267215     0.000103930781    12.000000000000
         C            2.143436237023    -0.980408267215     0.000213930781    12.000000000000
         C            1.355543237023     1.420838732785     0.000184930781    12.000000000000
         C           -0.270539762977    -0.506931667215    -0.000044869219    12.000000000000
         C           -1.520129762977     0.282155732785    -0.000163069219    12.000000000000
         H            2.773992237023    -0.810926267215     0.880717930781     1.007825032230
         H            2.774161237023    -0.810919267215    -0.880168069219     1.007825032230
         H            1.820193237023    -2.023928267215     0.000177930781     1.007825032230
         H            1.970119237023     1.643029732785    -0.879422069219     1.007825032230
         H            1.969861237023     1.642998732785     0.879980930781     1.007825032230
         H            0.504037237023     2.100622732785     0.000071930781     1.007825032230
         H           -0.456859762977    -1.589742267215    -0.000088069219     1.007825032230
         H           -1.422620762977     1.383753732785    -0.000130069219     1.007825032230

  Basis Set: AUG-CC-PVTZ
    Blend: AUG-CC-PVTZ
  Basis Set: (AUG-CC-PVTZ AUX)
    Blend: AUG-CC-PVTZ-JKFIT
	 Reference Energy          =    -268.9363701389583525 [Eh]
	 Singles Energy            =      -0.0000000000000000 [Eh]
	 Same-Spin Energy          =      -0.2709855094856815 [Eh]
	 Opposite-Spin Energy      =      -0.9155924084447349 [Eh]
	 Correlation Energy        =      -1.1865779179304163 [Eh]
	 Total Energy              =    -270.1229480568887880 [Eh]

	 ================> DF-SCS-MP2 Energies <==================
	-----------------------------------------------------------
	 SCS Same-Spin Scale       =       0.3333333333333333 [-]
	 SCS Opposite-Spin Scale   =       1.2000000000000000 [-]
	 SCS Same-Spin Energy      =      -0.0903285031618938 [Eh]
	 SCS Opposite-Spin Energy  =      -1.0987108901336817 [Eh]
	 SCS Correlation Energy    =      -1.1890393932955756 [Eh]
	 SCS Total Energy          =    -270.1254095322539115 [Eh]
	-----------------------------------------------------------

  Dipole Moment: [D]
     X:     4.0528      Y:     0.9847      Z:     0.0005     Total:     4.1707

*** Psi4 exiting successfully. Buy a developer a beer!
