                               Psi4 1.4a3.dev225

  ==> Input File <==

--------------------------------------------------------------------------
#psi4
#
memory 32 gb

molecule  {
0 1
  O       -2.7436610    -0.2479860    -0.0003050
  C        0.8706510    -0.0504500     0.0000920
  C        2.0389000    -0.9960240     0.0002020
  C        1.2004461     1.2117195     0.0001622
  C       -0.3937780    -0.5296350    -0.0000590
  C       -1.6246660     0.2665400    -0.0001750
  H        2.6694560    -0.8265420     0.8807060
  H        2.6696250    -0.8265350    -0.8801800
  H        1.7156570    -2.0395440     0.0001660
  H        1.8655830     1.6274140    -0.8794340
  H        1.8653250     1.6273830     0.8799690
  H        0.3995010     2.0850070     0.0000600
  H       -0.5613960    -1.6053580    -0.0001000
  H       -1.5271570     1.3681380    -0.0001420
units angstrom
no_reorient  #important for SAPT in psi4, default
symmetry c1  #important for SAPT in psi4, default
}

set PROPERTIES_ORIGIN ["COM"]
properties('MP2/aug-cc-pvtz', properties = ['dipole'])
--------------------------------------------------------------------------

    Molecular point group: c1
  Charge       = 0
  Multiplicity = 1
  Basis Set: AUG-CC-PVTZ
    Blend: AUG-CC-PVTZ
  Basis Set: (AUG-CC-PVTZ AUX)
    Blend: AUG-CC-PVTZ-JKFIT

    Orbital Energies [Eh]
    ---------------------

    Doubly Occupied:

       1A    -20.544546     2A    -11.326868     3A    -11.270458
       4A    -11.258165     5A    -11.242652     6A    -11.237675
       7A     -1.367208     8A     -1.158012     9A     -0.990463
      10A     -0.967794    11A     -0.830422    12A     -0.749833
      13A     -0.688674    14A     -0.647090    15A     -0.618239
      16A     -0.602548    17A     -0.557708    18A     -0.552117
      19A     -0.541430    20A     -0.519439    21A     -0.497077
      22A     -0.416888    23A     -0.360142

  @DF-RHF Final Energy:  -268.88393745623068

   => Energetics <=

    Nuclear Repulsion Energy =            219.7456270799542608
    One-Electron Energy =                -799.3682334650279699
    Two-Electron Energy =                 310.7386689288430262
    Total Energy =                       -268.8839374562306830
  Basis Set: (AUG-CC-PVTZ AUX)
    Blend: AUG-CC-PVTZ-RI
    Molecular point group: c1

    Geometry (in Angstrom), charge = 0, multiplicity = 1:

       Center              X                  Y                   Z               Mass
    ------------   -----------------  -----------------  -----------------  -----------------
         O           -2.629236833251    -0.203734003062    -0.000291213347    15.994914619570
         C            0.985075166749    -0.006198003062     0.000105786653    12.000000000000
         C            2.153324166749    -0.951772003062     0.000215786653    12.000000000000
         C            1.314870266749     1.255971496938     0.000175986653    12.000000000000
         C           -0.279353833251    -0.485383003062    -0.000045213347    12.000000000000
         C           -1.510241833251     0.310791996938    -0.000161213347    12.000000000000
         H            2.783880166749    -0.782290003062     0.880719786653     1.007825032230
         H            2.784049166749    -0.782283003062    -0.880166213347     1.007825032230
         H            1.830081166749    -1.995292003062     0.000179786653     1.007825032230
         H            1.980007166749     1.671665996938    -0.879420213347     1.007825032230
         H            1.979749166749     1.671634996938     0.879982786653     1.007825032230
         H            0.513925166749     2.129258996938     0.000073786653     1.007825032230
         H           -0.446971833251    -1.561106003062    -0.000086213347     1.007825032230
         H           -1.412732833251     1.412389996938    -0.000128213347     1.007825032230

  Basis Set: AUG-CC-PVTZ
    Blend: AUG-CC-PVTZ
  Basis Set: (AUG-CC-PVTZ AUX)
    Blend: AUG-CC-PVTZ-JKFIT
	 Reference Energy          =    -268.8839374562306830 [Eh]
	 Singles Energy            =      -0.0000000000000000 [Eh]
	 Same-Spin Energy          =      -0.2750247635490695 [Eh]
	 Opposite-Spin Energy      =      -0.9207799598231230 [Eh]
	 Correlation Energy        =      -1.1958047233721925 [Eh]
	 Total Energy              =    -270.0797421796028743 [Eh]

	 ================> DF-SCS-MP2 Energies <==================
	-----------------------------------------------------------
	 SCS Same-Spin Scale       =       0.3333333333333333 [-]
	 SCS Opposite-Spin Scale   =       1.2000000000000000 [-]
	 SCS Same-Spin Energy      =      -0.0916749211830231 [Eh]
	 SCS Opposite-Spin Energy  =      -1.1049359517877475 [Eh]
	 SCS Correlation Energy    =      -1.1966108729707707 [Eh]
	 SCS Total Energy          =    -270.0805483292014628 [Eh]
	-----------------------------------------------------------

  Dipole Moment: [D]
     X:     4.1450      Y:     1.0794      Z:     0.0005     Total:     4.2833

*** Psi4 exiting successfully. Buy a developer a beer!
