                               Psi4 1.4a3.dev225

  ==> Input File <==

--------------------------------------------------------------------------
#psi4
#
memory 32 gb

molecule  {
0 1
  O       -2.7436610    -0.2479860    -0.0003050
  C        0.8706510    -0.0504500     0.0000920
  C        2.0389000    -0.9960240     0.0002020
  C        1.2510070     1.4052230     0.0001730
  C       -0.3937780    -0.5296350    -0.0000590
  C       -1.7155216     0.2247636    -0.0001856
  H        2.6694560    -0.8265420     0.8807060
  H        2.6696250    -0.8265350    -0.8801800
  H        1.7156570    -2.0395440     0.0001660
  H        1.8655830     1.6274140    -0.8794340
  H        1.8653250     1.6273830     0.8799690
  H        0.3995010     2.0850070     0.0000600
  H       -0.5613960    -1.6053580    -0.0001000
  H       -1.5271570     1.3681380    -0.0001420
units angstrom
no_reorient  #important for SAPT in psi4, default
symmetry c1  #important for SAPT in psi4, default
}

set PROPERTIES_ORIGIN ["COM"]
properties('MP2/aug-cc-pvtz', properties = ['dipole'])
--------------------------------------------------------------------------

    Molecular point group: c1
  Charge       = 0
  Multiplicity = 1
  Basis Set: AUG-CC-PVTZ
    Blend: AUG-CC-PVTZ
  Basis Set: (AUG-CC-PVTZ AUX)
    Blend: AUG-CC-PVTZ-JKFIT

    Orbital Energies [Eh]
    ---------------------

    Doubly Occupied:

       1A    -20.553963     2A    -11.325054     3A    -11.275803
       4A    -11.241645     5A    -11.238637     6A    -11.232255
       7A     -1.444032     8A     -1.115465     9A     -0.971429
      10A     -0.961796    11A     -0.817203    12A     -0.740113
      13A     -0.675588    14A     -0.654295    15A     -0.612791
      16A     -0.612271    17A     -0.568153    18A     -0.558531
      19A     -0.555361    20A     -0.539345    21A     -0.514481
      22A     -0.401838    23A     -0.366263

  @DF-RHF Final Energy:  -268.92868705282979

   => Energetics <=

    Nuclear Repulsion Energy =            217.2810906688496573
    One-Electron Energy =                -794.4669287646280509
    Two-Electron Energy =                 308.2571510429486352
    Total Energy =                       -268.9286870528297868
  Basis Set: (AUG-CC-PVTZ AUX)
    Blend: AUG-CC-PVTZ-RI
    Molecular point group: c1

    Geometry (in Angstrom), charge = 0, multiplicity = 1:

       Center              X                  Y                   Z               Mass
    ------------   -----------------  -----------------  -----------------  -----------------
         O           -2.623484386243    -0.225394472119    -0.000291241899    15.994914619570
         C            0.990827613757    -0.027858472119     0.000105758101    12.000000000000
         C            2.159076613757    -0.973432472119     0.000215758101    12.000000000000
         C            1.371183613757     1.427814527881     0.000186758101    12.000000000000
         C           -0.273601386243    -0.507043472119    -0.000045241899    12.000000000000
         C           -1.595344986243     0.247355127881    -0.000171841899    12.000000000000
         H            2.789632613757    -0.803950472119     0.880719758101     1.007825032230
         H            2.789801613757    -0.803943472119    -0.880166241899     1.007825032230
         H            1.835833613757    -2.016952472119     0.000179758101     1.007825032230
         H            1.985759613757     1.650005527881    -0.879420241899     1.007825032230
         H            1.985501613757     1.649974527881     0.879982758101     1.007825032230
         H            0.519677613757     2.107598527881     0.000073758101     1.007825032230
         H           -0.441219386243    -1.582766472119    -0.000086241899     1.007825032230
         H           -1.406980386243     1.390729527881    -0.000128241899     1.007825032230

  Basis Set: AUG-CC-PVTZ
    Blend: AUG-CC-PVTZ
  Basis Set: (AUG-CC-PVTZ AUX)
    Blend: AUG-CC-PVTZ-JKFIT
	 Reference Energy          =    -268.9286870528297868 [Eh]
	 Singles Energy            =      -0.0000000000000000 [Eh]
	 Same-Spin Energy          =      -0.2685353539593920 [Eh]
	 Opposite-Spin Energy      =      -0.9103462401073581 [Eh]
	 Correlation Energy        =      -1.1788815940667501 [Eh]
	 Total Energy              =    -270.1075686468965387 [Eh]

	 ================> DF-SCS-MP2 Energies <==================
	-----------------------------------------------------------
	 SCS Same-Spin Scale       =       0.3333333333333333 [-]
	 SCS Opposite-Spin Scale   =       1.2000000000000000 [-]
	 SCS Same-Spin Energy      =      -0.0895117846531307 [Eh]
	 SCS Opposite-Spin Energy  =      -1.0924154881288297 [Eh]
	 SCS Correlation Energy    =      -1.1819272727819603 [Eh]
	 SCS Total Energy          =    -270.1106143256117207 [Eh]
	-----------------------------------------------------------

  Dipole Moment: [D]
     X:     3.4444      Y:     0.7861      Z:     0.0004     Total:     3.5330

*** Psi4 exiting successfully. Buy a developer a beer!
