                               Psi4 1.4a3.dev225

  ==> Input File <==

--------------------------------------------------------------------------
#psi4
#
memory 32 gb

molecule  {
0 1
  O       -2.7436610    -0.2479860    -0.0003050
  C        0.8706510    -0.0504500     0.0000920
  C        2.0389000    -0.9960240     0.0002020
  C        1.2510070     1.4052230     0.0001730
  C       -0.4872882    -0.5650729    -0.0000702
  C       -1.6246660     0.2665400    -0.0001750
  H        2.6694560    -0.8265420     0.8807060
  H        2.6696250    -0.8265350    -0.8801800
  H        1.7156570    -2.0395440     0.0001660
  H        1.8655830     1.6274140    -0.8794340
  H        1.8653250     1.6273830     0.8799690
  H        0.3995010     2.0850070     0.0000600
  H       -0.5613960    -1.6053580    -0.0001000
  H       -1.5271570     1.3681380    -0.0001420
units angstrom
no_reorient  #important for SAPT in psi4, default
symmetry c1  #important for SAPT in psi4, default
}

set PROPERTIES_ORIGIN ["COM"]
properties('MP2/aug-cc-pvtz', properties = ['dipole'])
--------------------------------------------------------------------------

    Molecular point group: c1
  Charge       = 0
  Multiplicity = 1
  Basis Set: AUG-CC-PVTZ
    Blend: AUG-CC-PVTZ
  Basis Set: (AUG-CC-PVTZ AUX)
    Blend: AUG-CC-PVTZ-JKFIT

    Orbital Energies [Eh]
    ---------------------

    Doubly Occupied:

       1A    -20.531842     2A    -11.317073     3A    -11.303580
       4A    -11.251474     5A    -11.248412     6A    -11.237566
       7A     -1.360904     8A     -1.115758     9A     -0.992338
      10A     -0.971279    11A     -0.821018    12A     -0.751036
      13A     -0.671995    14A     -0.640882    15A     -0.619657
      16A     -0.596299    17A     -0.569102    18A     -0.564480
      19A     -0.537375    20A     -0.523190    21A     -0.520487
      22A     -0.416592    23A     -0.347519

  @DF-RHF Final Energy:  -268.91933360666042

   => Energetics <=

    Nuclear Repulsion Energy =            216.1640091139325932
    One-Electron Energy =                -792.3469702903688585
    Two-Electron Energy =                 307.2636275697758492
    Total Energy =                       -268.9193336066604161
  Basis Set: (AUG-CC-PVTZ AUX)
    Blend: AUG-CC-PVTZ-RI
    Molecular point group: c1

    Geometry (in Angstrom), charge = 0, multiplicity = 1:

       Center              X                  Y                   Z               Mass
    ------------   -----------------  -----------------  -----------------  -----------------
         O           -2.623105417152    -0.226299352547    -0.000291156243    15.994914619570
         C            0.991206582848    -0.028763352547     0.000105843757    12.000000000000
         C            2.159455582848    -0.974337352547     0.000215843757    12.000000000000
         C            1.371562582848     1.426909647453     0.000186843757    12.000000000000
         C           -0.366732617152    -0.543386252547    -0.000056356243    12.000000000000
         C           -1.504110417152     0.288226647453    -0.000161156243    12.000000000000
         H            2.790011582848    -0.804855352547     0.880719843757     1.007825032230
         H            2.790180582848    -0.804848352547    -0.880166156243     1.007825032230
         H            1.836212582848    -2.017857352547     0.000179843757     1.007825032230
         H            1.986138582848     1.649100647453    -0.879420156243     1.007825032230
         H            1.985880582848     1.649069647453     0.879982843757     1.007825032230
         H            0.520056582848     2.106693647453     0.000073843757     1.007825032230
         H           -0.440840417152    -1.583671352547    -0.000086156243     1.007825032230
         H           -1.406601417152     1.389824647453    -0.000128156243     1.007825032230

  Basis Set: AUG-CC-PVTZ
    Blend: AUG-CC-PVTZ
  Basis Set: (AUG-CC-PVTZ AUX)
    Blend: AUG-CC-PVTZ-JKFIT
	 Reference Energy          =    -268.9193336066604161 [Eh]
	 Singles Energy            =      -0.0000000000000000 [Eh]
	 Same-Spin Energy          =      -0.2727277970578981 [Eh]
	 Opposite-Spin Energy      =      -0.9181877232334867 [Eh]
	 Correlation Energy        =      -1.1909155202913848 [Eh]
	 Total Energy              =    -270.1102491269518282 [Eh]

	 ================> DF-SCS-MP2 Energies <==================
	-----------------------------------------------------------
	 SCS Same-Spin Scale       =       0.3333333333333333 [-]
	 SCS Opposite-Spin Scale   =       1.2000000000000000 [-]
	 SCS Same-Spin Energy      =      -0.0909092656859660 [Eh]
	 SCS Opposite-Spin Energy  =      -1.1018252678801841 [Eh]
	 SCS Correlation Energy    =      -1.1927345335661501 [Eh]
	 SCS Total Energy          =    -270.1120681402265404 [Eh]
	-----------------------------------------------------------

  Dipole Moment: [D]
     X:     4.3651      Y:     0.9368      Z:     0.0005     Total:     4.4644

*** Psi4 exiting successfully. Buy a developer a beer!
