                               Psi4 1.4a3.dev225

  ==> Input File <==

--------------------------------------------------------------------------
#psi4
#
memory 32 gb

molecule  {
0 1
  O       -2.7436610    -0.2479860    -0.0003050
  C        0.8706510    -0.0504500     0.0000920
  C        1.9700943    -1.0752136     0.0001927
  C        1.2510070     1.4052230     0.0001730
  C       -0.3937780    -0.5296350    -0.0000590
  C       -1.6246660     0.2665400    -0.0001750
  H        2.6694560    -0.8265420     0.8807060
  H        2.6696250    -0.8265350    -0.8801800
  H        1.7156570    -2.0395440     0.0001660
  H        1.8655830     1.6274140    -0.8794340
  H        1.8653250     1.6273830     0.8799690
  H        0.3995010     2.0850070     0.0000600
  H       -0.5613960    -1.6053580    -0.0001000
  H       -1.5271570     1.3681380    -0.0001420
units angstrom
no_reorient  #important for SAPT in psi4, default
symmetry c1  #important for SAPT in psi4, default
}

set PROPERTIES_ORIGIN ["COM"]
properties('MP2/aug-cc-pvtz', properties = ['dipole'])
--------------------------------------------------------------------------

    Molecular point group: c1
  Charge       = 0
  Multiplicity = 1
  Basis Set: AUG-CC-PVTZ
    Blend: AUG-CC-PVTZ
  Basis Set: (AUG-CC-PVTZ AUX)
    Blend: AUG-CC-PVTZ-JKFIT

    Orbital Energies [Eh]
    ---------------------

    Doubly Occupied:

       1A    -20.543107     2A    -11.326054     3A    -11.284148
       4A    -11.250236     5A    -11.246010     6A    -11.233875
       7A     -1.366058     8A     -1.125266     9A     -0.982535
      10A     -0.972959    11A     -0.829635    12A     -0.746271
      13A     -0.678704    14A     -0.639302    15A     -0.609889
      16A     -0.605049    17A     -0.567432    18A     -0.542826
      19A     -0.540791    20A     -0.529014    21A     -0.520612
      22A     -0.417311    23A     -0.364276

  @DF-RHF Final Energy:  -268.92320988296740

   => Energetics <=

    Nuclear Repulsion Energy =            216.8007505144223046
    One-Electron Energy =                -793.6051982241147016
    Two-Electron Energy =                 307.8812378267249414
    Total Energy =                       -268.9232098829673987
  Basis Set: (AUG-CC-PVTZ AUX)
    Blend: AUG-CC-PVTZ-RI
    Molecular point group: c1

    Geometry (in Angstrom), charge = 0, multiplicity = 1:

       Center              X                  Y                   Z               Mass
    ------------   -----------------  -----------------  -----------------  -----------------
         O           -2.626632216635    -0.220053386309    -0.000291427486    15.994914619570
         C            0.987679783365    -0.022517386309     0.000105572514    12.000000000000
         C            2.087123083365    -1.047280986309     0.000206272514    12.000000000000
         C            1.368035783365     1.433155613691     0.000186572514    12.000000000000
         C           -0.276749216635    -0.501702386309    -0.000045427486    12.000000000000
         C           -1.507637216635     0.294472613691    -0.000161427486    12.000000000000
         H            2.786484783365    -0.798609386309     0.880719572514     1.007825032230
         H            2.786653783365    -0.798602386309    -0.880166427486     1.007825032230
         H            1.832685783365    -2.011611386309     0.000179572514     1.007825032230
         H            1.982611783365     1.655346613691    -0.879420427486     1.007825032230
         H            1.982353783365     1.655315613691     0.879982572514     1.007825032230
         H            0.516529783365     2.112939613691     0.000073572514     1.007825032230
         H           -0.444367216635    -1.577425386309    -0.000086427486     1.007825032230
         H           -1.410128216635     1.396070613691    -0.000128427486     1.007825032230

  Basis Set: AUG-CC-PVTZ
    Blend: AUG-CC-PVTZ
  Basis Set: (AUG-CC-PVTZ AUX)
    Blend: AUG-CC-PVTZ-JKFIT
	 Reference Energy          =    -268.9232098829673987 [Eh]
	 Singles Energy            =      -0.0000000000000000 [Eh]
	 Same-Spin Energy          =      -0.2714268373619515 [Eh]
	 Opposite-Spin Energy      =      -0.9162919805558752 [Eh]
	 Correlation Energy        =      -1.1877188179178266 [Eh]
	 Total Energy              =    -270.1109287008852107 [Eh]

	 ================> DF-SCS-MP2 Energies <==================
	-----------------------------------------------------------
	 SCS Same-Spin Scale       =       0.3333333333333333 [-]
	 SCS Opposite-Spin Scale   =       1.2000000000000000 [-]
	 SCS Same-Spin Energy      =      -0.0904756124539838 [Eh]
	 SCS Opposite-Spin Energy  =      -1.0995503766670502 [Eh]
	 SCS Correlation Energy    =      -1.1900259891210341 [Eh]
	 SCS Total Energy          =    -270.1132358720884099 [Eh]
	-----------------------------------------------------------

  Dipole Moment: [D]
     X:     4.1404      Y:     0.9822      Z:     0.0005     Total:     4.2554

*** Psi4 exiting successfully. Buy a developer a beer!
