                               Psi4 1.4a3.dev225

  ==> Input File <==

--------------------------------------------------------------------------
#psi4
#
memory 32 gb

molecule  {
0 1
  O       -2.7436610    -0.2479860    -0.0003050
  C        0.8706510    -0.0504500     0.0000920
  C        2.1313396    -0.8687288     0.0002150
  C        1.2510070     1.4052230     0.0001730
  C       -0.3937780    -0.5296350    -0.0000590
  C       -1.6246660     0.2665400    -0.0001750
  H        2.6694560    -0.8265420     0.8807060
  H        2.6696250    -0.8265350    -0.8801800
  H        1.7156570    -2.0395440     0.0001660
  H        1.8655830     1.6274140    -0.8794340
  H        1.8653250     1.6273830     0.8799690
  H        0.3995010     2.0850070     0.0000600
  H       -0.5613960    -1.6053580    -0.0001000
  H       -1.5271570     1.3681380    -0.0001420
units angstrom
no_reorient  #important for SAPT in psi4, default
symmetry c1  #important for SAPT in psi4, default
}

set PROPERTIES_ORIGIN ["COM"]
properties('MP2/aug-cc-pvtz', properties = ['dipole'])
--------------------------------------------------------------------------

    Molecular point group: c1
  Charge       = 0
  Multiplicity = 1
  Basis Set: AUG-CC-PVTZ
    Blend: AUG-CC-PVTZ
  Basis Set: (AUG-CC-PVTZ AUX)
    Blend: AUG-CC-PVTZ-JKFIT

    Orbital Energies [Eh]
    ---------------------

    Doubly Occupied:

       1A    -20.546756     2A    -11.329979     3A    -11.284815
       4A    -11.246132     5A    -11.244624     6A    -11.239782
       7A     -1.369294     8A     -1.125515     9A     -0.992416
      10A     -0.963141    11A     -0.834511    12A     -0.746260
      13A     -0.666645    14A     -0.642020    15A     -0.641689
      16A     -0.600645    17A     -0.576222    18A     -0.554349
      19A     -0.540034    20A     -0.524719    21A     -0.479273
      22A     -0.421803    23A     -0.371759

  @DF-RHF Final Energy:  -268.91203259542471

   => Energetics <=

    Nuclear Repulsion Energy =            216.7075089874912805
    One-Electron Energy =                -793.3543178758819749
    Two-Electron Energy =                 307.7347762929660462
    Total Energy =                       -268.9120325954247051
  Basis Set: (AUG-CC-PVTZ AUX)
    Blend: AUG-CC-PVTZ-RI
    Molecular point group: c1

    Geometry (in Angstrom), charge = 0, multiplicity = 1:

       Center              X                  Y                   Z               Mass
    ------------   -----------------  -----------------  -----------------  -----------------
         O           -2.649651498169    -0.249531031509    -0.000294611020    15.994914619570
         C            0.964660501831    -0.051995031509     0.000102388980    12.000000000000
         C            2.225349101831    -0.870273831509     0.000225388980    12.000000000000
         C            1.345016501831     1.403677968491     0.000183388980    12.000000000000
         C           -0.299768498169    -0.531180031509    -0.000048611020    12.000000000000
         C           -1.530656498169     0.264994968491    -0.000164611020    12.000000000000
         H            2.763465501831    -0.828087031509     0.880716388980     1.007825032230
         H            2.763634501831    -0.828080031509    -0.880169611020     1.007825032230
         H            1.809666501831    -2.041089031509     0.000176388980     1.007825032230
         H            1.959592501831     1.625868968491    -0.879423611020     1.007825032230
         H            1.959334501831     1.625837968491     0.879979388980     1.007825032230
         H            0.493510501831     2.083461968491     0.000070388980     1.007825032230
         H           -0.467386498169    -1.606903031509    -0.000089611020     1.007825032230
         H           -1.433147498169     1.366592968491    -0.000131611020     1.007825032230

  Basis Set: AUG-CC-PVTZ
    Blend: AUG-CC-PVTZ
  Basis Set: (AUG-CC-PVTZ AUX)
    Blend: AUG-CC-PVTZ-JKFIT
	 Reference Energy          =    -268.9120325954247051 [Eh]
	 Singles Energy            =      -0.0000000000000000 [Eh]
	 Same-Spin Energy          =      -0.2717045405782181 [Eh]
	 Opposite-Spin Energy      =      -0.9176030487570251 [Eh]
	 Correlation Energy        =      -1.1893075893352432 [Eh]
	 Total Energy              =    -270.1013401847599198 [Eh]

	 ================> DF-SCS-MP2 Energies <==================
	-----------------------------------------------------------
	 SCS Same-Spin Scale       =       0.3333333333333333 [-]
	 SCS Opposite-Spin Scale   =       1.2000000000000000 [-]
	 SCS Same-Spin Energy      =      -0.0905681801927394 [Eh]
	 SCS Opposite-Spin Energy  =      -1.1011236585084301 [Eh]
	 SCS Correlation Energy    =      -1.1916918387011695 [Eh]
	 SCS Total Energy          =    -270.1037244341258656 [Eh]
	-----------------------------------------------------------

  Dipole Moment: [D]
     X:     4.0405      Y:     1.0340      Z:     0.0005     Total:     4.1707

*** Psi4 exiting successfully. Buy a developer a beer!
