                               Psi4 1.4a3.dev225

  ==> Input File <==

--------------------------------------------------------------------------
#psi4
#
memory 32 gb

molecule  {
0 1
  O       -2.7436610    -0.2479860    -0.0003050
  C        0.8706510    -0.0504500     0.0000920
  C        2.0389000    -0.9960240     0.0002020
  C        1.2510070     1.4052230     0.0001730
  C       -0.3937780    -0.5296350    -0.0000590
  C       -1.8063771     0.1829873    -0.0001961
  H        2.6694560    -0.8265420     0.8807060
  H        2.6696250    -0.8265350    -0.8801800
  H        1.7156570    -2.0395440     0.0001660
  H        1.8655830     1.6274140    -0.8794340
  H        1.8653250     1.6273830     0.8799690
  H        0.3995010     2.0850070     0.0000600
  H       -0.5613960    -1.6053580    -0.0001000
  H       -1.5271570     1.3681380    -0.0001420
units angstrom
no_reorient  #important for SAPT in psi4, default
symmetry c1  #important for SAPT in psi4, default
}

set PROPERTIES_ORIGIN ["COM"]
properties('MP2/aug-cc-pvtz', properties = ['dipole'])
--------------------------------------------------------------------------

    Molecular point group: c1
  Charge       = 0
  Multiplicity = 1
  Basis Set: AUG-CC-PVTZ
    Blend: AUG-CC-PVTZ
  Basis Set: (AUG-CC-PVTZ AUX)
    Blend: AUG-CC-PVTZ-JKFIT

    Orbital Energies [Eh]
    ---------------------

    Doubly Occupied:

       1A    -20.566133     2A    -11.323121     3A    -11.268604
       4A    -11.235406     5A    -11.233942     6A    -11.227505
       7A     -1.533601     8A     -1.106979     9A     -0.958108
      10A     -0.955155    11A     -0.803231    12A     -0.746691
      13A     -0.702228    14A     -0.663839    15A     -0.633294
      16A     -0.615940    17A     -0.604709    18A     -0.559123
      19A     -0.550088    20A     -0.532379    21A     -0.511178
      22A     -0.374178    23A     -0.361951

  @DF-RHF Final Energy:  -268.86725977627401

   => Energetics <=

    Nuclear Repulsion Energy =            218.2230150774533399
    One-Electron Energy =                -796.0457793893034477
    Two-Electron Energy =                 308.9555045355760399
    Total Energy =                       -268.8672597762740111
  Basis Set: (AUG-CC-PVTZ AUX)
    Blend: AUG-CC-PVTZ-RI
    Molecular point group: c1

    Geometry (in Angstrom), charge = 0, multiplicity = 1:

       Center              X                  Y                   Z               Mass
    ------------   -----------------  -----------------  -----------------  -----------------
         O           -2.610513909997    -0.219430512791    -0.000289742925    15.994914619570
         C            1.003798090003    -0.021894512791     0.000107257075    12.000000000000
         C            2.172047090003    -0.967468512791     0.000217257075    12.000000000000
         C            1.384154090003     1.433778487209     0.000188257075    12.000000000000
         C           -0.260630909997    -0.501079512791    -0.000043742925    12.000000000000
         C           -1.673230009997     0.211542787209    -0.000180842925    12.000000000000
         H            2.802603090003    -0.797986512791     0.880721257075     1.007825032230
         H            2.802772090003    -0.797979512791    -0.880164742925     1.007825032230
         H            1.848804090003    -2.010988512791     0.000181257075     1.007825032230
         H            1.998730090003     1.655969487209    -0.879418742925     1.007825032230
         H            1.998472090003     1.655938487209     0.879984257075     1.007825032230
         H            0.532648090003     2.113562487209     0.000075257075     1.007825032230
         H           -0.428248909997    -1.576802512791    -0.000084742925     1.007825032230
         H           -1.394009909997     1.396693487209    -0.000126742925     1.007825032230

  Basis Set: AUG-CC-PVTZ
    Blend: AUG-CC-PVTZ
  Basis Set: (AUG-CC-PVTZ AUX)
    Blend: AUG-CC-PVTZ-JKFIT
	 Reference Energy          =    -268.8672597762740111 [Eh]
	 Singles Energy            =      -0.0000000000000000 [Eh]
	 Same-Spin Energy          =      -0.2665487232216179 [Eh]
	 Opposite-Spin Energy      =      -0.9060208510069663 [Eh]
	 Correlation Energy        =      -1.1725695742285842 [Eh]
	 Total Energy              =    -270.0398293505026004 [Eh]

	 ================> DF-SCS-MP2 Energies <==================
	-----------------------------------------------------------
	 SCS Same-Spin Scale       =       0.3333333333333333 [-]
	 SCS Opposite-Spin Scale   =       1.2000000000000000 [-]
	 SCS Same-Spin Energy      =      -0.0888495744072060 [Eh]
	 SCS Opposite-Spin Energy  =      -1.0872250212083594 [Eh]
	 SCS Correlation Energy    =      -1.1760745956155654 [Eh]
	 SCS Total Energy          =    -270.0433343718895571 [Eh]
	-----------------------------------------------------------

  Dipole Moment: [D]
     X:     2.6130      Y:     0.4757      Z:     0.0003     Total:     2.6559

*** Psi4 exiting successfully. Buy a developer a beer!
