                               Psi4 1.4a3.dev225

  ==> Input File <==

--------------------------------------------------------------------------
#psi4
#
memory 32 gb

molecule  {
0 1
  O       -2.7436610    -0.2479860    -0.0003050
  C        0.8706510    -0.0504500     0.0000920
  C        2.0389000    -0.9960240     0.0002020
  C        1.2510070     1.4052230     0.0001730
  C       -0.3937780    -0.5296350    -0.0000590
  C       -1.6700938     0.2456518    -0.0001803
  H        2.6694560    -0.8265420     0.8807060
  H        2.6696250    -0.8265350    -0.8801800
  H        1.7156570    -2.0395440     0.0001660
  H        1.8655830     1.6274140    -0.8794340
  H        1.8653250     1.6273830     0.8799690
  H        0.3995010     2.0850070     0.0000600
  H       -0.5613960    -1.6053580    -0.0001000
  H       -1.5271570     1.3681380    -0.0001420
units angstrom
no_reorient  #important for SAPT in psi4, default
symmetry c1  #important for SAPT in psi4, default
}

set PROPERTIES_ORIGIN ["COM"]
properties('MP2/aug-cc-pvtz', properties = ['dipole'])
--------------------------------------------------------------------------

    Molecular point group: c1
  Charge       = 0
  Multiplicity = 1
  Basis Set: AUG-CC-PVTZ
    Blend: AUG-CC-PVTZ
  Basis Set: (AUG-CC-PVTZ AUX)
    Blend: AUG-CC-PVTZ-JKFIT

    Orbital Energies [Eh]
    ---------------------

    Doubly Occupied:

       1A    -20.549024     2A    -11.326290     3A    -11.279468
       4A    -11.244562     5A    -11.240932     6A    -11.234167
       7A     -1.403901     8A     -1.119844     9A     -0.978546
      10A     -0.964758    11A     -0.824088    12A     -0.741712
      13A     -0.670078    14A     -0.646614    15A     -0.615101
      16A     -0.608240    17A     -0.557920    18A     -0.557712
      19A     -0.543472    20A     -0.542694    21A     -0.515690
      22A     -0.412064    23A     -0.367351

  @DF-RHF Final Energy:  -268.93760403120945

   => Energetics <=

    Nuclear Repulsion Energy =            216.9593991124973513
    One-Electron Energy =                -793.9055474402319987
    Two-Electron Energy =                 308.0085442965251445
    Total Energy =                       -268.9376040312094460
  Basis Set: (AUG-CC-PVTZ AUX)
    Blend: AUG-CC-PVTZ-RI
    Molecular point group: c1

    Geometry (in Angstrom), charge = 0, multiplicity = 1:

       Center              X                  Y                   Z               Mass
    ------------   -----------------  -----------------  -----------------  -----------------
         O           -2.629969631504    -0.228376458922    -0.000291998524    15.994914619570
         C            0.984342368496    -0.030840458922     0.000105001476    12.000000000000
         C            2.152591368496    -0.976414458922     0.000215001476    12.000000000000
         C            1.364698368496     1.424832541078     0.000186001476    12.000000000000
         C           -0.280086631504    -0.510025458922    -0.000045998524    12.000000000000
         C           -1.556402431504     0.265261341078    -0.000167298524    12.000000000000
         H            2.783147368496    -0.806932458922     0.880719001476     1.007825032230
         H            2.783316368496    -0.806925458922    -0.880166998524     1.007825032230
         H            1.829348368496    -2.019934458922     0.000179001476     1.007825032230
         H            1.979274368496     1.647023541078    -0.879420998524     1.007825032230
         H            1.979016368496     1.646992541078     0.879982001476     1.007825032230
         H            0.513192368496     2.104616541078     0.000073001476     1.007825032230
         H           -0.447704631504    -1.585748458922    -0.000086998524     1.007825032230
         H           -1.413465631504     1.387747541078    -0.000128998524     1.007825032230

  Basis Set: AUG-CC-PVTZ
    Blend: AUG-CC-PVTZ
  Basis Set: (AUG-CC-PVTZ AUX)
    Blend: AUG-CC-PVTZ-JKFIT
	 Reference Energy          =    -268.9376040312094460 [Eh]
	 Singles Energy            =      -0.0000000000000000 [Eh]
	 Same-Spin Energy          =      -0.2697713414149731 [Eh]
	 Opposite-Spin Energy      =      -0.9129499359172669 [Eh]
	 Correlation Energy        =      -1.1827212773322400 [Eh]
	 Total Energy              =    -270.1203253085416804 [Eh]

	 ================> DF-SCS-MP2 Energies <==================
	-----------------------------------------------------------
	 SCS Same-Spin Scale       =       0.3333333333333333 [-]
	 SCS Opposite-Spin Scale   =       1.2000000000000000 [-]
	 SCS Same-Spin Energy      =      -0.0899237804716577 [Eh]
	 SCS Opposite-Spin Energy  =      -1.0955399231007203 [Eh]
	 SCS Correlation Energy    =      -1.1854637035723781 [Eh]
	 SCS Total Energy          =    -270.1230677347818414 [Eh]
	-----------------------------------------------------------

  Dipole Moment: [D]
     X:     3.8015      Y:     0.8961      Z:     0.0004     Total:     3.9057

*** Psi4 exiting successfully. Buy a developer a beer!
