                               Psi4 1.4a3.dev225

  ==> Input File <==

--------------------------------------------------------------------------
#psi4
#
memory 32 gb

molecule  {
0 1
  O       -2.7436610    -0.2479860    -0.0003050
  C        0.8706510    -0.0504500     0.0000920
  C        2.0389000    -0.9960240     0.0002020
  C        1.2383668     1.3568471     0.0001703
  C       -0.3937780    -0.5296350    -0.0000590
  C       -1.6246660     0.2665400    -0.0001750
  H        2.6694560    -0.8265420     0.8807060
  H        2.6696250    -0.8265350    -0.8801800
  H        1.7156570    -2.0395440     0.0001660
  H        1.8655830     1.6274140    -0.8794340
  H        1.8653250     1.6273830     0.8799690
  H        0.3995010     2.0850070     0.0000600
  H       -0.5613960    -1.6053580    -0.0001000
  H       -1.5271570     1.3681380    -0.0001420
units angstrom
no_reorient  #important for SAPT in psi4, default
symmetry c1  #important for SAPT in psi4, default
}

set PROPERTIES_ORIGIN ["COM"]
properties('MP2/aug-cc-pvtz', properties = ['dipole'])
--------------------------------------------------------------------------

    Molecular point group: c1
  Charge       = 0
  Multiplicity = 1
  Basis Set: AUG-CC-PVTZ
    Blend: AUG-CC-PVTZ
  Basis Set: (AUG-CC-PVTZ AUX)
    Blend: AUG-CC-PVTZ-JKFIT

    Orbital Energies [Eh]
    ---------------------

    Doubly Occupied:

       1A    -20.544421     2A    -11.327356     3A    -11.280790
       4A    -11.249326     5A    -11.243027     6A    -11.236161
       7A     -1.367192     8A     -1.130799     9A     -0.986594
      10A     -0.967135    11A     -0.830759    12A     -0.746126
      13A     -0.673458    14A     -0.642168    15A     -0.616762
      16A     -0.600230    17A     -0.557187    18A     -0.555181
      19A     -0.539756    20A     -0.522937    21A     -0.522203
      22A     -0.418804    23A     -0.366401

  @DF-RHF Final Energy:  -268.93300322952234

   => Energetics <=

    Nuclear Repulsion Energy =            217.4256474231856373
    One-Electron Energy =                -794.8677569191137309
    Two-Electron Energy =                 308.5091062664057517
    Total Energy =                       -268.9330032295223418
  Basis Set: (AUG-CC-PVTZ AUX)
    Blend: AUG-CC-PVTZ-RI
    Molecular point group: c1

    Geometry (in Angstrom), charge = 0, multiplicity = 1:

       Center              X                  Y                   Z               Mass
    ------------   -----------------  -----------------  -----------------  -----------------
         O           -2.634650369455    -0.224452331490    -0.000292369698    15.994914619570
         C            0.979661630545    -0.026916331490     0.000104630302    12.000000000000
         C            2.147910630545    -0.972490331490     0.000214630302    12.000000000000
         C            1.347377430545     1.380380768510     0.000182930302    12.000000000000
         C           -0.284767369455    -0.506101331490    -0.000046369698    12.000000000000
         C           -1.515655369455     0.290073668510    -0.000162369698    12.000000000000
         H            2.778466630545    -0.803008331490     0.880718630302     1.007825032230
         H            2.778635630545    -0.803001331490    -0.880167369698     1.007825032230
         H            1.824667630545    -2.016010331490     0.000178630302     1.007825032230
         H            1.974593630545     1.650947668510    -0.879421369698     1.007825032230
         H            1.974335630545     1.650916668510     0.879981630302     1.007825032230
         H            0.508511630545     2.108540668510     0.000072630302     1.007825032230
         H           -0.452385369455    -1.581824331490    -0.000087369698     1.007825032230
         H           -1.418146369455     1.391671668510    -0.000129369698     1.007825032230

  Basis Set: AUG-CC-PVTZ
    Blend: AUG-CC-PVTZ
  Basis Set: (AUG-CC-PVTZ AUX)
    Blend: AUG-CC-PVTZ-JKFIT
	 Reference Energy          =    -268.9330032295223418 [Eh]
	 Singles Energy            =      -0.0000000000000000 [Eh]
	 Same-Spin Energy          =      -0.2717877167689373 [Eh]
	 Opposite-Spin Energy      =      -0.9165169435798984 [Eh]
	 Correlation Energy        =      -1.1883046603488356 [Eh]
	 Total Energy              =    -270.1213078898711615 [Eh]

	 ================> DF-SCS-MP2 Energies <==================
	-----------------------------------------------------------
	 SCS Same-Spin Scale       =       0.3333333333333333 [-]
	 SCS Opposite-Spin Scale   =       1.2000000000000000 [-]
	 SCS Same-Spin Energy      =      -0.0905959055896458 [Eh]
	 SCS Opposite-Spin Energy  =      -1.0998203322958782 [Eh]
	 SCS Correlation Energy    =      -1.1904162378855239 [Eh]
	 SCS Total Energy          =    -270.1234194674078708 [Eh]
	-----------------------------------------------------------

  Dipole Moment: [D]
     X:     4.1195      Y:     1.0041      Z:     0.0005     Total:     4.2401

*** Psi4 exiting successfully. Buy a developer a beer!
