                               Psi4 1.4a3.dev225

  ==> Input File <==

--------------------------------------------------------------------------
#psi4
#
memory 32 gb

molecule  {
0 1
  O       -2.7436610    -0.2479860    -0.0003050
  C        0.8706510    -0.0504500     0.0000920
  C        2.0389000    -0.9960240     0.0002020
  C        1.2510070     1.4052230     0.0001730
  C       -0.3937780    -0.5296350    -0.0000590
  C       -1.6428371     0.2581847    -0.0001771
  H        2.6694560    -0.8265420     0.8807060
  H        2.6696250    -0.8265350    -0.8801800
  H        1.7156570    -2.0395440     0.0001660
  H        1.8655830     1.6274140    -0.8794340
  H        1.8653250     1.6273830     0.8799690
  H        0.3995010     2.0850070     0.0000600
  H       -0.5613960    -1.6053580    -0.0001000
  H       -1.5271570     1.3681380    -0.0001420
units angstrom
no_reorient  #important for SAPT in psi4, default
symmetry c1  #important for SAPT in psi4, default
}

set PROPERTIES_ORIGIN ["COM"]
properties('MP2/aug-cc-pvtz', properties = ['dipole'])
--------------------------------------------------------------------------

    Molecular point group: c1
  Charge       = 0
  Multiplicity = 1
  Basis Set: AUG-CC-PVTZ
    Blend: AUG-CC-PVTZ
  Basis Set: (AUG-CC-PVTZ AUX)
    Blend: AUG-CC-PVTZ-JKFIT

    Orbital Energies [Eh]
    ---------------------

    Doubly Occupied:

       1A    -20.546220     2A    -11.327013     3A    -11.281716
       4A    -11.246266     5A    -11.242309     6A    -11.235192
       7A     -1.381454     8A     -1.122532     9A     -0.982839
      10A     -0.966510    11A     -0.828048    12A     -0.743468
      13A     -0.669138    14A     -0.642548    15A     -0.616599
      16A     -0.604140    17A     -0.559428    18A     -0.557376
      19A     -0.544527    20A     -0.530469    21A     -0.516435
      22A     -0.416684    23A     -0.367556

  @DF-RHF Final Energy:  -268.93789501384686

   => Energetics <=

    Nuclear Repulsion Energy =            216.8068188743120004
    One-Electron Energy =                -793.6324930848315944
    Two-Electron Energy =                 307.8877791966726818
    Total Energy =                       -268.9378950138468554
  Basis Set: (AUG-CC-PVTZ AUX)
    Blend: AUG-CC-PVTZ-RI
    Molecular point group: c1

    Geometry (in Angstrom), charge = 0, multiplicity = 1:

       Center              X                  Y                   Z               Mass
    ------------   -----------------  -----------------  -----------------  -----------------
         O           -2.633860781515    -0.230165648148    -0.000292455354    15.994914619570
         C            0.980451218485    -0.032629648148     0.000104544646    12.000000000000
         C            2.148700218485    -0.978203648148     0.000214544646    12.000000000000
         C            1.360807218485     1.423043351852     0.000185544646    12.000000000000
         C           -0.283977781515    -0.511814648148    -0.000046455354    12.000000000000
         C           -1.533036881515     0.276005051852    -0.000164555354    12.000000000000
         H            2.779256218485    -0.808721648148     0.880718544646     1.007825032230
         H            2.779425218485    -0.808714648148    -0.880167455354     1.007825032230
         H            1.825457218485    -2.021723648148     0.000178544646     1.007825032230
         H            1.975383218485     1.645234351852    -0.879421455354     1.007825032230
         H            1.975125218485     1.645203351852     0.879981544646     1.007825032230
         H            0.509301218485     2.102827351852     0.000072544646     1.007825032230
         H           -0.451595781515    -1.587537648148    -0.000087455354     1.007825032230
         H           -1.417356781515     1.385958351852    -0.000129455354     1.007825032230

  Basis Set: AUG-CC-PVTZ
    Blend: AUG-CC-PVTZ
  Basis Set: (AUG-CC-PVTZ AUX)
    Blend: AUG-CC-PVTZ-JKFIT
	 Reference Energy          =    -268.9378950138468554 [Eh]
	 Singles Energy            =      -0.0000000000000000 [Eh]
	 Same-Spin Energy          =      -0.2706061617686860 [Eh]
	 Opposite-Spin Energy      =      -0.9146803229112009 [Eh]
	 Correlation Energy        =      -1.1852864846798870 [Eh]
	 Total Energy              =    -270.1231814985267192 [Eh]

	 ================> DF-SCS-MP2 Energies <==================
	-----------------------------------------------------------
	 SCS Same-Spin Scale       =       0.3333333333333333 [-]
	 SCS Opposite-Spin Scale   =       1.2000000000000000 [-]
	 SCS Same-Spin Energy      =      -0.0902020539228953 [Eh]
	 SCS Opposite-Spin Energy  =      -1.0976163874934410 [Eh]
	 SCS Correlation Energy    =      -1.1878184414163364 [Eh]
	 SCS Total Energy          =    -270.1257134552631669 [Eh]
	-----------------------------------------------------------

  Dipole Moment: [D]
     X:     3.9944      Y:     0.9479      Z:     0.0005     Total:     4.1053

*** Psi4 exiting successfully. Buy a developer a beer!
