                               Psi4 1.4a3.dev225

  ==> Input File <==

--------------------------------------------------------------------------
#psi4
#
memory 32 gb

molecule  {
0 1
  O       -2.7436610    -0.2479860    -0.0003050
  C        0.8706510    -0.0504500     0.0000920
  C        2.0389000    -0.9960240     0.0002020
  C        1.2510070     1.4052230     0.0001730
  C       -0.3937780    -0.5296350    -0.0000590
  C       -1.6246660     0.2665400    -0.0001750
  H        2.6694560    -0.8265420     0.8807060
  H        2.6696250    -0.8265350    -0.8801800
  H        1.7156570    -2.0395440     0.0001660
  H        1.8655830     1.6274140    -0.8794340
  H        1.8372945     1.6172461     0.8398251
  H        0.3995010     2.0850070     0.0000600
  H       -0.5613960    -1.6053580    -0.0001000
  H       -1.5271570     1.3681380    -0.0001420
units angstrom
no_reorient  #important for SAPT in psi4, default
symmetry c1  #important for SAPT in psi4, default
}

set PROPERTIES_ORIGIN ["COM"]
properties('MP2/aug-cc-pvtz', properties = ['dipole'])
--------------------------------------------------------------------------

    Molecular point group: c1
  Charge       = 0
  Multiplicity = 1
  Basis Set: AUG-CC-PVTZ
    Blend: AUG-CC-PVTZ
  Basis Set: (AUG-CC-PVTZ AUX)
    Blend: AUG-CC-PVTZ-JKFIT

    Orbital Energies [Eh]
    ---------------------

    Doubly Occupied:

       1A    -20.544129     2A    -11.327234     3A    -11.282885
       4A    -11.243298     5A    -11.241381     6A    -11.235478
       7A     -1.366949     8A     -1.124895     9A     -0.986926
      10A     -0.970745    11A     -0.830691    12A     -0.745766
      13A     -0.668873    14A     -0.641338    15A     -0.621235
      16A     -0.600884    17A     -0.564457    18A     -0.557329
      19A     -0.546606    20A     -0.522463    21A     -0.516666
      22A     -0.418846    23A     -0.367509

  @DF-RHF Final Energy:  -268.93533992464990

   => Energetics <=

    Nuclear Repulsion Energy =            216.9378675131110299
    One-Electron Energy =                -793.8932514765972428
    Two-Electron Energy =                 308.0200440388362608
    Total Energy =                       -268.9353399246498952
  Basis Set: (AUG-CC-PVTZ AUX)
    Blend: AUG-CC-PVTZ-RI
    Molecular point group: c1

    Geometry (in Angstrom), charge = 0, multiplicity = 1:

       Center              X                  Y                   Z               Mass
    ------------   -----------------  -----------------  -----------------  -----------------
         O           -2.636118799263    -0.231236907256     0.000188558478    15.994914619570
         C            0.978193200737    -0.033700907256     0.000585558478    12.000000000000
         C            2.146442200737    -0.979274907256     0.000695558478    12.000000000000
         C            1.358549200737     1.421972092744     0.000666558478    12.000000000000
         C           -0.286235799263    -0.512885907256     0.000434558478    12.000000000000
         C           -1.517123799263     0.283289092744     0.000318558478    12.000000000000
         H            2.776998200737    -0.809792907256     0.881199558478     1.007825032230
         H            2.777167200737    -0.809785907256    -0.879686441522     1.007825032230
         H            1.823199200737    -2.022794907256     0.000659558478     1.007825032230
         H            1.973125200737     1.644163092744    -0.878940441522     1.007825032230
         H            1.944836700737     1.633995192744     0.840318658478     1.007825032230
         H            0.507043200737     2.101756092744     0.000553558478     1.007825032230
         H           -0.453853799263    -1.588608907256     0.000393558478     1.007825032230
         H           -1.419614799263     1.384887092744     0.000351558478     1.007825032230

  Basis Set: AUG-CC-PVTZ
    Blend: AUG-CC-PVTZ
  Basis Set: (AUG-CC-PVTZ AUX)
    Blend: AUG-CC-PVTZ-JKFIT
	 Reference Energy          =    -268.9353399246498952 [Eh]
	 Singles Energy            =      -0.0000000000000000 [Eh]
	 Same-Spin Energy          =      -0.2712036388974999 [Eh]
	 Opposite-Spin Energy      =      -0.9156297012092546 [Eh]
	 Correlation Energy        =      -1.1868333401067543 [Eh]
	 Total Energy              =    -270.1221732647566682 [Eh]

	 ================> DF-SCS-MP2 Energies <==================
	-----------------------------------------------------------
	 SCS Same-Spin Scale       =       0.3333333333333333 [-]
	 SCS Opposite-Spin Scale   =       1.2000000000000000 [-]
	 SCS Same-Spin Energy      =      -0.0904012129658333 [Eh]
	 SCS Opposite-Spin Energy  =      -1.0987556414511055 [Eh]
	 SCS Correlation Energy    =      -1.1891568544169389 [Eh]
	 SCS Total Energy          =    -270.1244967790668170 [Eh]
	-----------------------------------------------------------

  Dipole Moment: [D]
     X:     4.1308      Y:     0.9852      Z:     0.0120     Total:     4.2467

*** Psi4 exiting successfully. Buy a developer a beer!
