                               Psi4 1.4a3.dev225

  ==> Input File <==

--------------------------------------------------------------------------
#psi4
#
memory 32 gb

molecule  {
0 1
  O       -2.7436610    -0.2479860    -0.0003050
  C        0.8706510    -0.0504500     0.0000920
  C        2.0389000    -0.9960240     0.0002020
  C        1.2510070     1.4052230     0.0001730
  C       -0.3937780    -0.5296350    -0.0000590
  C       -1.6246660     0.2665400    -0.0001750
  H        2.6694560    -0.8265420     0.8807060
  H        2.6696250    -0.8265350    -0.8801800
  H        1.7156570    -2.0395440     0.0001660
  H        1.8655830     1.6274140    -0.8794340
  H        1.7532029     1.5868355     0.7193933
  H        0.3995010     2.0850070     0.0000600
  H       -0.5613960    -1.6053580    -0.0001000
  H       -1.5271570     1.3681380    -0.0001420
units angstrom
no_reorient  #important for SAPT in psi4, default
symmetry c1  #important for SAPT in psi4, default
}

set PROPERTIES_ORIGIN ["COM"]
properties('MP2/aug-cc-pvtz', properties = ['dipole'])
--------------------------------------------------------------------------

    Molecular point group: c1
  Charge       = 0
  Multiplicity = 1
  Basis Set: AUG-CC-PVTZ
    Blend: AUG-CC-PVTZ
  Basis Set: (AUG-CC-PVTZ AUX)
    Blend: AUG-CC-PVTZ-JKFIT

    Orbital Energies [Eh]
    ---------------------

    Doubly Occupied:

       1A    -20.543695     2A    -11.326781     3A    -11.282084
       4A    -11.243525     5A    -11.234834     6A    -11.223118
       7A     -1.366544     8A     -1.128069     9A     -0.997980
      10A     -0.977538    11A     -0.831413    12A     -0.750028
      13A     -0.668617    14A     -0.649042    15A     -0.631328
      16A     -0.601722    17A     -0.574027    18A     -0.557293
      19A     -0.547409    20A     -0.522236    21A     -0.516002
      22A     -0.418428    23A     -0.367729

  @DF-RHF Final Energy:  -268.90270570594015

   => Energetics <=

    Nuclear Repulsion Energy =            217.6888931511301735
    One-Electron Energy =                -795.2643204227719025
    Two-Electron Energy =                 308.6727215657015790
    Total Energy =                       -268.9027057059401500
  Basis Set: (AUG-CC-PVTZ AUX)
    Blend: AUG-CC-PVTZ-RI
    Molecular point group: c1

    Geometry (in Angstrom), charge = 0, multiplicity = 1:

       Center              X                  Y                   Z               Mass
    ------------   -----------------  -----------------  -----------------  -----------------
         O           -2.635110565560    -0.230872293052     0.001632500556    15.994914619570
         C            0.979201434440    -0.033336293052     0.002029500556    12.000000000000
         C            2.147450434440    -0.978910293052     0.002139500556    12.000000000000
         C            1.359557434440     1.422336706948     0.002110500556    12.000000000000
         C           -0.285227565560    -0.512521293052     0.001878500556    12.000000000000
         C           -1.516115565560     0.283653706948     0.001762500556    12.000000000000
         H            2.778006434440    -0.809428293052     0.882643500556     1.007825032230
         H            2.778175434440    -0.809421293052    -0.878242499444     1.007825032230
         H            1.824207434440    -2.022430293052     0.002103500556     1.007825032230
         H            1.974133434440     1.644527706948    -0.877496499444     1.007825032230
         H            1.861753334440     1.603949206948     0.721330800556     1.007825032230
         H            0.508051434440     2.102120706948     0.001997500556     1.007825032230
         H           -0.452845565560    -1.588244293052     0.001837500556     1.007825032230
         H           -1.418606565560     1.385251706948     0.001795500556     1.007825032230

  Basis Set: AUG-CC-PVTZ
    Blend: AUG-CC-PVTZ
  Basis Set: (AUG-CC-PVTZ AUX)
    Blend: AUG-CC-PVTZ-JKFIT
	 Reference Energy          =    -268.9027057059401500 [Eh]
	 Singles Energy            =      -0.0000000000000000 [Eh]
	 Same-Spin Energy          =      -0.2712920391725567 [Eh]
	 Opposite-Spin Energy      =      -0.9153013158950647 [Eh]
	 Correlation Energy        =      -1.1865933550676213 [Eh]
	 Total Energy              =    -270.0892990610077504 [Eh]

	 ================> DF-SCS-MP2 Energies <==================
	-----------------------------------------------------------
	 SCS Same-Spin Scale       =       0.3333333333333333 [-]
	 SCS Opposite-Spin Scale   =       1.2000000000000000 [-]
	 SCS Same-Spin Energy      =      -0.0904306797241856 [Eh]
	 SCS Opposite-Spin Energy  =      -1.0983615790740775 [Eh]
	 SCS Correlation Energy    =      -1.1887922587982631 [Eh]
	 SCS Total Energy          =    -270.0914979647384371 [Eh]
	-----------------------------------------------------------

  Dipole Moment: [D]
     X:     4.1637      Y:     0.9990      Z:     0.0318     Total:     4.2820

*** Psi4 exiting successfully. Buy a developer a beer!
