                               Psi4 1.4a3.dev225

  ==> Input File <==

--------------------------------------------------------------------------
#psi4
#
memory 32 gb

molecule  {
0 1
  O       -2.7436610    -0.2479860    -0.0003050
  C        0.8706510    -0.0504500     0.0000920
  C        2.0389000    -0.9960240     0.0002020
  C        1.2510070     1.4052230     0.0001730
  C       -0.3937780    -0.5296350    -0.0000590
  C       -1.6246660     0.2665400    -0.0001750
  H        2.6119330    -0.8420031     0.8003813
  H        2.6696250    -0.8265350    -0.8801800
  H        1.7156570    -2.0395440     0.0001660
  H        1.8655830     1.6274140    -0.8794340
  H        1.8653250     1.6273830     0.8799690
  H        0.3995010     2.0850070     0.0000600
  H       -0.5613960    -1.6053580    -0.0001000
  H       -1.5271570     1.3681380    -0.0001420
units angstrom
no_reorient  #important for SAPT in psi4, default
symmetry c1  #important for SAPT in psi4, default
}

set PROPERTIES_ORIGIN ["COM"]
properties('MP2/aug-cc-pvtz', properties = ['dipole'])
--------------------------------------------------------------------------

    Molecular point group: c1
  Charge       = 0
  Multiplicity = 1
  Basis Set: AUG-CC-PVTZ
    Blend: AUG-CC-PVTZ
  Basis Set: (AUG-CC-PVTZ AUX)
    Blend: AUG-CC-PVTZ-JKFIT

    Orbital Energies [Eh]
    ---------------------

    Doubly Occupied:

       1A    -20.543963     2A    -11.327062     3A    -11.282540
       4A    -11.247520     5A    -11.235153     6A    -11.231018
       7A     -1.366794     8A     -1.125527     9A     -0.989883
      10A     -0.971929    11A     -0.833379    12A     -0.745024
      13A     -0.668696    14A     -0.643349    15A     -0.623871
      16A     -0.600150    17A     -0.571599    18A     -0.557446
      19A     -0.545467    20A     -0.522346    21A     -0.516397
      22A     -0.418688    23A     -0.367567

  @DF-RHF Final Energy:  -268.93035956089886

   => Energetics <=

    Nuclear Repulsion Energy =            217.1622074002121678
    One-Electron Energy =                -794.3144003825705113
    Two-Electron Energy =                 308.2218334214594506
    Total Energy =                       -268.9303595608988644
  Basis Set: (AUG-CC-PVTZ AUX)
    Blend: AUG-CC-PVTZ-RI
    Molecular point group: c1

    Geometry (in Angstrom), charge = 0, multiplicity = 1:

       Center              X                  Y                   Z               Mass
    ------------   -----------------  -----------------  -----------------  -----------------
         O           -2.635765192809    -0.231173071654     0.000670314525    15.994914619570
         C            0.978546807191    -0.033637071654     0.001067314525    12.000000000000
         C            2.146795807191    -0.979211071654     0.001177314525    12.000000000000
         C            1.358902807191     1.422035928346     0.001148314525    12.000000000000
         C           -0.285882192809    -0.512822071654     0.000916314525    12.000000000000
         C           -1.516770192809     0.283352928346     0.000800314525    12.000000000000
         H            2.719828807191    -0.825190171654     0.801356614525     1.007825032230
         H            2.777520807191    -0.809722071654    -0.879204685475     1.007825032230
         H            1.823552807191    -2.022731071654     0.001141314525     1.007825032230
         H            1.973478807191     1.644226928346    -0.878458685475     1.007825032230
         H            1.973220807191     1.644195928346     0.880944314525     1.007825032230
         H            0.507396807191     2.101819928346     0.001035314525     1.007825032230
         H           -0.453500192809    -1.588545071654     0.000875314525     1.007825032230
         H           -1.419261192809     1.384950928346     0.000833314525     1.007825032230

  Basis Set: AUG-CC-PVTZ
    Blend: AUG-CC-PVTZ
  Basis Set: (AUG-CC-PVTZ AUX)
    Blend: AUG-CC-PVTZ-JKFIT
	 Reference Energy          =    -268.9303595608988644 [Eh]
	 Singles Energy            =      -0.0000000000000000 [Eh]
	 Same-Spin Energy          =      -0.2712147026873223 [Eh]
	 Opposite-Spin Energy      =      -0.9154309384574258 [Eh]
	 Correlation Energy        =      -1.1866456411447481 [Eh]
	 Total Energy              =    -270.1170052020436287 [Eh]

	 ================> DF-SCS-MP2 Energies <==================
	-----------------------------------------------------------
	 SCS Same-Spin Scale       =       0.3333333333333333 [-]
	 SCS Opposite-Spin Scale   =       1.2000000000000000 [-]
	 SCS Same-Spin Energy      =      -0.0904049008957741 [Eh]
	 SCS Opposite-Spin Energy  =      -1.0985171261489111 [Eh]
	 SCS Correlation Energy    =      -1.1889220270446852 [Eh]
	 SCS Total Energy          =    -270.1192815879435329 [Eh]
	-----------------------------------------------------------

  Dipole Moment: [D]
     X:     4.1499      Y:     0.9809      Z:     0.0240     Total:     4.2643

*** Psi4 exiting successfully. Buy a developer a beer!
