                               Psi4 1.4a3.dev225

  ==> Input File <==

--------------------------------------------------------------------------
#psi4
#
memory 32 gb

molecule  {
0 1
  O       -2.7436610    -0.2479860    -0.0003050
  C        0.8706510    -0.0504500     0.0000920
  C        2.0389000    -0.9960240     0.0002020
  C        1.2762875     1.5019747     0.0001784
  C       -0.3937780    -0.5296350    -0.0000590
  C       -1.6246660     0.2665400    -0.0001750
  H        2.6694560    -0.8265420     0.8807060
  H        2.6696250    -0.8265350    -0.8801800
  H        1.7156570    -2.0395440     0.0001660
  H        1.8655830     1.6274140    -0.8794340
  H        1.8653250     1.6273830     0.8799690
  H        0.3995010     2.0850070     0.0000600
  H       -0.5613960    -1.6053580    -0.0001000
  H       -1.5271570     1.3681380    -0.0001420
units angstrom
no_reorient  #important for SAPT in psi4, default
symmetry c1  #important for SAPT in psi4, default
}

set PROPERTIES_ORIGIN ["COM"]
properties('MP2/aug-cc-pvtz', properties = ['dipole'])
--------------------------------------------------------------------------

    Molecular point group: c1
  Charge       = 0
  Multiplicity = 1
  Basis Set: AUG-CC-PVTZ
    Blend: AUG-CC-PVTZ
  Basis Set: (AUG-CC-PVTZ AUX)
    Blend: AUG-CC-PVTZ-JKFIT

    Orbital Energies [Eh]
    ---------------------

    Doubly Occupied:

       1A    -20.544218     2A    -11.327610     3A    -11.286789
       4A    -11.245727     5A    -11.243637     6A    -11.235286
       7A     -1.367079     8A     -1.114320     9A     -0.984352
      10A     -0.969498    11A     -0.830109    12A     -0.742726
      13A     -0.663242    14A     -0.637667    15A     -0.621279
      16A     -0.603239    17A     -0.569719    18A     -0.562087
      19A     -0.555018    20A     -0.522875    21A     -0.495006
      22A     -0.419233    23A     -0.368654

  @DF-RHF Final Energy:  -268.92915458119575

   => Energetics <=

    Nuclear Repulsion Energy =            215.3805389709789324
    One-Electron Energy =                -790.8006488053459861
    Two-Electron Energy =                 306.4909552531713075
    Total Energy =                       -268.9291545811957462
  Basis Set: (AUG-CC-PVTZ AUX)
    Blend: AUG-CC-PVTZ-RI
    Molecular point group: c1

    Geometry (in Angstrom), charge = 0, multiplicity = 1:

       Center              X                  Y                   Z               Mass
    ------------   -----------------  -----------------  -----------------  -----------------
         O           -2.640063905659    -0.245170659917    -0.000293526049    15.994914619570
         C            0.974248094341    -0.047634659917     0.000103473951    12.000000000000
         C            2.142497094341    -0.993208659917     0.000213473951    12.000000000000
         C            1.379884594341     1.504790040083     0.000189873951    12.000000000000
         C           -0.290180905659    -0.526819659917    -0.000047526049    12.000000000000
         C           -1.521068905659     0.269355340083    -0.000163526049    12.000000000000
         H            2.773053094341    -0.823726659917     0.880717473951     1.007825032230
         H            2.773222094341    -0.823719659917    -0.880168526049     1.007825032230
         H            1.819254094341    -2.036728659917     0.000177473951     1.007825032230
         H            1.969180094341     1.630229340083    -0.879422526049     1.007825032230
         H            1.968922094341     1.630198340083     0.879980473951     1.007825032230
         H            0.503098094341     2.087822340083     0.000071473951     1.007825032230
         H           -0.457798905659    -1.602542659917    -0.000088526049     1.007825032230
         H           -1.423559905659     1.370953340083    -0.000130526049     1.007825032230

  Basis Set: AUG-CC-PVTZ
    Blend: AUG-CC-PVTZ
  Basis Set: (AUG-CC-PVTZ AUX)
    Blend: AUG-CC-PVTZ-JKFIT
	 Reference Energy          =    -268.9291545811957462 [Eh]
	 Singles Energy            =      -0.0000000000000000 [Eh]
	 Same-Spin Energy          =      -0.2706478282984131 [Eh]
	 Opposite-Spin Energy      =      -0.9157262110804694 [Eh]
	 Correlation Energy        =      -1.1863740393788824 [Eh]
	 Total Energy              =    -270.1155286205746506 [Eh]

	 ================> DF-SCS-MP2 Energies <==================
	-----------------------------------------------------------
	 SCS Same-Spin Scale       =       0.3333333333333333 [-]
	 SCS Opposite-Spin Scale   =       1.2000000000000000 [-]
	 SCS Same-Spin Energy      =      -0.0902159427661377 [Eh]
	 SCS Opposite-Spin Energy  =      -1.0988714532965631 [Eh]
	 SCS Correlation Energy    =      -1.1890873960627009 [Eh]
	 SCS Total Energy          =    -270.1182419772584353 [Eh]
	-----------------------------------------------------------

  Dipole Moment: [D]
     X:     4.1028      Y:     0.9209      Z:     0.0005     Total:     4.2048

*** Psi4 exiting successfully. Buy a developer a beer!
