                               Psi4 1.4a3.dev225

  ==> Input File <==

--------------------------------------------------------------------------
#psi4
#
memory 32 gb

molecule  {
0 1
  O       -2.7436610    -0.2479860    -0.0003050
  C        0.8706510    -0.0504500     0.0000920
  C        2.0389000    -0.9960240     0.0002020
  C        1.2560631     1.4245733     0.0001741
  C       -0.3937780    -0.5296350    -0.0000590
  C       -1.6246660     0.2665400    -0.0001750
  H        2.6694560    -0.8265420     0.8807060
  H        2.6696250    -0.8265350    -0.8801800
  H        1.7156570    -2.0395440     0.0001660
  H        1.8655830     1.6274140    -0.8794340
  H        1.8653250     1.6273830     0.8799690
  H        0.3995010     2.0850070     0.0000600
  H       -0.5613960    -1.6053580    -0.0001000
  H       -1.5271570     1.3681380    -0.0001420
units angstrom
no_reorient  #important for SAPT in psi4, default
symmetry c1  #important for SAPT in psi4, default
}

set PROPERTIES_ORIGIN ["COM"]
properties('MP2/aug-cc-pvtz', properties = ['dipole'])
--------------------------------------------------------------------------

    Molecular point group: c1
  Charge       = 0
  Multiplicity = 1
  Basis Set: AUG-CC-PVTZ
    Blend: AUG-CC-PVTZ
  Basis Set: (AUG-CC-PVTZ AUX)
    Blend: AUG-CC-PVTZ-JKFIT

    Orbital Energies [Eh]
    ---------------------

    Doubly Occupied:

       1A    -20.544343     2A    -11.327508     3A    -11.284093
       4A    -11.246807     5A    -11.243314     6A    -11.235716
       7A     -1.367157     8A     -1.122065     9A     -0.985381
      10A     -0.967975    11A     -0.830519    12A     -0.744395
      13A     -0.667626    14A     -0.640097    15A     -0.618151
      16A     -0.600760    17A     -0.562464    18A     -0.557498
      19A     -0.548459    20A     -0.522659    21A     -0.513208
      22A     -0.419147    23A     -0.367806

  @DF-RHF Final Energy:  -268.93621190646354

   => Energetics <=

    Nuclear Repulsion Energy =            216.4457044490797557
    One-Electron Energy =                -792.9295362909845153
    Two-Electron Energy =                 307.5476199354411619
    Total Energy =                       -268.9362119064635408
  Basis Set: (AUG-CC-PVTZ AUX)
    Blend: AUG-CC-PVTZ-RI
    Molecular point group: c1

    Geometry (in Angstrom), charge = 0, multiplicity = 1:

       Center              X                  Y                   Z               Mass
    ------------   -----------------  -----------------  -----------------  -----------------
         O           -2.637176682543    -0.234120882852    -0.000292912184    15.994914619570
         C            0.977135317457    -0.036584882852     0.000104087816    12.000000000000
         C            2.145384317457    -0.982158882852     0.000214087816    12.000000000000
         C            1.362547417457     1.438438417148     0.000186187816    12.000000000000
         C           -0.287293682543    -0.515769882852    -0.000046912184    12.000000000000
         C           -1.518181682543     0.280405117148    -0.000162912184    12.000000000000
         H            2.775940317457    -0.812676882852     0.880718087816     1.007825032230
         H            2.776109317457    -0.812669882852    -0.880167912184     1.007825032230
         H            1.822141317457    -2.025678882852     0.000178087816     1.007825032230
         H            1.972067317457     1.641279117148    -0.879421912184     1.007825032230
         H            1.971809317457     1.641248117148     0.879981087816     1.007825032230
         H            0.505985317457     2.098872117148     0.000072087816     1.007825032230
         H           -0.454911682543    -1.591492882852    -0.000087912184     1.007825032230
         H           -1.420672682543     1.382003117148    -0.000129912184     1.007825032230

  Basis Set: AUG-CC-PVTZ
    Blend: AUG-CC-PVTZ
  Basis Set: (AUG-CC-PVTZ AUX)
    Blend: AUG-CC-PVTZ-JKFIT
	 Reference Energy          =    -268.9362119064635408 [Eh]
	 Singles Energy            =      -0.0000000000000000 [Eh]
	 Same-Spin Energy          =      -0.2710294487356249 [Eh]
	 Opposite-Spin Energy      =      -0.9157620983247818 [Eh]
	 Correlation Energy        =      -1.1867915470604067 [Eh]
	 Total Energy              =    -270.1230034535239497 [Eh]

	 ================> DF-SCS-MP2 Energies <==================
	-----------------------------------------------------------
	 SCS Same-Spin Scale       =       0.3333333333333333 [-]
	 SCS Opposite-Spin Scale   =       1.2000000000000000 [-]
	 SCS Same-Spin Energy      =      -0.0903431495785416 [Eh]
	 SCS Opposite-Spin Energy  =      -1.0989145179897382 [Eh]
	 SCS Correlation Energy    =      -1.1892576675682798 [Eh]
	 SCS Total Energy          =    -270.1254695740317970 [Eh]
	-----------------------------------------------------------

  Dipole Moment: [D]
     X:     4.1113      Y:     0.9657      Z:     0.0005     Total:     4.2232

*** Psi4 exiting successfully. Buy a developer a beer!
