                               Psi4 1.4a3.dev225

  ==> Input File <==

--------------------------------------------------------------------------
#psi4
#
memory 32 gb

molecule  {
0 1
  O       -2.7436610    -0.2479860    -0.0003050
  C        0.8706510    -0.0504500     0.0000920
  C        2.0389000    -0.9960240     0.0002020
  C        1.2510070     1.4052230     0.0001730
  C       -0.3937780    -0.5296350    -0.0000590
  C       -1.6246660     0.2665400    -0.0001750
  H        2.6694560    -0.8265420     0.8807060
  H        2.6696250    -0.8265350    -0.8801800
  H        1.7156570    -2.0395440     0.0001660
  H        1.8655830     1.6274140    -0.8794340
  H        1.8653250     1.6273830     0.8799690
  H        0.3995010     2.0850070     0.0000600
  H       -0.5613960    -1.6053580    -0.0001000
  H       -1.5227484     1.4179433    -0.0001405
units angstrom
no_reorient  #important for SAPT in psi4, default
symmetry c1  #important for SAPT in psi4, default
}

set PROPERTIES_ORIGIN ["COM"]
properties('MP2/aug-cc-pvtz', properties = ['dipole'])
--------------------------------------------------------------------------

    Molecular point group: c1
  Charge       = 0
  Multiplicity = 1
  Basis Set: AUG-CC-PVTZ
    Blend: AUG-CC-PVTZ
  Basis Set: (AUG-CC-PVTZ AUX)
    Blend: AUG-CC-PVTZ-JKFIT

    Orbital Energies [Eh]
    ---------------------

    Doubly Occupied:

       1A    -20.545592     2A    -11.333202     3A    -11.283743
       4A    -11.247149     5A    -11.243494     6A    -11.236758
       7A     -1.367903     8A     -1.124544     9A     -0.985378
      10A     -0.967695    11A     -0.825909    12A     -0.739384
      13A     -0.668278    14A     -0.640904    15A     -0.617688
      16A     -0.597897    17A     -0.560487    18A     -0.557617
      19A     -0.545723    20A     -0.523453    21A     -0.517191
      22A     -0.416974    23A     -0.368024

  @DF-RHF Final Energy:  -268.93375115479085

   => Energetics <=

    Nuclear Repulsion Energy =            216.5151868760115690
    One-Electron Energy =                -793.0678982819192697
    Two-Electron Energy =                 307.6189602511169028
    Total Energy =                       -268.9337511547908548
  Basis Set: (AUG-CC-PVTZ AUX)
    Blend: AUG-CC-PVTZ-RI
    Molecular point group: c1

    Geometry (in Angstrom), charge = 0, multiplicity = 1:

       Center              X                  Y                   Z               Mass
    ------------   -----------------  -----------------  -----------------  -----------------
         O           -2.636507734590    -0.231955596712    -0.000292773133    15.994914619570
         C            0.977804265410    -0.034419596712     0.000104226867    12.000000000000
         C            2.146053265410    -0.979993596712     0.000214226867    12.000000000000
         C            1.358160265410     1.421253403288     0.000185226867    12.000000000000
         C           -0.286624734590    -0.513604596712    -0.000046773133    12.000000000000
         C           -1.517512734590     0.282570403288    -0.000162773133    12.000000000000
         H            2.776609265410    -0.810511596712     0.880718226867     1.007825032230
         H            2.776778265410    -0.810504596712    -0.880167773133     1.007825032230
         H            1.822810265410    -2.023513596712     0.000178226867     1.007825032230
         H            1.972736265410     1.643444403288    -0.879421773133     1.007825032230
         H            1.972478265410     1.643413403288     0.879981226867     1.007825032230
         H            0.506654265410     2.101037403288     0.000072226867     1.007825032230
         H           -0.454242734590    -1.589327596712    -0.000087773133     1.007825032230
         H           -1.415595134590     1.433973703288    -0.000128273133     1.007825032230

  Basis Set: AUG-CC-PVTZ
    Blend: AUG-CC-PVTZ
  Basis Set: (AUG-CC-PVTZ AUX)
    Blend: AUG-CC-PVTZ-JKFIT
	 Reference Energy          =    -268.9337511547908548 [Eh]
	 Singles Energy            =      -0.0000000000000000 [Eh]
	 Same-Spin Energy          =      -0.2714632444538724 [Eh]
	 Opposite-Spin Energy      =      -0.9164257960810968 [Eh]
	 Correlation Energy        =      -1.1878890405349691 [Eh]
	 Total Energy              =    -270.1216401953258242 [Eh]

	 ================> DF-SCS-MP2 Energies <==================
	-----------------------------------------------------------
	 SCS Same-Spin Scale       =       0.3333333333333333 [-]
	 SCS Opposite-Spin Scale   =       1.2000000000000000 [-]
	 SCS Same-Spin Energy      =      -0.0904877481512908 [Eh]
	 SCS Opposite-Spin Energy  =      -1.0997109552973161 [Eh]
	 SCS Correlation Energy    =      -1.1901987034486070 [Eh]
	 SCS Total Energy          =    -270.1239498582394845 [Eh]
	-----------------------------------------------------------

  Dipole Moment: [D]
     X:     4.1092      Y:     0.9200      Z:     0.0005     Total:     4.2110

*** Psi4 exiting successfully. Buy a developer a beer!
