                               Psi4 1.4a3.dev225

  ==> Input File <==

--------------------------------------------------------------------------
#psi4
#
memory 32 gb

molecule  {
0 1
  O       -2.7436610    -0.2479860    -0.0003050
  C        0.8706510    -0.0504500     0.0000920
  C        2.0389000    -0.9960240     0.0002020
  C        1.2510070     1.4052230     0.0001730
  C       -0.3937780    -0.5296350    -0.0000590
  C       -1.6246660     0.2665400    -0.0001750
  H        2.6694560    -0.8265420     0.8807060
  H        2.6696250    -0.8265350    -0.8801800
  H        1.7748353    -1.8484997     0.0001726
  H        1.8655830     1.6274140    -0.8794340
  H        1.8653250     1.6273830     0.8799690
  H        0.3995010     2.0850070     0.0000600
  H       -0.5613960    -1.6053580    -0.0001000
  H       -1.5271570     1.3681380    -0.0001420
units angstrom
no_reorient  #important for SAPT in psi4, default
symmetry c1  #important for SAPT in psi4, default
}

set PROPERTIES_ORIGIN ["COM"]
properties('MP2/aug-cc-pvtz', properties = ['dipole'])
--------------------------------------------------------------------------

    Molecular point group: c1
  Charge       = 0
  Multiplicity = 1
  Basis Set: AUG-CC-PVTZ
    Blend: AUG-CC-PVTZ
  Basis Set: (AUG-CC-PVTZ AUX)
    Blend: AUG-CC-PVTZ-JKFIT

    Orbital Energies [Eh]
    ---------------------

    Doubly Occupied:

       1A    -20.544069     2A    -11.327370     3A    -11.282308
       4A    -11.246018     5A    -11.235632     6A    -11.219375
       7A     -1.366944     8A     -1.127783     9A     -0.996578
      10A     -0.976747    11A     -0.834429    12A     -0.747298
      13A     -0.684386    14A     -0.640264    15A     -0.616332
      16A     -0.607286    17A     -0.575607    18A     -0.559196
      19A     -0.544695    20A     -0.522384    21A     -0.521419
      22A     -0.418762    23A     -0.367242

  @DF-RHF Final Energy:  -268.90232758232344

   => Energetics <=

    Nuclear Repulsion Energy =            217.6471162597953253
    One-Electron Energy =                -795.1746421893842580
    Two-Electron Energy =                 308.6251983472654956
    Total Energy =                       -268.9023275823234371
  Basis Set: (AUG-CC-PVTZ AUX)
    Blend: AUG-CC-PVTZ-RI
    Molecular point group: c1

    Geometry (in Angstrom), charge = 0, multiplicity = 1:

       Center              X                  Y                   Z               Mass
    ------------   -----------------  -----------------  -----------------  -----------------
         O           -2.637164407283    -0.233649011036    -0.000292834280    15.994914619570
         C            0.977147592717    -0.036113011036     0.000104165720    12.000000000000
         C            2.145396592717    -0.981687011036     0.000214165720    12.000000000000
         C            1.357503592717     1.419559988964     0.000185165720    12.000000000000
         C           -0.287281407283    -0.515298011036    -0.000046834280    12.000000000000
         C           -1.518169407283     0.280876988964    -0.000162834280    12.000000000000
         H            2.775952592717    -0.812205011036     0.880718165720     1.007825032230
         H            2.776121592717    -0.812198011036    -0.880167834280     1.007825032230
         H            1.881331892717    -1.834162711036     0.000184765720     1.007825032230
         H            1.972079592717     1.641750988964    -0.879421834280     1.007825032230
         H            1.971821592717     1.641719988964     0.879981165720     1.007825032230
         H            0.505997592717     2.099343988964     0.000072165720     1.007825032230
         H           -0.454899407283    -1.591021011036    -0.000087834280     1.007825032230
         H           -1.420660407283     1.382474988964    -0.000129834280     1.007825032230

  Basis Set: AUG-CC-PVTZ
    Blend: AUG-CC-PVTZ
  Basis Set: (AUG-CC-PVTZ AUX)
    Blend: AUG-CC-PVTZ-JKFIT
	 Reference Energy          =    -268.9023275823234371 [Eh]
	 Singles Energy            =      -0.0000000000000000 [Eh]
	 Same-Spin Energy          =      -0.2711859744817545 [Eh]
	 Opposite-Spin Energy      =      -0.9150368652391090 [Eh]
	 Correlation Energy        =      -1.1862228397208634 [Eh]
	 Total Energy              =    -270.0885504220443067 [Eh]

	 ================> DF-SCS-MP2 Energies <==================
	-----------------------------------------------------------
	 SCS Same-Spin Scale       =       0.3333333333333333 [-]
	 SCS Opposite-Spin Scale   =       1.2000000000000000 [-]
	 SCS Same-Spin Energy      =      -0.0903953248272515 [Eh]
	 SCS Opposite-Spin Energy  =      -1.0980442382869307 [Eh]
	 SCS Correlation Energy    =      -1.1884395631141822 [Eh]
	 SCS Total Energy          =    -270.0907671454376100 [Eh]
	-----------------------------------------------------------

  Dipole Moment: [D]
     X:     4.1298      Y:     0.9010      Z:     0.0005     Total:     4.2269

*** Psi4 exiting successfully. Buy a developer a beer!
