                               Psi4 1.4a3.dev225

  ==> Input File <==

--------------------------------------------------------------------------
#psi4
#
memory 32 gb

molecule  {
0 1
  O       -2.7436610    -0.2479860    -0.0003050
  C        0.8706510    -0.0504500     0.0000920
  C        2.0389000    -0.9960240     0.0002020
  C        1.2510070     1.4052230     0.0001730
  C       -0.3937780    -0.5296350    -0.0000590
  C       -1.6246660     0.2665400    -0.0001750
  H        2.6694560    -0.8265420     0.8807060
  H        2.6696250    -0.8265350    -0.8801800
  H        1.7156570    -2.0395440     0.0001660
  H        1.8655830     1.6274140    -0.8794340
  H        1.9213860     1.6476567     0.9602568
  H        0.3995010     2.0850070     0.0000600
  H       -0.5613960    -1.6053580    -0.0001000
  H       -1.5271570     1.3681380    -0.0001420
units angstrom
no_reorient  #important for SAPT in psi4, default
symmetry c1  #important for SAPT in psi4, default
}

set PROPERTIES_ORIGIN ["COM"]
properties('MP2/aug-cc-pvtz', properties = ['dipole'])
--------------------------------------------------------------------------

    Molecular point group: c1
  Charge       = 0
  Multiplicity = 1
  Basis Set: AUG-CC-PVTZ
    Blend: AUG-CC-PVTZ
  Basis Set: (AUG-CC-PVTZ AUX)
    Blend: AUG-CC-PVTZ-JKFIT

    Orbital Energies [Eh]
    ---------------------

    Doubly Occupied:

       1A    -20.544999     2A    -11.328080     3A    -11.284095
       4A    -11.258861     5A    -11.243123     6A    -11.236780
       7A     -1.367753     8A     -1.123814     9A     -0.984694
      10A     -0.962259    11A     -0.830660    12A     -0.743740
      13A     -0.669835    14A     -0.640441    15A     -0.612647
      16A     -0.599345    17A     -0.557857    18A     -0.554375
      19A     -0.538888    20A     -0.522594    21A     -0.517695
      22A     -0.419679    23A     -0.367463

  @DF-RHF Final Energy:  -268.92985492951124

   => Energetics <=

    Nuclear Repulsion Energy =            216.3236188784370881
    One-Electron Energy =                -792.6875914904347837
    Two-Electron Energy =                 307.4341176824864874
    Total Energy =                       -268.9298549295112366
  Basis Set: (AUG-CC-PVTZ AUX)
    Blend: AUG-CC-PVTZ-RI
    Molecular point group: c1

    Geometry (in Angstrom), charge = 0, multiplicity = 1:

       Center              X                  Y                   Z               Mass
    ------------   -----------------  -----------------  -----------------  -----------------
         O           -2.637127031767    -0.231601521461    -0.001255382401    15.994914619570
         C            0.977184968233    -0.034065521461    -0.000858382401    12.000000000000
         C            2.145433968233    -0.979639521461    -0.000748382401    12.000000000000
         C            1.357540968233     1.421607478539    -0.000777382401    12.000000000000
         C           -0.287244031767    -0.513250521461    -0.001009382401    12.000000000000
         C           -1.518132031767     0.282924478539    -0.001125382401    12.000000000000
         H            2.775989968233    -0.810157521461     0.879755617599     1.007825032230
         H            2.776158968233    -0.810150521461    -0.881130382401     1.007825032230
         H            1.822190968233    -2.023159521461    -0.000784382401     1.007825032230
         H            1.972116968233     1.643798478539    -0.880384382401     1.007825032230
         H            2.027919968233     1.664041178539     0.959306417599     1.007825032230
         H            0.506034968233     2.101391478539    -0.000890382401     1.007825032230
         H           -0.454862031767    -1.588973521461    -0.001050382401     1.007825032230
         H           -1.420623031767     1.384522478539    -0.001092382401     1.007825032230

  Basis Set: AUG-CC-PVTZ
    Blend: AUG-CC-PVTZ
  Basis Set: (AUG-CC-PVTZ AUX)
    Blend: AUG-CC-PVTZ-JKFIT
	 Reference Energy          =    -268.9298549295112366 [Eh]
	 Singles Energy            =      -0.0000000000000000 [Eh]
	 Same-Spin Energy          =      -0.2712207723349193 [Eh]
	 Opposite-Spin Energy      =      -0.9166244362276955 [Eh]
	 Correlation Energy        =      -1.1878452085626148 [Eh]
	 Total Energy              =    -270.1177001380738716 [Eh]

	 ================> DF-SCS-MP2 Energies <==================
	-----------------------------------------------------------
	 SCS Same-Spin Scale       =       0.3333333333333333 [-]
	 SCS Opposite-Spin Scale   =       1.2000000000000000 [-]
	 SCS Same-Spin Energy      =      -0.0904069241116398 [Eh]
	 SCS Opposite-Spin Energy  =      -1.0999493234732345 [Eh]
	 SCS Correlation Energy    =      -1.1903562475848743 [Eh]
	 SCS Total Energy          =    -270.1202111770961096 [Eh]
	-----------------------------------------------------------

  Dipole Moment: [D]
     X:     4.0694      Y:     0.9534      Z:    -0.0301     Total:     4.1797

*** Psi4 exiting successfully. Buy a developer a beer!
