                               Psi4 1.4a3.dev225

  ==> Input File <==

--------------------------------------------------------------------------
#psi4
#
memory 32 gb

molecule  {
0 1
  O       -2.7436610    -0.2479860    -0.0003050
  C        0.8706510    -0.0504500     0.0000920
  C        2.0389000    -0.9960240     0.0002020
  C        1.2510070     1.4052230     0.0001730
  C       -0.3937780    -0.5296350    -0.0000590
  C       -1.6246660     0.2665400    -0.0001750
  H        2.6694560    -0.8265420     0.8807060
  H        2.6696250    -0.8265350    -0.8801800
  H        1.7156570    -2.0395440     0.0001660
  H        1.8655830     1.6274140    -0.8794340
  H        1.8653250     1.6273830     0.8799690
  H        0.3995010     2.0850070     0.0000600
  H       -0.5613960    -1.6053580    -0.0001000
  H       -1.5183399     1.4677485    -0.0001390
units angstrom
no_reorient  #important for SAPT in psi4, default
symmetry c1  #important for SAPT in psi4, default
}

set PROPERTIES_ORIGIN ["COM"]
properties('MP2/aug-cc-pvtz', properties = ['dipole'])
--------------------------------------------------------------------------

    Molecular point group: c1
  Charge       = 0
  Multiplicity = 1
  Basis Set: AUG-CC-PVTZ
    Blend: AUG-CC-PVTZ
  Basis Set: (AUG-CC-PVTZ AUX)
    Blend: AUG-CC-PVTZ-JKFIT

    Orbital Energies [Eh]
    ---------------------

    Doubly Occupied:

       1A    -20.547006     2A    -11.338740     3A    -11.284306
       4A    -11.246889     5A    -11.243790     6A    -11.237771
       7A     -1.368814     8A     -1.124795     9A     -0.985276
      10A     -0.967729    11A     -0.822476    12A     -0.734195
      13A     -0.667363    14A     -0.641227    15A     -0.617772
      16A     -0.595067    17A     -0.560550    18A     -0.557971
      19A     -0.545861    20A     -0.524481    21A     -0.517417
      22A     -0.414640    23A     -0.368636

  @DF-RHF Final Energy:  -268.92902411540302

   => Energetics <=

    Nuclear Repulsion Energy =            216.3217231356697425
    One-Electron Energy =                -792.6759504717304026
    Two-Electron Energy =                 307.4252032206575791
    Total Energy =                       -268.9290241154030241
  Basis Set: (AUG-CC-PVTZ AUX)
    Blend: AUG-CC-PVTZ-RI
    Molecular point group: c1

    Geometry (in Angstrom), charge = 0, multiplicity = 1:

       Center              X                  Y                   Z               Mass
    ------------   -----------------  -----------------  -----------------  -----------------
         O           -2.636560591216    -0.232552746501    -0.000292791117    15.994914619570
         C            0.977751408784    -0.035016746501     0.000104208883    12.000000000000
         C            2.146000408784    -0.980590746501     0.000214208883    12.000000000000
         C            1.358107408784     1.420656253499     0.000185208883    12.000000000000
         C           -0.286677591216    -0.514201746501    -0.000046791117    12.000000000000
         C           -1.517565591216     0.281973253499    -0.000162791117    12.000000000000
         H            2.776556408784    -0.811108746501     0.880718208883     1.007825032230
         H            2.776725408784    -0.811101746501    -0.880167791117     1.007825032230
         H            1.822757408784    -2.024110746501     0.000178208883     1.007825032230
         H            1.972683408784     1.642847253499    -0.879421791117     1.007825032230
         H            1.972425408784     1.642816253499     0.879981208883     1.007825032230
         H            0.506601408784     2.100440253499     0.000072208883     1.007825032230
         H           -0.454295591216    -1.589924746501    -0.000087791117     1.007825032230
         H           -1.411239491216     1.483181753499    -0.000126791117     1.007825032230

  Basis Set: AUG-CC-PVTZ
    Blend: AUG-CC-PVTZ
  Basis Set: (AUG-CC-PVTZ AUX)
    Blend: AUG-CC-PVTZ-JKFIT
	 Reference Energy          =    -268.9290241154030241 [Eh]
	 Singles Energy            =      -0.0000000000000000 [Eh]
	 Same-Spin Energy          =      -0.2717561392026064 [Eh]
	 Opposite-Spin Energy      =      -0.9170618856871389 [Eh]
	 Correlation Energy        =      -1.1888180248897453 [Eh]
	 Total Energy              =    -270.1178421402927938 [Eh]

	 ================> DF-SCS-MP2 Energies <==================
	-----------------------------------------------------------
	 SCS Same-Spin Scale       =       0.3333333333333333 [-]
	 SCS Opposite-Spin Scale   =       1.2000000000000000 [-]
	 SCS Same-Spin Energy      =      -0.0905853797342021 [Eh]
	 SCS Opposite-Spin Energy  =      -1.1004742628245665 [Eh]
	 SCS Correlation Energy    =      -1.1910596425587687 [Eh]
	 SCS Total Energy          =    -270.1200837579617655 [Eh]
	-----------------------------------------------------------

  Dipole Moment: [D]
     X:     4.1049      Y:     0.8547      Z:     0.0005     Total:     4.1929

*** Psi4 exiting successfully. Buy a developer a beer!
