                               Psi4 1.4a3.dev225

  ==> Input File <==

--------------------------------------------------------------------------
#psi4
#
memory 32 gb

molecule  {
0 1
  O       -2.7436610    -0.2479860    -0.0003050
  C        0.8706510    -0.0504500     0.0000920
  C        2.0389000    -0.9960240     0.0002020
  C        1.2510070     1.4052230     0.0001730
  C       -0.3937780    -0.5296350    -0.0000590
  C       -1.6246660     0.2665400    -0.0001750
  H        2.6694560    -0.8265420     0.8807060
  H        2.6696250    -0.8265350    -0.8801800
  H        1.7156570    -2.0395440     0.0001660
  H        1.8655830     1.6274140    -0.8794340
  H        1.8653250     1.6273830     0.8799690
  H        0.3995010     2.0850070     0.0000600
  H       -0.5613960    -1.6053580    -0.0001000
  H       -1.5289204     1.3482159    -0.0001426
units angstrom
no_reorient  #important for SAPT in psi4, default
symmetry c1  #important for SAPT in psi4, default
}

set PROPERTIES_ORIGIN ["COM"]
properties('MP2/aug-cc-pvtz', properties = ['dipole'])
--------------------------------------------------------------------------

    Molecular point group: c1
  Charge       = 0
  Multiplicity = 1
  Basis Set: AUG-CC-PVTZ
    Blend: AUG-CC-PVTZ
  Basis Set: (AUG-CC-PVTZ AUX)
    Blend: AUG-CC-PVTZ-JKFIT

    Orbital Energies [Eh]
    ---------------------

    Doubly Occupied:

       1A    -20.543931     2A    -11.325129     3A    -11.283062
       4A    -11.247478     5A    -11.243135     6A    -11.235492
       7A     -1.366929     8A     -1.124291     9A     -0.985894
      10A     -0.967674    11A     -0.832896    12A     -0.747076
      13A     -0.669443    14A     -0.640637    15A     -0.617597
      16A     -0.601420    17A     -0.560415    18A     -0.557197
      19A     -0.545517    20A     -0.522242    21A     -0.516923
      22A     -0.419857    23A     -0.367278

  @DF-RHF Final Energy:  -268.93656168150341

   => Energetics <=

    Nuclear Repulsion Energy =            216.8062199006645869
    One-Electron Energy =                -793.6425402034133185
    Two-Electron Energy =                 307.8997586212453257
    Total Energy =                       -268.9365616815034059
  Basis Set: (AUG-CC-PVTZ AUX)
    Blend: AUG-CC-PVTZ-RI
    Molecular point group: c1

    Geometry (in Angstrom), charge = 0, multiplicity = 1:

       Center              X                  Y                   Z               Mass
    ------------   -----------------  -----------------  -----------------  -----------------
         O           -2.636433734114    -0.231119585568    -0.000292747955    15.994914619570
         C            0.977878265886    -0.033583585568     0.000104252045    12.000000000000
         C            2.146127265886    -0.979157585568     0.000214252045    12.000000000000
         C            1.358234265886     1.422089414432     0.000185252045    12.000000000000
         C           -0.286550734114    -0.512768585568    -0.000046747955    12.000000000000
         C           -1.517438734114     0.283406414432    -0.000162747955    12.000000000000
         H            2.776683265886    -0.809675585568     0.880718252045     1.007825032230
         H            2.776852265886    -0.809668585568    -0.880167747955     1.007825032230
         H            1.822884265886    -2.022677585568     0.000178252045     1.007825032230
         H            1.972810265886     1.644280414432    -0.879421747955     1.007825032230
         H            1.972552265886     1.644249414432     0.879981252045     1.007825032230
         H            0.506728265886     2.101873414432     0.000072252045     1.007825032230
         H           -0.454168734114    -1.588491585568    -0.000087747955     1.007825032230
         H           -1.421693134114     1.365082314432    -0.000130347955     1.007825032230

  Basis Set: AUG-CC-PVTZ
    Blend: AUG-CC-PVTZ
  Basis Set: (AUG-CC-PVTZ AUX)
    Blend: AUG-CC-PVTZ-JKFIT
	 Reference Energy          =    -268.9365616815034059 [Eh]
	 Singles Energy            =      -0.0000000000000000 [Eh]
	 Same-Spin Energy          =      -0.2711090271238781 [Eh]
	 Opposite-Spin Energy      =      -0.9157314179377638 [Eh]
	 Correlation Energy        =      -1.1868404450616419 [Eh]
	 Total Energy              =    -270.1234021265650540 [Eh]

	 ================> DF-SCS-MP2 Energies <==================
	-----------------------------------------------------------
	 SCS Same-Spin Scale       =       0.3333333333333333 [-]
	 SCS Opposite-Spin Scale   =       1.2000000000000000 [-]
	 SCS Same-Spin Energy      =      -0.0903696757079594 [Eh]
	 SCS Opposite-Spin Energy  =      -1.0988777015253166 [Eh]
	 SCS Correlation Energy    =      -1.1892473772332759 [Eh]
	 SCS Total Energy          =    -270.1258090587367064 [Eh]
	-----------------------------------------------------------

  Dipole Moment: [D]
     X:     4.1152      Y:     0.9970      Z:     0.0005     Total:     4.2342

*** Psi4 exiting successfully. Buy a developer a beer!
