                               Psi4 1.4a3.dev225

  ==> Input File <==

--------------------------------------------------------------------------
#psi4
#
memory 32 gb

molecule  {
0 1
  O       -2.7436610    -0.2479860    -0.0003050
  C        0.8706510    -0.0504500     0.0000920
  C        2.0389000    -0.9960240     0.0002020
  C        1.2510070     1.4052230     0.0001730
  C       -0.3937780    -0.5296350    -0.0000590
  C       -1.6246660     0.2665400    -0.0001750
  H        2.6579514    -0.8296342     0.8646411
  H        2.6696250    -0.8265350    -0.8801800
  H        1.7156570    -2.0395440     0.0001660
  H        1.8655830     1.6274140    -0.8794340
  H        1.8653250     1.6273830     0.8799690
  H        0.3995010     2.0850070     0.0000600
  H       -0.5613960    -1.6053580    -0.0001000
  H       -1.5271570     1.3681380    -0.0001420
units angstrom
no_reorient  #important for SAPT in psi4, default
symmetry c1  #important for SAPT in psi4, default
}

set PROPERTIES_ORIGIN ["COM"]
properties('MP2/aug-cc-pvtz', properties = ['dipole'])
--------------------------------------------------------------------------

    Molecular point group: c1
  Charge       = 0
  Multiplicity = 1
  Basis Set: AUG-CC-PVTZ
    Blend: AUG-CC-PVTZ
  Basis Set: (AUG-CC-PVTZ AUX)
    Blend: AUG-CC-PVTZ-JKFIT

    Orbital Energies [Eh]
    ---------------------

    Doubly Occupied:

       1A    -20.544271     2A    -11.327375     3A    -11.283089
       4A    -11.247412     5A    -11.240829     6A    -11.235675
       7A     -1.367081     8A     -1.124520     9A     -0.986256
      10A     -0.968557    11A     -0.831090    12A     -0.744872
      13A     -0.669024    14A     -0.640992    15A     -0.618796
      16A     -0.600391    17A     -0.562538    18A     -0.557715
      19A     -0.545566    20A     -0.522515    21A     -0.516859
      22A     -0.418983    23A     -0.367490

  @DF-RHF Final Energy:  -268.93633503940282

   => Energetics <=

    Nuclear Repulsion Energy =            216.8041762006046156
    One-Electron Energy =                -793.6372260469452158
    Two-Electron Energy =                 307.8967148069377799
    Total Energy =                       -268.9363350394028203
  Basis Set: (AUG-CC-PVTZ AUX)
    Blend: AUG-CC-PVTZ-RI
    Molecular point group: c1

    Geometry (in Angstrom), charge = 0, multiplicity = 1:

       Center              X                  Y                   Z               Mass
    ------------   -----------------  -----------------  -----------------  -----------------
         O           -2.636316939974    -0.231321371150    -0.000100141693    15.994914619570
         C            0.977995060026    -0.033785371150     0.000296858307    12.000000000000
         C            2.146244060026    -0.979359371150     0.000406858307    12.000000000000
         C            1.358351060026     1.421887628850     0.000377858307    12.000000000000
         C           -0.286433939974    -0.512970371150     0.000145858307    12.000000000000
         C           -1.517321939974     0.283204628850     0.000029858307    12.000000000000
         H            2.765295460026    -0.812969571150     0.864845958307     1.007825032230
         H            2.776969060026    -0.809870371150    -0.879975141693     1.007825032230
         H            1.823001060026    -2.022879371150     0.000370858307     1.007825032230
         H            1.972927060026     1.644078628850    -0.879229141693     1.007825032230
         H            1.972669060026     1.644047628850     0.880173858307     1.007825032230
         H            0.506845060026     2.101671628850     0.000264858307     1.007825032230
         H           -0.454051939974    -1.588693371150     0.000104858307     1.007825032230
         H           -1.419812939974     1.384802628850     0.000062858307     1.007825032230

  Basis Set: AUG-CC-PVTZ
    Blend: AUG-CC-PVTZ
  Basis Set: (AUG-CC-PVTZ AUX)
    Blend: AUG-CC-PVTZ-JKFIT
	 Reference Energy          =    -268.9363350394028203 [Eh]
	 Singles Energy            =      -0.0000000000000000 [Eh]
	 Same-Spin Energy          =      -0.2712019015451616 [Eh]
	 Opposite-Spin Energy      =      -0.9157882088807154 [Eh]
	 Correlation Energy        =      -1.1869901104258771 [Eh]
	 Total Energy              =    -270.1233251498287018 [Eh]

	 ================> DF-SCS-MP2 Energies <==================
	-----------------------------------------------------------
	 SCS Same-Spin Scale       =       0.3333333333333333 [-]
	 SCS Opposite-Spin Scale   =       1.2000000000000000 [-]
	 SCS Same-Spin Energy      =      -0.0904006338483872 [Eh]
	 SCS Opposite-Spin Energy  =      -1.0989458506568586 [Eh]
	 SCS Correlation Energy    =      -1.1893464845052457 [Eh]
	 SCS Total Energy          =    -270.1256815239080424 [Eh]
	-----------------------------------------------------------

  Dipole Moment: [D]
     X:     4.1221      Y:     0.9775      Z:     0.0060     Total:     4.2364

*** Psi4 exiting successfully. Buy a developer a beer!
