                               Psi4 1.4a3.dev225

  ==> Input File <==

--------------------------------------------------------------------------
#psi4
#
memory 32 gb

molecule  {
0 1
  O       -2.7436610    -0.2479860    -0.0003050
  C        0.8706510    -0.0504500     0.0000920
  C        2.0389000    -0.9960240     0.0002020
  C        1.2510070     1.4052230     0.0001730
  C       -0.3937780    -0.5296350    -0.0000590
  C       -1.5407002     0.2122284    -0.0001671
  H        2.6694560    -0.8265420     0.8807060
  H        2.6696250    -0.8265350    -0.8801800
  H        1.7156570    -2.0395440     0.0001660
  H        1.8655830     1.6274140    -0.8794340
  H        1.8653250     1.6273830     0.8799690
  H        0.3995010     2.0850070     0.0000600
  H       -0.5613960    -1.6053580    -0.0001000
  H       -1.5271570     1.3681380    -0.0001420
units angstrom
no_reorient  #important for SAPT in psi4, default
symmetry c1  #important for SAPT in psi4, default
}

set PROPERTIES_ORIGIN ["COM"]
properties('MP2/aug-cc-pvtz', properties = ['dipole'])
--------------------------------------------------------------------------

    Molecular point group: c1
  Charge       = 0
  Multiplicity = 1
  Basis Set: AUG-CC-PVTZ
    Blend: AUG-CC-PVTZ
  Basis Set: (AUG-CC-PVTZ AUX)
    Blend: AUG-CC-PVTZ-JKFIT

    Orbital Energies [Eh]
    ---------------------

    Doubly Occupied:

       1A    -20.533247     2A    -11.325379     3A    -11.297872
       4A    -11.252751     5A    -11.250474     6A    -11.233637
       7A     -1.325769     8A     -1.137980     9A     -1.009779
      10A     -0.974541    11A     -0.835709    12A     -0.742398
      13A     -0.674122    14A     -0.641559    15A     -0.624439
      16A     -0.579327    17A     -0.566772    18A     -0.562629
      19A     -0.546313    20A     -0.521258    21A     -0.507335
      22A     -0.414641    23A     -0.368688

  @DF-RHF Final Energy:  -268.91591310534795

   => Energetics <=

    Nuclear Repulsion Energy =            217.3141451299894413
    One-Electron Energy =                -794.6068825715914272
    Two-Electron Energy =                 308.3768243362540034
    Total Energy =                       -268.9159131053479541
  Basis Set: (AUG-CC-PVTZ AUX)
    Blend: AUG-CC-PVTZ-RI
    Molecular point group: c1

    Geometry (in Angstrom), charge = 0, multiplicity = 1:

       Center              X                  Y                   Z               Mass
    ------------   -----------------  -----------------  -----------------  -----------------
         O           -2.648441783604    -0.223604954547    -0.000293882948    15.994914619570
         C            0.965870216396    -0.026068954547     0.000103117052    12.000000000000
         C            2.134119216396    -0.971642954547     0.000213117052    12.000000000000
         C            1.346226216396     1.429604045453     0.000184117052    12.000000000000
         C           -0.298558783604    -0.505253954547    -0.000047882948    12.000000000000
         C           -1.445480983604     0.236609445453    -0.000155982948    12.000000000000
         H            2.764675216396    -0.802160954547     0.880717117052     1.007825032230
         H            2.764844216396    -0.802153954547    -0.880168882948     1.007825032230
         H            1.810876216396    -2.015162954547     0.000177117052     1.007825032230
         H            1.960802216396     1.651795045453    -0.879422882948     1.007825032230
         H            1.960544216396     1.651764045453     0.879980117052     1.007825032230
         H            0.494720216396     2.109388045453     0.000071117052     1.007825032230
         H           -0.466176783604    -1.580976954547    -0.000088882948     1.007825032230
         H           -1.431937783604     1.392519045453    -0.000130882948     1.007825032230

  Basis Set: AUG-CC-PVTZ
    Blend: AUG-CC-PVTZ
  Basis Set: (AUG-CC-PVTZ AUX)
    Blend: AUG-CC-PVTZ-JKFIT
	 Reference Energy          =    -268.9159131053479541 [Eh]
	 Singles Energy            =      -0.0000000000000000 [Eh]
	 Same-Spin Energy          =      -0.2742227576060104 [Eh]
	 Opposite-Spin Energy      =      -0.9206634658537770 [Eh]
	 Correlation Energy        =      -1.1948862234597875 [Eh]
	 Total Energy              =    -270.1107993288077296 [Eh]

	 ================> DF-SCS-MP2 Energies <==================
	-----------------------------------------------------------
	 SCS Same-Spin Scale       =       0.3333333333333333 [-]
	 SCS Opposite-Spin Scale   =       1.2000000000000000 [-]
	 SCS Same-Spin Energy      =      -0.0914075858686701 [Eh]
	 SCS Opposite-Spin Energy  =      -1.1047961590245323 [Eh]
	 SCS Correlation Energy    =      -1.1962037448932024 [Eh]
	 SCS Total Energy          =    -270.1121168502411365 [Eh]
	-----------------------------------------------------------

  Dipole Moment: [D]
     X:     4.7322      Y:     0.8291      Z:     0.0005     Total:     4.8042

*** Psi4 exiting successfully. Buy a developer a beer!
