                               Psi4 1.4a3.dev225

  ==> Input File <==

--------------------------------------------------------------------------
#psi4
#
memory 32 gb

molecule  {
0 1
  O       -2.7436610    -0.2479860    -0.0003050
  C        0.8706510    -0.0504500     0.0000920
  C        2.0389000    -0.9960240     0.0002020
  C        1.2510070     1.4052230     0.0001730
  C       -0.3937780    -0.5296350    -0.0000590
  C       -1.6414592     0.2774023    -0.0001766
  H        2.6694560    -0.8265420     0.8807060
  H        2.6696250    -0.8265350    -0.8801800
  H        1.7156570    -2.0395440     0.0001660
  H        1.8655830     1.6274140    -0.8794340
  H        1.8653250     1.6273830     0.8799690
  H        0.3995010     2.0850070     0.0000600
  H       -0.5613960    -1.6053580    -0.0001000
  H       -1.5271570     1.3681380    -0.0001420
units angstrom
no_reorient  #important for SAPT in psi4, default
symmetry c1  #important for SAPT in psi4, default
}

set PROPERTIES_ORIGIN ["COM"]
properties('MP2/aug-cc-pvtz', properties = ['dipole'])
--------------------------------------------------------------------------

    Molecular point group: c1
  Charge       = 0
  Multiplicity = 1
  Basis Set: AUG-CC-PVTZ
    Blend: AUG-CC-PVTZ
  Basis Set: (AUG-CC-PVTZ AUX)
    Blend: AUG-CC-PVTZ-JKFIT

    Orbital Energies [Eh]
    ---------------------

    Doubly Occupied:

       1A    -20.546335     2A    -11.327731     3A    -11.280582
       4A    -11.246405     5A    -11.241884     6A    -11.235833
       7A     -1.375364     8A     -1.121927     9A     -0.981328
      10A     -0.966410    11A     -0.830511    12A     -0.744777
      13A     -0.668759    14A     -0.640652    15A     -0.616368
      16A     -0.604231    17A     -0.559262    18A     -0.556666
      19A     -0.544731    20A     -0.526439    21A     -0.516173
      22A     -0.418619    23A     -0.366695

  @DF-RHF Final Energy:  -268.93722574786773

   => Energetics <=

    Nuclear Repulsion Energy =            216.6183240534559502
    One-Electron Energy =                -793.2757432413244487
    Two-Electron Energy =                 307.7201934400007985
    Total Energy =                       -268.9372257478677284
  Basis Set: (AUG-CC-PVTZ AUX)
    Blend: AUG-CC-PVTZ-RI
    Molecular point group: c1

    Geometry (in Angstrom), charge = 0, multiplicity = 1:

       Center              X                  Y                   Z               Mass
    ------------   -----------------  -----------------  -----------------  -----------------
         O           -2.634057489686    -0.232909141104    -0.000292526733    15.994914619570
         C            0.980254510314    -0.035373141104     0.000104473267    12.000000000000
         C            2.148503510314    -0.980947141104     0.000214473267    12.000000000000
         C            1.360610510314     1.420299858896     0.000185473267    12.000000000000
         C           -0.284174489686    -0.514558141104    -0.000046526733    12.000000000000
         C           -1.531855689686     0.292479158896    -0.000164126733    12.000000000000
         H            2.779059510314    -0.811465141104     0.880718473267     1.007825032230
         H            2.779228510314    -0.811458141104    -0.880167526733     1.007825032230
         H            1.825260510314    -2.024467141104     0.000178473267     1.007825032230
         H            1.975186510314     1.642490858896    -0.879421526733     1.007825032230
         H            1.974928510314     1.642459858896     0.879981473267     1.007825032230
         H            0.509104510314     2.100083858896     0.000072473267     1.007825032230
         H           -0.451792489686    -1.590281141104    -0.000087526733     1.007825032230
         H           -1.417553489686     1.383214858896    -0.000129526733     1.007825032230

  Basis Set: AUG-CC-PVTZ
    Blend: AUG-CC-PVTZ
  Basis Set: (AUG-CC-PVTZ AUX)
    Blend: AUG-CC-PVTZ-JKFIT
	 Reference Energy          =    -268.9372257478677284 [Eh]
	 Singles Energy            =      -0.0000000000000000 [Eh]
	 Same-Spin Energy          =      -0.2707188875872155 [Eh]
	 Opposite-Spin Energy      =      -0.9151573465523439 [Eh]
	 Correlation Energy        =      -1.1858762341395594 [Eh]
	 Total Energy              =    -270.1231019820073129 [Eh]

	 ================> DF-SCS-MP2 Energies <==================
	-----------------------------------------------------------
	 SCS Same-Spin Scale       =       0.3333333333333333 [-]
	 SCS Opposite-Spin Scale   =       1.2000000000000000 [-]
	 SCS Same-Spin Energy      =      -0.0902396291957385 [Eh]
	 SCS Opposite-Spin Energy  =      -1.0981888158628126 [Eh]
	 SCS Correlation Energy    =      -1.1884284450585512 [Eh]
	 SCS Total Energy          =    -270.1256541929262767 [Eh]
	-----------------------------------------------------------

  Dipole Moment: [D]
     X:     3.9805      Y:     1.0074      Z:     0.0005     Total:     4.1060

*** Psi4 exiting successfully. Buy a developer a beer!
