                               Psi4 1.4a3.dev225

  ==> Input File <==

--------------------------------------------------------------------------
#psi4
#
memory 32 gb

molecule  {
0 1
  O       -2.7436610    -0.2479860    -0.0003050
  C        0.8706510    -0.0504500     0.0000920
  C        2.0389000    -0.9960240     0.0002020
  C        1.2510070     1.4052230     0.0001730
  C       -0.3937780    -0.5296350    -0.0000590
  C       -1.6246660     0.2665400    -0.0001750
  H        2.6694560    -0.8265420     0.8807060
  H        2.6696250    -0.8265350    -0.8801800
  H        1.7156570    -2.0395440     0.0001660
  H        1.8655830     1.6274140    -0.8794340
  H        1.8653250     1.6273830     0.8799690
  H        0.3995010     2.0850070     0.0000600
  H       -0.5613960    -1.6053580    -0.0001000
  H       -1.5095228     1.5673591    -0.0001360
units angstrom
no_reorient  #important for SAPT in psi4, default
symmetry c1  #important for SAPT in psi4, default
}

set PROPERTIES_ORIGIN ["COM"]
properties('MP2/aug-cc-pvtz', properties = ['dipole'])
--------------------------------------------------------------------------

    Molecular point group: c1
  Charge       = 0
  Multiplicity = 1
  Basis Set: AUG-CC-PVTZ
    Blend: AUG-CC-PVTZ
  Basis Set: (AUG-CC-PVTZ AUX)
    Blend: AUG-CC-PVTZ-JKFIT

    Orbital Energies [Eh]
    ---------------------

    Doubly Occupied:

       1A    -20.550397     2A    -11.349198     3A    -11.285628
       4A    -11.246310     5A    -11.244482     6A    -11.240048
       7A     -1.371141     8A     -1.125467     9A     -0.985583
      10A     -0.967843    11A     -0.818379    12A     -0.725518
      13A     -0.665454    14A     -0.642226    15A     -0.617993
      16A     -0.588857    17A     -0.560708    18A     -0.558808
      19A     -0.546090    20A     -0.526945    21A     -0.517958
      22A     -0.409172    23A     -0.370068

  @DF-RHF Final Energy:  -268.91519184950141

   => Energetics <=

    Nuclear Repulsion Energy =            215.9652701201819127
    One-Electron Energy =                -791.9323759414910455
    Two-Electron Energy =                 307.0519139718077213
    Total Energy =                       -268.9151918495014115
  Basis Set: (AUG-CC-PVTZ AUX)
    Blend: AUG-CC-PVTZ-RI
    Molecular point group: c1

    Geometry (in Angstrom), charge = 0, multiplicity = 1:

       Center              X                  Y                   Z               Mass
    ------------   -----------------  -----------------  -----------------  -----------------
         O           -2.636666305668    -0.233747048478    -0.000292827087    15.994914619570
         C            0.977645694332    -0.036211048478     0.000104172913    12.000000000000
         C            2.145894694332    -0.981785048478     0.000214172913    12.000000000000
         C            1.358001694332     1.419461951522     0.000185172913    12.000000000000
         C           -0.286783305668    -0.515396048478    -0.000046827087    12.000000000000
         C           -1.517671305668     0.280778951522    -0.000162827087    12.000000000000
         H            2.776450694332    -0.812303048478     0.880718172913     1.007825032230
         H            2.776619694332    -0.812296048478    -0.880167827087     1.007825032230
         H            1.822651694332    -2.025305048478     0.000178172913     1.007825032230
         H            1.972577694332     1.641652951522    -0.879421827087     1.007825032230
         H            1.972319694332     1.641621951522     0.879981172913     1.007825032230
         H            0.506495694332     2.099245951522     0.000072172913     1.007825032230
         H           -0.454401305668    -1.591119048478    -0.000087827087     1.007825032230
         H           -1.402528105668     1.581598051522    -0.000123827087     1.007825032230

  Basis Set: AUG-CC-PVTZ
    Blend: AUG-CC-PVTZ
  Basis Set: (AUG-CC-PVTZ AUX)
    Blend: AUG-CC-PVTZ-JKFIT
	 Reference Energy          =    -268.9151918495014115 [Eh]
	 Singles Energy            =      -0.0000000000000000 [Eh]
	 Same-Spin Energy          =      -0.2724270283939861 [Eh]
	 Opposite-Spin Energy      =      -0.9186466202489607 [Eh]
	 Correlation Energy        =      -1.1910736486429467 [Eh]
	 Total Energy              =    -270.1062654981443529 [Eh]

	 ================> DF-SCS-MP2 Energies <==================
	-----------------------------------------------------------
	 SCS Same-Spin Scale       =       0.3333333333333333 [-]
	 SCS Opposite-Spin Scale   =       1.2000000000000000 [-]
	 SCS Same-Spin Energy      =      -0.0908090094646620 [Eh]
	 SCS Opposite-Spin Energy  =      -1.1023759442987529 [Eh]
	 SCS Correlation Energy    =      -1.1931849537634149 [Eh]
	 SCS Total Energy          =    -270.1083768032648322 [Eh]
	-----------------------------------------------------------

  Dipole Moment: [D]
     X:     4.0960      Y:     0.6978      Z:     0.0005     Total:     4.1550

*** Psi4 exiting successfully. Buy a developer a beer!
