                               Psi4 1.4a3.dev225

  ==> Input File <==

--------------------------------------------------------------------------
#psi4
#
memory 32 gb

molecule  {
1 1
  N        0.0000000     0.0000000     0.0000000
  C        1.4895250     0.0926920    -0.1642530
  C       -0.3334060    -0.1729460     1.4536780
  C       -0.5167230    -1.1772360    -0.7754760
  C       -0.6393960     1.2574900    -0.5139490
  H        1.8514760     0.9503420     0.4029520
  H        1.9263825    -0.8176424     0.2465263
  H        1.7177820     0.2178920    -1.2227970
  H       -1.4164000    -0.2388150     1.5589270
  H        0.1362470    -1.0883220     1.8139650
  H        0.0467840     0.6873570     2.0047010
  H       -1.5978840    -1.2330590    -0.6479300
  H       -0.2683930    -1.0393290    -1.8279050
  H       -0.0452370    -2.0825640    -0.3928860
  H       -1.7193290     1.1773100    -0.3890120
  H       -0.2561440     2.1034850     0.0567550
  H       -0.3898460     1.3710400    -1.5689960
units angstrom
no_reorient  #important for SAPT in psi4, default
symmetry c1  #important for SAPT in psi4, default
}

set PROPERTIES_ORIGIN ["COM"]
properties('MP2/aug-cc-pvtz', properties = ['dipole'])
--------------------------------------------------------------------------

    Molecular point group: c1
  Charge       = 1
  Multiplicity = 1
  Basis Set: AUG-CC-PVTZ
    Blend: AUG-CC-PVTZ
  Basis Set: (AUG-CC-PVTZ AUX)
    Blend: AUG-CC-PVTZ-JKFIT

    Orbital Energies [Eh]
    ---------------------

    Doubly Occupied:

       1A    -15.870141     2A    -11.454119     3A    -11.454014
       4A    -11.453853     5A    -11.453803     6A     -1.508385
       7A     -1.172383     8A     -1.172022     9A     -1.171943
      10A     -1.021662    11A     -0.870175    12A     -0.869498
      13A     -0.868548    14A     -0.781607    15A     -0.779652
      16A     -0.732914    17A     -0.731421    18A     -0.730390
      19A     -0.720531    20A     -0.719868    21A     -0.718881

  @DF-RHF Final Energy:  -212.76353711745699

   => Energetics <=

    Nuclear Repulsion Energy =            214.0187221537477171
    One-Electron Energy =                -701.0528946420836292
    Two-Electron Energy =                 274.2706353708789493
    Total Energy =                       -212.7635371174569627
  Basis Set: (AUG-CC-PVTZ AUX)
    Blend: AUG-CC-PVTZ-RI
    Molecular point group: c1

    Geometry (in Angstrom), charge = 1, multiplicity = 1:

       Center              X                  Y                   Z               Mass
    ------------   -----------------  -----------------  -----------------  -----------------
         N            0.000198057267    -0.000104657586    -0.000466533232    14.003074004430
         C            1.489723057267     0.092587342414    -0.164719533232    12.000000000000
         C           -0.333207942733    -0.173050657586     1.453211466768    12.000000000000
         C           -0.516524942733    -1.177340657586    -0.775942533232    12.000000000000
         C           -0.639197942733     1.257385342414    -0.514415533232    12.000000000000
         H            1.851674057267     0.950237342414     0.402485466768     1.007825032230
         H            1.926580557267    -0.817747057586     0.246059766768     1.007825032230
         H            1.717980057267     0.217787342414    -1.223263533232     1.007825032230
         H           -1.416201942733    -0.238919657586     1.558460466768     1.007825032230
         H            0.136445057267    -1.088426657586     1.813498466768     1.007825032230
         H            0.046982057267     0.687252342414     2.004234466768     1.007825032230
         H           -1.597685942733    -1.233163657586    -0.648396533232     1.007825032230
         H           -0.268194942733    -1.039433657586    -1.828371533232     1.007825032230
         H           -0.045038942733    -2.082668657586    -0.393352533232     1.007825032230
         H           -1.719130942733     1.177205342414    -0.389478533232     1.007825032230
         H           -0.255945942733     2.103380342414     0.056288466768     1.007825032230
         H           -0.389647942733     1.370935342414    -1.569462533232     1.007825032230

  Basis Set: AUG-CC-PVTZ
    Blend: AUG-CC-PVTZ
  Basis Set: (AUG-CC-PVTZ AUX)
    Blend: AUG-CC-PVTZ-JKFIT
	 Reference Energy          =    -212.7635371174569912 [Eh]
	 Singles Energy            =      -0.0000000000000000 [Eh]
	 Same-Spin Energy          =      -0.2168726256643001 [Eh]
	 Opposite-Spin Energy      =      -0.8148541001896913 [Eh]
	 Correlation Energy        =      -1.0317267258539915 [Eh]
	 Total Energy              =    -213.7952638433109769 [Eh]

	 ================> DF-SCS-MP2 Energies <==================
	-----------------------------------------------------------
	 SCS Same-Spin Scale       =       0.3333333333333333 [-]
	 SCS Opposite-Spin Scale   =       1.2000000000000000 [-]
	 SCS Same-Spin Energy      =      -0.0722908752214334 [Eh]
	 SCS Opposite-Spin Energy  =      -0.9778249202276295 [Eh]
	 SCS Correlation Energy    =      -1.0501157954490627 [Eh]
	 SCS Total Energy          =    -213.8136529129060648 [Eh]
	-----------------------------------------------------------

  Dipole Moment: [D]
     X:    -0.0032      Y:     0.0083      Z:     0.0115     Total:     0.0146

*** Psi4 exiting successfully. Buy a developer a beer!
