                               Psi4 1.4a3.dev225

  ==> Input File <==

--------------------------------------------------------------------------
#psi4
#
memory 32 gb

molecule  {
1 1
  N        0.0000000     0.0000000     0.0000000
  C        1.4895250     0.0926920    -0.1642530
  C       -0.2889938    -0.1499083     1.2600370
  C       -0.5167230    -1.1772360    -0.7754760
  C       -0.6393960     1.2574900    -0.5139490
  H        1.8514760     0.9503420     0.4029520
  H        1.9409440    -0.8253370     0.2122260
  H        1.7177820     0.2178920    -1.2227970
  H       -1.4164000    -0.2388150     1.5589270
  H        0.1362470    -1.0883220     1.8139650
  H        0.0467840     0.6873570     2.0047010
  H       -1.5978840    -1.2330590    -0.6479300
  H       -0.2683930    -1.0393290    -1.8279050
  H       -0.0452370    -2.0825640    -0.3928860
  H       -1.7193290     1.1773100    -0.3890120
  H       -0.2561440     2.1034850     0.0567550
  H       -0.3898460     1.3710400    -1.5689960
units angstrom
no_reorient  #important for SAPT in psi4, default
symmetry c1  #important for SAPT in psi4, default
}

set PROPERTIES_ORIGIN ["COM"]
properties('MP2/aug-cc-pvtz', properties = ['dipole'])
--------------------------------------------------------------------------

    Molecular point group: c1
  Charge       = 1
  Multiplicity = 1
  Basis Set: AUG-CC-PVTZ
    Blend: AUG-CC-PVTZ
  Basis Set: (AUG-CC-PVTZ AUX)
    Blend: AUG-CC-PVTZ-JKFIT

    Orbital Energies [Eh]
    ---------------------

    Doubly Occupied:

       1A    -15.874458     2A    -11.459192     3A    -11.459192
       4A    -11.459174     5A    -11.454195     6A     -1.561880
       7A     -1.187643     8A     -1.183060     9A     -1.183060
      10A     -1.018660    11A     -0.888982    12A     -0.884747
      13A     -0.884747    14A     -0.781252    15A     -0.781251
      16A     -0.756756    17A     -0.736215    18A     -0.732945
      19A     -0.732945    20A     -0.675492    21A     -0.675492

  @DF-RHF Final Energy:  -212.71851410623725

   => Energetics <=

    Nuclear Repulsion Energy =            217.7850062789783863
    One-Electron Energy =                -708.2643686604868662
    Two-Electron Energy =                 277.7608482752712575
    Total Energy =                       -212.7185141062372509
  Basis Set: (AUG-CC-PVTZ AUX)
    Blend: AUG-CC-PVTZ-RI
    Molecular point group: c1

    Geometry (in Angstrom), charge = 1, multiplicity = 1:

       Center              X                  Y                   Z               Mass
    ------------   -----------------  -----------------  -----------------  -----------------
         N           -0.007192552792    -0.003730953960     0.031360146876    14.003074004430
         C            1.482332447208     0.088961046040    -0.132892853124    12.000000000000
         C           -0.296186352792    -0.153639253960     1.291397146876    12.000000000000
         C           -0.523915552792    -1.180966953960    -0.744115853124    12.000000000000
         C           -0.646588552792     1.253759046040    -0.482588853124    12.000000000000
         H            1.844283447208     0.946611046040     0.434312146876     1.007825032230
         H            1.933751447208    -0.829067953960     0.243586146876     1.007825032230
         H            1.710589447208     0.214161046040    -1.191436853124     1.007825032230
         H           -1.423592552792    -0.242545953960     1.590287146876     1.007825032230
         H            0.129054447208    -1.092052953960     1.845325146876     1.007825032230
         H            0.039591447208     0.683626046040     2.036061146876     1.007825032230
         H           -1.605076552792    -1.236789953960    -0.616569853124     1.007825032230
         H           -0.275585552792    -1.043059953960    -1.796544853124     1.007825032230
         H           -0.052429552792    -2.086294953960    -0.361525853124     1.007825032230
         H           -1.726521552792     1.173579046040    -0.357651853124     1.007825032230
         H           -0.263336552792     2.099754046040     0.088115146876     1.007825032230
         H           -0.397038552792     1.367309046040    -1.537635853124     1.007825032230

  Basis Set: AUG-CC-PVTZ
    Blend: AUG-CC-PVTZ
  Basis Set: (AUG-CC-PVTZ AUX)
    Blend: AUG-CC-PVTZ-JKFIT
	 Reference Energy          =    -212.7185141062372509 [Eh]
	 Singles Energy            =      -0.0000000000000000 [Eh]
	 Same-Spin Energy          =      -0.2197340431736337 [Eh]
	 Opposite-Spin Energy      =      -0.8173548780703982 [Eh]
	 Correlation Energy        =      -1.0370889212440320 [Eh]
	 Total Energy              =    -213.7556030274812713 [Eh]

	 ================> DF-SCS-MP2 Energies <==================
	-----------------------------------------------------------
	 SCS Same-Spin Scale       =       0.3333333333333333 [-]
	 SCS Opposite-Spin Scale   =       1.2000000000000000 [-]
	 SCS Same-Spin Energy      =      -0.0732446810578779 [Eh]
	 SCS Opposite-Spin Energy  =      -0.9808258536844778 [Eh]
	 SCS Correlation Energy    =      -1.0540705347423558 [Eh]
	 SCS Total Energy          =    -213.7725846409796020 [Eh]
	-----------------------------------------------------------

  Dipole Moment: [D]
     X:     0.0458      Y:     0.0238      Z:    -0.1999     Total:     0.2064

*** Psi4 exiting successfully. Buy a developer a beer!
