                               Psi4 1.4a3.dev225

  ==> Input File <==

--------------------------------------------------------------------------
#psi4
#
memory 32 gb

molecule  {
1 1
  N        0.0000000     0.0000000     0.0000000
  C        1.4895250     0.0926920    -0.1642530
  C       -0.3334060    -0.1729460     1.4536780
  C       -0.5167230    -1.1772360    -0.7754760
  C       -0.6393960     1.2574900    -0.5139490
  H        1.8514760     0.9503420     0.4029520
  H        1.9409440    -0.8253370     0.2122260
  H        1.7177820     0.2178920    -1.2227970
  H       -1.5157492    -0.2448575     1.5685821
  H        0.1362470    -1.0883220     1.8139650
  H        0.0467840     0.6873570     2.0047010
  H       -1.5978840    -1.2330590    -0.6479300
  H       -0.2683930    -1.0393290    -1.8279050
  H       -0.0452370    -2.0825640    -0.3928860
  H       -1.7193290     1.1773100    -0.3890120
  H       -0.2561440     2.1034850     0.0567550
  H       -0.3898460     1.3710400    -1.5689960
units angstrom
no_reorient  #important for SAPT in psi4, default
symmetry c1  #important for SAPT in psi4, default
}

set PROPERTIES_ORIGIN ["COM"]
properties('MP2/aug-cc-pvtz', properties = ['dipole'])
--------------------------------------------------------------------------

    Molecular point group: c1
  Charge       = 1
  Multiplicity = 1
  Basis Set: AUG-CC-PVTZ
    Blend: AUG-CC-PVTZ
  Basis Set: (AUG-CC-PVTZ AUX)
    Blend: AUG-CC-PVTZ-JKFIT

    Orbital Energies [Eh]
    ---------------------

    Doubly Occupied:

       1A    -15.871033     2A    -11.464003     3A    -11.454446
       4A    -11.453734     5A    -11.453721     6A     -1.508322
       7A     -1.172294     8A     -1.171929     9A     -1.165401
      10A     -1.019201    11A     -0.869700    12A     -0.869597
      13A     -0.863931    14A     -0.780529    15A     -0.775734
      16A     -0.731646    17A     -0.731378    18A     -0.725583
      19A     -0.720251    20A     -0.720105    21A     -0.710058

  @DF-RHF Final Energy:  -212.75678369173403

   => Energetics <=

    Nuclear Repulsion Energy =            213.5783493952207266
    One-Electron Energy =                -700.2050741017942528
    Two-Electron Energy =                 273.8699410148395259
    Total Energy =                       -212.7567836917340287
  Basis Set: (AUG-CC-PVTZ AUX)
    Blend: AUG-CC-PVTZ-RI
    Molecular point group: c1

    Geometry (in Angstrom), charge = 1, multiplicity = 1:

       Center              X                  Y                   Z               Mass
    ------------   -----------------  -----------------  -----------------  -----------------
         N            0.001351291487     0.000082186659    -0.000131323196    14.003074004430
         C            1.490876291487     0.092774186659    -0.164384323196    12.000000000000
         C           -0.332054708513    -0.172863813341     1.453546676804    12.000000000000
         C           -0.515371708513    -1.177153813341    -0.775607323196    12.000000000000
         C           -0.638044708513     1.257572186659    -0.514080323196    12.000000000000
         H            1.852827291487     0.950424186659     0.402820676804     1.007825032230
         H            1.942295291487    -0.825254813341     0.212094676804     1.007825032230
         H            1.719133291487     0.217974186659    -1.222928323196     1.007825032230
         H           -1.514397908513    -0.244775313341     1.568450776804     1.007825032230
         H            0.137598291487    -1.088239813341     1.813833676804     1.007825032230
         H            0.048135291487     0.687439186659     2.004569676804     1.007825032230
         H           -1.596532708513    -1.232976813341    -0.648061323196     1.007825032230
         H           -0.267041708513    -1.039246813341    -1.828036323196     1.007825032230
         H           -0.043885708513    -2.082481813341    -0.393017323196     1.007825032230
         H           -1.717977708513     1.177392186659    -0.389143323196     1.007825032230
         H           -0.254792708513     2.103567186659     0.056623676804     1.007825032230
         H           -0.388494708513     1.371122186659    -1.569127323196     1.007825032230

  Basis Set: AUG-CC-PVTZ
    Blend: AUG-CC-PVTZ
  Basis Set: (AUG-CC-PVTZ AUX)
    Blend: AUG-CC-PVTZ-JKFIT
	 Reference Energy          =    -212.7567836917340287 [Eh]
	 Singles Energy            =      -0.0000000000000000 [Eh]
	 Same-Spin Energy          =      -0.2170131744511061 [Eh]
	 Opposite-Spin Energy      =      -0.8156915251141015 [Eh]
	 Correlation Energy        =      -1.0327046995652076 [Eh]
	 Total Energy              =    -213.7894883912992441 [Eh]

	 ================> DF-SCS-MP2 Energies <==================
	-----------------------------------------------------------
	 SCS Same-Spin Scale       =       0.3333333333333333 [-]
	 SCS Opposite-Spin Scale   =       1.2000000000000000 [-]
	 SCS Same-Spin Energy      =      -0.0723377248170354 [Eh]
	 SCS Opposite-Spin Energy  =      -0.9788298301369217 [Eh]
	 SCS Correlation Energy    =      -1.0511675549539570 [Eh]
	 SCS Total Energy          =    -213.8079512466879919 [Eh]
	-----------------------------------------------------------

  Dipole Moment: [D]
     X:     0.0049      Y:     0.0001      Z:     0.0018     Total:     0.0052

*** Psi4 exiting successfully. Buy a developer a beer!
