                               Psi4 1.4a3.dev225

  ==> Input File <==

--------------------------------------------------------------------------
#psi4
#
memory 32 gb

molecule  {
1 1
  N        0.0000000     0.0000000     0.0000000
  C        1.4895250     0.0926920    -0.1642530
  C       -0.3334060    -0.1729460     1.4536780
  C       -0.5167230    -1.1772360    -0.7754760
  C       -0.6393960     1.2574900    -0.5139490
  H        1.8514760     0.9503420     0.4029520
  H        1.9409440    -0.8253370     0.2122260
  H        1.7177820     0.2178920    -1.2227970
  H       -1.4211159    -0.1339632     1.5141718
  H        0.1362470    -1.0883220     1.8139650
  H        0.0467840     0.6873570     2.0047010
  H       -1.5978840    -1.2330590    -0.6479300
  H       -0.2683930    -1.0393290    -1.8279050
  H       -0.0452370    -2.0825640    -0.3928860
  H       -1.7193290     1.1773100    -0.3890120
  H       -0.2561440     2.1034850     0.0567550
  H       -0.3898460     1.3710400    -1.5689960
units angstrom
no_reorient  #important for SAPT in psi4, default
symmetry c1  #important for SAPT in psi4, default
}

set PROPERTIES_ORIGIN ["COM"]
properties('MP2/aug-cc-pvtz', properties = ['dipole'])
--------------------------------------------------------------------------

    Molecular point group: c1
  Charge       = 1
  Multiplicity = 1
  Basis Set: AUG-CC-PVTZ
    Blend: AUG-CC-PVTZ
  Basis Set: (AUG-CC-PVTZ AUX)
    Blend: AUG-CC-PVTZ-JKFIT

    Orbital Energies [Eh]
    ---------------------

    Doubly Occupied:

       1A    -15.869616     2A    -11.454522     3A    -11.454237
       4A    -11.453731     5A    -11.453557     6A     -1.508448
       7A     -1.173129     8A     -1.171973     9A     -1.171727
      10A     -1.021287    11A     -0.871751    12A     -0.869626
      13A     -0.866852    14A     -0.784194    15A     -0.778209
      16A     -0.735850    17A     -0.731465    18A     -0.728722
      19A     -0.721352    20A     -0.719864    21A     -0.716190

  @DF-RHF Final Energy:  -212.76231834839868

   => Energetics <=

    Nuclear Repulsion Energy =            214.0845602816671089
    One-Electron Energy =                -701.1811507578619285
    Two-Electron Energy =                 274.3342721277961687
    Total Energy =                       -212.7623183483986509
  Basis Set: (AUG-CC-PVTZ AUX)
    Blend: AUG-CC-PVTZ-RI
    Molecular point group: c1

    Geometry (in Angstrom), charge = 1, multiplicity = 1:

       Center              X                  Y                   Z               Mass
    ------------   -----------------  -----------------  -----------------  -----------------
         N            0.000064142998    -0.001426134732     0.000608734854    14.003074004430
         C            1.489589142998     0.091265865268    -0.163644265146    12.000000000000
         C           -0.333341857002    -0.174372134732     1.454286734854    12.000000000000
         C           -0.516658857002    -1.178662134732    -0.774867265146    12.000000000000
         C           -0.639331857002     1.256063865268    -0.513340265146    12.000000000000
         H            1.851540142998     0.948915865268     0.403560734854     1.007825032230
         H            1.941008142998    -0.826763134732     0.212834734854     1.007825032230
         H            1.717846142998     0.216465865268    -1.222188265146     1.007825032230
         H           -1.421051757002    -0.135389334732     1.514780534854     1.007825032230
         H            0.136311142998    -1.089748134732     1.814573734854     1.007825032230
         H            0.046848142998     0.685930865268     2.005309734854     1.007825032230
         H           -1.597819857002    -1.234485134732    -0.647321265146     1.007825032230
         H           -0.268328857002    -1.040755134732    -1.827296265146     1.007825032230
         H           -0.045172857002    -2.083990134732    -0.392277265146     1.007825032230
         H           -1.719264857002     1.175883865268    -0.388403265146     1.007825032230
         H           -0.256079857002     2.102058865268     0.057363734854     1.007825032230
         H           -0.389781857002     1.369613865268    -1.568387265146     1.007825032230

  Basis Set: AUG-CC-PVTZ
    Blend: AUG-CC-PVTZ
  Basis Set: (AUG-CC-PVTZ AUX)
    Blend: AUG-CC-PVTZ-JKFIT
	 Reference Energy          =    -212.7623183483986793 [Eh]
	 Singles Energy            =      -0.0000000000000000 [Eh]
	 Same-Spin Energy          =      -0.2169637380729779 [Eh]
	 Opposite-Spin Energy      =      -0.8150118194901019 [Eh]
	 Correlation Energy        =      -1.0319755575630798 [Eh]
	 Total Energy              =    -213.7942939059617515 [Eh]

	 ================> DF-SCS-MP2 Energies <==================
	-----------------------------------------------------------
	 SCS Same-Spin Scale       =       0.3333333333333333 [-]
	 SCS Opposite-Spin Scale   =       1.2000000000000000 [-]
	 SCS Same-Spin Energy      =      -0.0723212460243260 [Eh]
	 SCS Opposite-Spin Energy  =      -0.9780141833881223 [Eh]
	 SCS Correlation Energy    =      -1.0503354294124483 [Eh]
	 SCS Total Energy          =    -213.8126537778111356 [Eh]
	-----------------------------------------------------------

  Dipole Moment: [D]
     X:     0.0120      Y:     0.0411      Z:    -0.0047     Total:     0.0431

*** Psi4 exiting successfully. Buy a developer a beer!
