                               Psi4 1.4a3.dev225

  ==> Input File <==

--------------------------------------------------------------------------
#psi4
#
memory 32 gb

molecule  {
1 1
  N        0.0000000     0.0000000     0.0000000
  C        1.4895250     0.0926920    -0.1642530
  C       -0.3334060    -0.1729460     1.4536780
  C       -0.5167230    -1.1772360    -0.7754760
  C       -0.6393960     1.2574900    -0.5139490
  H        1.8514760     0.9503420     0.4029520
  H        1.9409440    -0.8253370     0.2122260
  H        1.7177820     0.2178920    -1.2227970
  H       -1.4164000    -0.2388150     1.5589270
  H        0.1793309    -1.1722946     1.8470162
  H        0.0467840     0.6873570     2.0047010
  H       -1.5978840    -1.2330590    -0.6479300
  H       -0.2683930    -1.0393290    -1.8279050
  H       -0.0452370    -2.0825640    -0.3928860
  H       -1.7193290     1.1773100    -0.3890120
  H       -0.2561440     2.1034850     0.0567550
  H       -0.3898460     1.3710400    -1.5689960
units angstrom
no_reorient  #important for SAPT in psi4, default
symmetry c1  #important for SAPT in psi4, default
}

set PROPERTIES_ORIGIN ["COM"]
properties('MP2/aug-cc-pvtz', properties = ['dipole'])
--------------------------------------------------------------------------

    Molecular point group: c1
  Charge       = 1
  Multiplicity = 1
  Basis Set: AUG-CC-PVTZ
    Blend: AUG-CC-PVTZ
  Basis Set: (AUG-CC-PVTZ AUX)
    Blend: AUG-CC-PVTZ-JKFIT

    Orbital Energies [Eh]
    ---------------------

    Doubly Occupied:

       1A    -15.871033     2A    -11.464003     3A    -11.454446
       4A    -11.453734     5A    -11.453721     6A     -1.508322
       7A     -1.172294     8A     -1.171929     9A     -1.165401
      10A     -1.019201    11A     -0.869700    12A     -0.869597
      13A     -0.863931    14A     -0.780529    15A     -0.775734
      16A     -0.731646    17A     -0.731378    18A     -0.725583
      19A     -0.720251    20A     -0.720105    21A     -0.710057

  @DF-RHF Final Energy:  -212.75678361074927

   => Energetics <=

    Nuclear Repulsion Energy =            213.5783496070004048
    One-Electron Energy =                -700.2050742506899041
    Two-Electron Energy =                 273.8699410329402326
    Total Energy =                       -212.7567836107492667
  Basis Set: (AUG-CC-PVTZ AUX)
    Blend: AUG-CC-PVTZ-RI
    Molecular point group: c1

    Geometry (in Angstrom), charge = 1, multiplicity = 1:

       Center              X                  Y                   Z               Mass
    ------------   -----------------  -----------------  -----------------  -----------------
         N           -0.000586002779     0.001142147692    -0.000449543682    14.003074004430
         C            1.488938997221     0.093834147692    -0.164702543682    12.000000000000
         C           -0.333992002779    -0.171803852308     1.453228456318    12.000000000000
         C           -0.517309002779    -1.176093852308    -0.775925543682    12.000000000000
         C           -0.639982002779     1.258632147692    -0.514398543682    12.000000000000
         H            1.850889997221     0.951484147692     0.402502456318     1.007825032230
         H            1.940357997221    -0.824194852308     0.211776456318     1.007825032230
         H            1.717195997221     0.219034147692    -1.223246543682     1.007825032230
         H           -1.416986002779    -0.237672852308     1.558477456318     1.007825032230
         H            0.178744897221    -1.171152452308     1.846566656318     1.007825032230
         H            0.046197997221     0.688499147692     2.004251456318     1.007825032230
         H           -1.598470002779    -1.231916852308    -0.648379543682     1.007825032230
         H           -0.268979002779    -1.038186852308    -1.828354543682     1.007825032230
         H           -0.045823002779    -2.081421852308    -0.393335543682     1.007825032230
         H           -1.719915002779     1.178452147692    -0.389461543682     1.007825032230
         H           -0.256730002779     2.104627147692     0.056305456318     1.007825032230
         H           -0.390432002779     1.372182147692    -1.569445543682     1.007825032230

  Basis Set: AUG-CC-PVTZ
    Blend: AUG-CC-PVTZ
  Basis Set: (AUG-CC-PVTZ AUX)
    Blend: AUG-CC-PVTZ-JKFIT
	 Reference Energy          =    -212.7567836107492667 [Eh]
	 Singles Energy            =      -0.0000000000000000 [Eh]
	 Same-Spin Energy          =      -0.2170131745264781 [Eh]
	 Opposite-Spin Energy      =      -0.8156915272493344 [Eh]
	 Correlation Energy        =      -1.0327047017758124 [Eh]
	 Total Energy              =    -213.7894883125250658 [Eh]

	 ================> DF-SCS-MP2 Energies <==================
	-----------------------------------------------------------
	 SCS Same-Spin Scale       =       0.3333333333333333 [-]
	 SCS Opposite-Spin Scale   =       1.2000000000000000 [-]
	 SCS Same-Spin Energy      =      -0.0723377248421594 [Eh]
	 SCS Opposite-Spin Energy  =      -0.9788298326992012 [Eh]
	 SCS Correlation Energy    =      -1.0511675575413606 [Eh]
	 SCS Total Energy          =    -213.8079511682906286 [Eh]
	-----------------------------------------------------------

  Dipole Moment: [D]
     X:    -0.0029      Y:     0.0043      Z:     0.0005     Total:     0.0052

*** Psi4 exiting successfully. Buy a developer a beer!
