                               Psi4 1.4a3.dev225

  ==> Input File <==

--------------------------------------------------------------------------
#psi4
#
memory 32 gb

molecule  {
1 1
  N        0.0000000     0.0000000     0.0000000
  C        1.4895250     0.0926920    -0.1642530
  C       -0.3334060    -0.1729460     1.4536780
  C       -0.5167230    -1.1772360    -0.7754760
  C       -0.6393960     1.2574900    -0.5139490
  H        1.8514760     0.9503420     0.4029520
  H        1.9409440    -0.8253370     0.2122260
  H        1.7177820     0.2178920    -1.2227970
  H       -1.4362698    -0.2400235     1.5608580
  H        0.1362470    -1.0883220     1.8139650
  H        0.0467840     0.6873570     2.0047010
  H       -1.5978840    -1.2330590    -0.6479300
  H       -0.2683930    -1.0393290    -1.8279050
  H       -0.0452370    -2.0825640    -0.3928860
  H       -1.7193290     1.1773100    -0.3890120
  H       -0.2561440     2.1034850     0.0567550
  H       -0.3898460     1.3710400    -1.5689960
units angstrom
no_reorient  #important for SAPT in psi4, default
symmetry c1  #important for SAPT in psi4, default
}

set PROPERTIES_ORIGIN ["COM"]
properties('MP2/aug-cc-pvtz', properties = ['dipole'])
--------------------------------------------------------------------------

    Molecular point group: c1
  Charge       = 1
  Multiplicity = 1
  Basis Set: AUG-CC-PVTZ
    Blend: AUG-CC-PVTZ
  Basis Set: (AUG-CC-PVTZ AUX)
    Blend: AUG-CC-PVTZ-JKFIT

    Orbital Energies [Eh]
    ---------------------

    Doubly Occupied:

       1A    -15.870522     2A    -11.456006     3A    -11.454012
       4A    -11.453884     5A    -11.453870     6A     -1.508340
       7A     -1.172101     8A     -1.172031     9A     -1.170512
      10A     -1.021273    11A     -0.869484    12A     -0.869466
      13A     -0.868175    14A     -0.780433    15A     -0.779301
      16A     -0.731441    17A     -0.731397    18A     -0.729615
      19A     -0.719939    20A     -0.719912    21A     -0.718839

  @DF-RHF Final Energy:  -212.76313615404408

   => Energetics <=

    Nuclear Repulsion Energy =            213.9024315323911480
    One-Electron Energy =                -700.8300299160760005
    Two-Electron Energy =                 274.1644622296407761
    Total Energy =                       -212.7631361540441048
  Basis Set: (AUG-CC-PVTZ AUX)
    Blend: AUG-CC-PVTZ-RI
    Molecular point group: c1

    Geometry (in Angstrom), charge = 1, multiplicity = 1:

       Center              X                  Y                   Z               Mass
    ------------   -----------------  -----------------  -----------------  -----------------
         N            0.000270257753     0.000016437332    -0.000026264367    14.003074004430
         C            1.489795257753     0.092708437332    -0.164279264367    12.000000000000
         C           -0.333135742247    -0.172929562668     1.453651735633    12.000000000000
         C           -0.516452742247    -1.177219562668    -0.775502264367    12.000000000000
         C           -0.639125742247     1.257506437332    -0.513975264367    12.000000000000
         H            1.851746257753     0.950358437332     0.402925735633     1.007825032230
         H            1.941214257753    -0.825320562668     0.212199735633     1.007825032230
         H            1.718052257753     0.217908437332    -1.222823264367     1.007825032230
         H           -1.435999542247    -0.240007062668     1.560831735633     1.007825032230
         H            0.136517257753    -1.088305562668     1.813938735633     1.007825032230
         H            0.047054257753     0.687373437332     2.004674735633     1.007825032230
         H           -1.597613742247    -1.233042562668    -0.647956264367     1.007825032230
         H           -0.268122742247    -1.039312562668    -1.827931264367     1.007825032230
         H           -0.044966742247    -2.082547562668    -0.392912264367     1.007825032230
         H           -1.719058742247     1.177326437332    -0.389038264367     1.007825032230
         H           -0.255873742247     2.103501437332     0.056728735633     1.007825032230
         H           -0.389575742247     1.371056437332    -1.569022264367     1.007825032230

  Basis Set: AUG-CC-PVTZ
    Blend: AUG-CC-PVTZ
  Basis Set: (AUG-CC-PVTZ AUX)
    Blend: AUG-CC-PVTZ-JKFIT
	 Reference Energy          =    -212.7631361540440764 [Eh]
	 Singles Energy            =      -0.0000000000000000 [Eh]
	 Same-Spin Energy          =      -0.2168781589563931 [Eh]
	 Opposite-Spin Energy      =      -0.8149650373401646 [Eh]
	 Correlation Energy        =      -1.0318431962965577 [Eh]
	 Total Energy              =    -213.7949793503406397 [Eh]

	 ================> DF-SCS-MP2 Energies <==================
	-----------------------------------------------------------
	 SCS Same-Spin Scale       =       0.3333333333333333 [-]
	 SCS Opposite-Spin Scale   =       1.2000000000000000 [-]
	 SCS Same-Spin Energy      =      -0.0722927196521310 [Eh]
	 SCS Opposite-Spin Energy  =      -0.9779580448081975 [Eh]
	 SCS Correlation Energy    =      -1.0502507644603285 [Eh]
	 SCS Total Energy          =    -213.8133869185043920 [Eh]
	-----------------------------------------------------------

  Dipole Moment: [D]
     X:     0.0007      Y:    -0.0000      Z:     0.0006     Total:     0.0009

*** Psi4 exiting successfully. Buy a developer a beer!
