                               Psi4 1.4a3.dev225

  ==> Input File <==

--------------------------------------------------------------------------
#psi4
#
memory 32 gb

molecule  {
1 1
  N        0.0000000     0.0000000     0.0000000
  C        1.4895250     0.0926920    -0.1642530
  C       -0.3111999    -0.1614271     1.3568575
  C       -0.5167230    -1.1772360    -0.7754760
  C       -0.6393960     1.2574900    -0.5139490
  H        1.8514760     0.9503420     0.4029520
  H        1.9409440    -0.8253370     0.2122260
  H        1.7177820     0.2178920    -1.2227970
  H       -1.4164000    -0.2388150     1.5589270
  H        0.1362470    -1.0883220     1.8139650
  H        0.0467840     0.6873570     2.0047010
  H       -1.5978840    -1.2330590    -0.6479300
  H       -0.2683930    -1.0393290    -1.8279050
  H       -0.0452370    -2.0825640    -0.3928860
  H       -1.7193290     1.1773100    -0.3890120
  H       -0.2561440     2.1034850     0.0567550
  H       -0.3898460     1.3710400    -1.5689960
units angstrom
no_reorient  #important for SAPT in psi4, default
symmetry c1  #important for SAPT in psi4, default
}

set PROPERTIES_ORIGIN ["COM"]
properties('MP2/aug-cc-pvtz', properties = ['dipole'])
--------------------------------------------------------------------------

    Molecular point group: c1
  Charge       = 1
  Multiplicity = 1
  Basis Set: AUG-CC-PVTZ
    Blend: AUG-CC-PVTZ
  Basis Set: (AUG-CC-PVTZ AUX)
    Blend: AUG-CC-PVTZ-JKFIT

    Orbital Energies [Eh]
    ---------------------

    Doubly Occupied:

       1A    -15.873802     2A    -11.456567     3A    -11.456567
       4A    -11.456548     5A    -11.452410     6A     -1.531653
       7A     -1.177311     8A     -1.177241     9A     -1.177241
      10A     -1.021653    11A     -0.879398    12A     -0.876099
      13A     -0.876099    14A     -0.779585    15A     -0.779585
      16A     -0.740408    17A     -0.733837    18A     -0.729471
      19A     -0.729471    20A     -0.702834    21A     -0.702834

  @DF-RHF Final Energy:  -212.75382343359604

   => Energetics <=

    Nuclear Repulsion Energy =            215.8008416274326464
    One-Electron Energy =                -704.4880954245809335
    Two-Electron Energy =                 275.9334303635522474
    Total Energy =                       -212.7538234335960396
  Basis Set: (AUG-CC-PVTZ AUX)
    Blend: AUG-CC-PVTZ-RI
    Molecular point group: c1

    Geometry (in Angstrom), charge = 1, multiplicity = 1:

       Center              X                  Y                   Z               Mass
    ------------   -----------------  -----------------  -----------------  -----------------
         N           -0.003596276396    -0.001865485077     0.015680073438    14.003074004430
         C            1.485928723604     0.090826514923    -0.148572926562    12.000000000000
         C           -0.314796176396    -0.163292585077     1.372537573438    12.000000000000
         C           -0.520319276396    -1.179101485077    -0.759795926562    12.000000000000
         C           -0.642992276396     1.255624514923    -0.498268926562    12.000000000000
         H            1.847879723604     0.948476514923     0.418632073438     1.007825032230
         H            1.937347723604    -0.827202485077     0.227906073438     1.007825032230
         H            1.714185723604     0.216026514923    -1.207116926562     1.007825032230
         H           -1.419996276396    -0.240680485077     1.574607073438     1.007825032230
         H            0.132650723604    -1.090187485077     1.829645073438     1.007825032230
         H            0.043187723604     0.685491514923     2.020381073438     1.007825032230
         H           -1.601480276396    -1.234924485077    -0.632249926562     1.007825032230
         H           -0.271989276396    -1.041194485077    -1.812224926562     1.007825032230
         H           -0.048833276396    -2.084429485077    -0.377205926562     1.007825032230
         H           -1.722925276396     1.175444514923    -0.373331926562     1.007825032230
         H           -0.259740276396     2.101619514923     0.072435073438     1.007825032230
         H           -0.393442276396     1.369174514923    -1.553315926562     1.007825032230

  Basis Set: AUG-CC-PVTZ
    Blend: AUG-CC-PVTZ
  Basis Set: (AUG-CC-PVTZ AUX)
    Blend: AUG-CC-PVTZ-JKFIT
	 Reference Energy          =    -212.7538234335960396 [Eh]
	 Singles Energy            =      -0.0000000000000000 [Eh]
	 Same-Spin Energy          =      -0.2178935942281887 [Eh]
	 Opposite-Spin Energy      =      -0.8153910958309825 [Eh]
	 Correlation Energy        =      -1.0332846900591712 [Eh]
	 Total Energy              =    -213.7871081236552016 [Eh]

	 ================> DF-SCS-MP2 Energies <==================
	-----------------------------------------------------------
	 SCS Same-Spin Scale       =       0.3333333333333333 [-]
	 SCS Opposite-Spin Scale   =       1.2000000000000000 [-]
	 SCS Same-Spin Energy      =      -0.0726311980760629 [Eh]
	 SCS Opposite-Spin Energy  =      -0.9784693149971789 [Eh]
	 SCS Correlation Energy    =      -1.0511005130732418 [Eh]
	 SCS Total Energy          =    -213.8049239466692768 [Eh]
	-----------------------------------------------------------

  Dipole Moment: [D]
     X:     0.0250      Y:     0.0129      Z:    -0.1088     Total:     0.1124

*** Psi4 exiting successfully. Buy a developer a beer!
