                               Psi4 1.4a3.dev225

  ==> Input File <==

--------------------------------------------------------------------------
#psi4
#
memory 32 gb

molecule  {
1 1
  N        0.0000000     0.0000000     0.0000000
  C        1.4895250     0.0926920    -0.1642530
  C       -0.3334060    -0.1729460     1.4536780
  C       -0.5167230    -1.1772360    -0.7754760
  C       -0.6393960     1.2574900    -0.5139490
  H        1.8514760     0.9503420     0.4029520
  H        1.9409440    -0.8253370     0.2122260
  H        1.7177820     0.2178920    -1.2227970
  H       -1.4144571    -0.2562511     1.5662872
  H        0.1362470    -1.0883220     1.8139650
  H        0.0467840     0.6873570     2.0047010
  H       -1.5978840    -1.2330590    -0.6479300
  H       -0.2683930    -1.0393290    -1.8279050
  H       -0.0452370    -2.0825640    -0.3928860
  H       -1.7193290     1.1773100    -0.3890120
  H       -0.2561440     2.1034850     0.0567550
  H       -0.3898460     1.3710400    -1.5689960
units angstrom
no_reorient  #important for SAPT in psi4, default
symmetry c1  #important for SAPT in psi4, default
}

set PROPERTIES_ORIGIN ["COM"]
properties('MP2/aug-cc-pvtz', properties = ['dipole'])
--------------------------------------------------------------------------

    Molecular point group: c1
  Charge       = 1
  Multiplicity = 1
  Basis Set: AUG-CC-PVTZ
    Blend: AUG-CC-PVTZ
  Basis Set: (AUG-CC-PVTZ AUX)
    Blend: AUG-CC-PVTZ-JKFIT

    Orbital Energies [Eh]
    ---------------------

    Doubly Occupied:

       1A    -15.870545     2A    -11.453972     3A    -11.453948
       4A    -11.453870     5A    -11.453814     6A     -1.508364
       7A     -1.172121     8A     -1.172081     9A     -1.171910
      10A     -1.021989    11A     -0.869901    12A     -0.869416
      13A     -0.869089    14A     -0.780816    15A     -0.779856
      16A     -0.731949    17A     -0.731399    18A     -0.730670
      19A     -0.720295    20A     -0.719879    21A     -0.719452

  @DF-RHF Final Energy:  -212.76367861406410

   => Energetics <=

    Nuclear Repulsion Energy =            213.9735344267234609
    One-Electron Energy =                -700.9637470260734062
    Two-Electron Energy =                 274.2265339852858119
    Total Energy =                       -212.7636786140641334
  Basis Set: (AUG-CC-PVTZ AUX)
    Blend: AUG-CC-PVTZ-RI
    Molecular point group: c1

    Geometry (in Angstrom), charge = 1, multiplicity = 1:

       Center              X                  Y                   Z               Mass
    ------------   -----------------  -----------------  -----------------  -----------------
         N           -0.000026426224     0.000237155946    -0.000100109267    14.003074004430
         C            1.489498573776     0.092929155946    -0.164353109267    12.000000000000
         C           -0.333432426224    -0.172708844054     1.453577890733    12.000000000000
         C           -0.516749426224    -1.176998844054    -0.775576109267    12.000000000000
         C           -0.639422426224     1.257727155946    -0.514049109267    12.000000000000
         H            1.851449573776     0.950579155946     0.402851890733     1.007825032230
         H            1.940917573776    -0.825099844054     0.212125890733     1.007825032230
         H            1.717755573776     0.218129155946    -1.222897109267     1.007825032230
         H           -1.414483526224    -0.256013944054     1.566187090733     1.007825032230
         H            0.136220573776    -1.088084844054     1.813864890733     1.007825032230
         H            0.046757573776     0.687594155946     2.004600890733     1.007825032230
         H           -1.597910426224    -1.232821844054    -0.648030109267     1.007825032230
         H           -0.268419426224    -1.039091844054    -1.828005109267     1.007825032230
         H           -0.045263426224    -2.082326844054    -0.392986109267     1.007825032230
         H           -1.719355426224     1.177547155946    -0.389112109267     1.007825032230
         H           -0.256170426224     2.103722155946     0.056654890733     1.007825032230
         H           -0.389872426224     1.371277155946    -1.569096109267     1.007825032230

  Basis Set: AUG-CC-PVTZ
    Blend: AUG-CC-PVTZ
  Basis Set: (AUG-CC-PVTZ AUX)
    Blend: AUG-CC-PVTZ-JKFIT
	 Reference Energy          =    -212.7636786140641050 [Eh]
	 Singles Energy            =      -0.0000000000000000 [Eh]
	 Same-Spin Energy          =      -0.2168412311085631 [Eh]
	 Opposite-Spin Energy      =      -0.8147920817769659 [Eh]
	 Correlation Energy        =      -1.0316333128855291 [Eh]
	 Total Energy              =    -213.7953119269496369 [Eh]

	 ================> DF-SCS-MP2 Energies <==================
	-----------------------------------------------------------
	 SCS Same-Spin Scale       =       0.3333333333333333 [-]
	 SCS Opposite-Spin Scale   =       1.2000000000000000 [-]
	 SCS Same-Spin Energy      =      -0.0722804103695210 [Eh]
	 SCS Opposite-Spin Energy  =      -0.9777504981323590 [Eh]
	 SCS Correlation Energy    =      -1.0500309085018800 [Eh]
	 SCS Total Energy          =    -213.8137095225659721 [Eh]
	-----------------------------------------------------------

  Dipole Moment: [D]
     X:    -0.0014      Y:    -0.0072      Z:     0.0008     Total:     0.0074

*** Psi4 exiting successfully. Buy a developer a beer!
