                               Psi4 1.4a3.dev225

  ==> Input File <==

--------------------------------------------------------------------------
#psi4
#
memory 32 gb

molecule  {
1 1
  N        0.0000000     0.0000000     0.0000000
  C        1.4895250     0.0926920    -0.1642530
  C       -0.3334060    -0.1729460     1.4536780
  C       -0.5167230    -1.1772360    -0.7754760
  C       -0.6393960     1.2574900    -0.5139490
  H        1.8514760     0.9503420     0.4029520
  H        1.9337309    -0.8216290     0.2294361
  H        1.7177820     0.2178920    -1.2227970
  H       -1.4164000    -0.2388150     1.5589270
  H        0.1362470    -1.0883220     1.8139650
  H        0.0467840     0.6873570     2.0047010
  H       -1.5978840    -1.2330590    -0.6479300
  H       -0.2683930    -1.0393290    -1.8279050
  H       -0.0452370    -2.0825640    -0.3928860
  H       -1.7193290     1.1773100    -0.3890120
  H       -0.2561440     2.1034850     0.0567550
  H       -0.3898460     1.3710400    -1.5689960
units angstrom
no_reorient  #important for SAPT in psi4, default
symmetry c1  #important for SAPT in psi4, default
}

set PROPERTIES_ORIGIN ["COM"]
properties('MP2/aug-cc-pvtz', properties = ['dipole'])
--------------------------------------------------------------------------

    Molecular point group: c1
  Charge       = 1
  Multiplicity = 1
  Basis Set: AUG-CC-PVTZ
    Blend: AUG-CC-PVTZ
  Basis Set: (AUG-CC-PVTZ AUX)
    Blend: AUG-CC-PVTZ-JKFIT

    Orbital Energies [Eh]
    ---------------------

    Doubly Occupied:

       1A    -15.870275     2A    -11.454018     3A    -11.453964
       4A    -11.453885     5A    -11.453858     6A     -1.508376
       7A     -1.172218     8A     -1.172040     9A     -1.172001
      10A     -1.021766    11A     -0.869804    12A     -0.869470
      13A     -0.868991    14A     -0.781004    15A     -0.780032
      16A     -0.732157    17A     -0.731412    18A     -0.730885
      19A     -0.720231    20A     -0.719871    21A     -0.719405

  @DF-RHF Final Energy:  -212.76365748726946

   => Energetics <=

    Nuclear Repulsion Energy =            214.0032624665080050
    One-Electron Energy =                -701.0225091145666738
    Two-Electron Energy =                 274.2555891607892136
    Total Energy =                       -212.7636574872694837
  Basis Set: (AUG-CC-PVTZ AUX)
    Blend: AUG-CC-PVTZ-RI
    Molecular point group: c1

    Geometry (in Angstrom), charge = 1, multiplicity = 1:

       Center              X                  Y                   Z               Mass
    ------------   -----------------  -----------------  -----------------  -----------------
         N            0.000098108496    -0.000050434114    -0.000234082022    14.003074004430
         C            1.489623108496     0.092641565886    -0.164487082022    12.000000000000
         C           -0.333307891504    -0.172996434114     1.453443917978    12.000000000000
         C           -0.516624891504    -1.177286434114    -0.775710082022    12.000000000000
         C           -0.639297891504     1.257439565886    -0.514183082022    12.000000000000
         H            1.851574108496     0.950291565886     0.402717917978     1.007825032230
         H            1.933829008496    -0.821679434114     0.229202017978     1.007825032230
         H            1.717880108496     0.217841565886    -1.223031082022     1.007825032230
         H           -1.416301891504    -0.238865434114     1.558692917978     1.007825032230
         H            0.136345108496    -1.088372434114     1.813730917978     1.007825032230
         H            0.046882108496     0.687306565886     2.004466917978     1.007825032230
         H           -1.597785891504    -1.233109434114    -0.648164082022     1.007825032230
         H           -0.268294891504    -1.039379434114    -1.828139082022     1.007825032230
         H           -0.045138891504    -2.082614434114    -0.393120082022     1.007825032230
         H           -1.719230891504     1.177259565886    -0.389246082022     1.007825032230
         H           -0.256045891504     2.103434565886     0.056520917978     1.007825032230
         H           -0.389747891504     1.370989565886    -1.569230082022     1.007825032230

  Basis Set: AUG-CC-PVTZ
    Blend: AUG-CC-PVTZ
  Basis Set: (AUG-CC-PVTZ AUX)
    Blend: AUG-CC-PVTZ-JKFIT
	 Reference Energy          =    -212.7636574872694553 [Eh]
	 Singles Energy            =      -0.0000000000000000 [Eh]
	 Same-Spin Energy          =      -0.2168586538640769 [Eh]
	 Opposite-Spin Energy      =      -0.8148279670078895 [Eh]
	 Correlation Energy        =      -1.0316866208719664 [Eh]
	 Total Energy              =    -213.7953441081414212 [Eh]

	 ================> DF-SCS-MP2 Energies <==================
	-----------------------------------------------------------
	 SCS Same-Spin Scale       =       0.3333333333333333 [-]
	 SCS Opposite-Spin Scale   =       1.2000000000000000 [-]
	 SCS Same-Spin Energy      =      -0.0722862179546923 [Eh]
	 SCS Opposite-Spin Energy  =      -0.9777935604094674 [Eh]
	 SCS Correlation Energy    =      -1.0500797783641598 [Eh]
	 SCS Total Energy          =    -213.8137372656336197 [Eh]
	-----------------------------------------------------------

  Dipole Moment: [D]
     X:    -0.0016      Y:     0.0041      Z:     0.0058     Total:     0.0073

*** Psi4 exiting successfully. Buy a developer a beer!
