                               Psi4 1.4a3.dev225

  ==> Input File <==

--------------------------------------------------------------------------
#psi4
#
memory 32 gb

molecule  {
1 1
  N        0.0000000     0.0000000     0.0000000
  C        1.4895250     0.0926920    -0.1642530
  C       -0.3289648    -0.1706422     1.4343139
  C       -0.5167230    -1.1772360    -0.7754760
  C       -0.6393960     1.2574900    -0.5139490
  H        1.8514760     0.9503420     0.4029520
  H        1.9409440    -0.8253370     0.2122260
  H        1.7177820     0.2178920    -1.2227970
  H       -1.4164000    -0.2388150     1.5589270
  H        0.1362470    -1.0883220     1.8139650
  H        0.0467840     0.6873570     2.0047010
  H       -1.5978840    -1.2330590    -0.6479300
  H       -0.2683930    -1.0393290    -1.8279050
  H       -0.0452370    -2.0825640    -0.3928860
  H       -1.7193290     1.1773100    -0.3890120
  H       -0.2561440     2.1034850     0.0567550
  H       -0.3898460     1.3710400    -1.5689960
units angstrom
no_reorient  #important for SAPT in psi4, default
symmetry c1  #important for SAPT in psi4, default
}

set PROPERTIES_ORIGIN ["COM"]
properties('MP2/aug-cc-pvtz', properties = ['dipole'])
--------------------------------------------------------------------------

    Molecular point group: c1
  Charge       = 1
  Multiplicity = 1
  Basis Set: AUG-CC-PVTZ
    Blend: AUG-CC-PVTZ
  Basis Set: (AUG-CC-PVTZ AUX)
    Blend: AUG-CC-PVTZ-JKFIT

    Orbital Energies [Eh]
    ---------------------

    Doubly Occupied:

       1A    -15.871320     2A    -11.454470     3A    -11.454470
       4A    -11.454451     5A    -11.453326     6A     -1.512577
       7A     -1.173073     8A     -1.173073     9A     -1.172721
      10A     -1.022027    11A     -0.871392    12A     -0.870642
      13A     -0.870641    14A     -0.779951    15A     -0.779951
      16A     -0.731909    17A     -0.729700    18A     -0.729700
      19A     -0.724289    20A     -0.718350    21A     -0.718349

  @DF-RHF Final Energy:  -212.76333154638144

   => Energetics <=

    Nuclear Repulsion Energy =            214.3393592962701746
    One-Electron Energy =                -701.6726183088774178
    Two-Electron Energy =                 274.5699274662258063
    Total Energy =                       -212.7633315463814370
  Basis Set: (AUG-CC-PVTZ AUX)
    Blend: AUG-CC-PVTZ-RI
    Molecular point group: c1

    Geometry (in Angstrom), charge = 1, multiplicity = 1:

       Center              X                  Y                   Z               Mass
    ------------   -----------------  -----------------  -----------------  -----------------
         N           -0.000719252040    -0.000373100254     0.003136014688    14.003074004430
         C            1.488805747960     0.092318899746    -0.161116985312    12.000000000000
         C           -0.329684052040    -0.171015300254     1.437449914688    12.000000000000
         C           -0.517442252040    -1.177609100254    -0.772339985312    12.000000000000
         C           -0.640115252040     1.257116899746    -0.510812985312    12.000000000000
         H            1.850756747960     0.949968899746     0.406088014688     1.007825032230
         H            1.940224747960    -0.825710100254     0.215362014688     1.007825032230
         H            1.717062747960     0.217518899746    -1.219660985312     1.007825032230
         H           -1.417119252040    -0.239188100254     1.562063014688     1.007825032230
         H            0.135527747960    -1.088695100254     1.817101014688     1.007825032230
         H            0.046064747960     0.686983899746     2.007837014688     1.007825032230
         H           -1.598603252040    -1.233432100254    -0.644793985312     1.007825032230
         H           -0.269112252040    -1.039702100254    -1.824768985312     1.007825032230
         H           -0.045956252040    -2.082937100254    -0.389749985312     1.007825032230
         H           -1.720048252040     1.176936899746    -0.385875985312     1.007825032230
         H           -0.256863252040     2.103111899746     0.059891014688     1.007825032230
         H           -0.390565252040     1.370666899746    -1.565859985312     1.007825032230

  Basis Set: AUG-CC-PVTZ
    Blend: AUG-CC-PVTZ
  Basis Set: (AUG-CC-PVTZ AUX)
    Blend: AUG-CC-PVTZ-JKFIT
	 Reference Energy          =    -212.7633315463814370 [Eh]
	 Singles Energy            =      -0.0000000000000000 [Eh]
	 Same-Spin Energy          =      -0.2170023512753625 [Eh]
	 Opposite-Spin Energy      =      -0.8148277772964134 [Eh]
	 Correlation Energy        =      -1.0318301285717759 [Eh]
	 Total Energy              =    -213.7951616749532207 [Eh]

	 ================> DF-SCS-MP2 Energies <==================
	-----------------------------------------------------------
	 SCS Same-Spin Scale       =       0.3333333333333333 [-]
	 SCS Opposite-Spin Scale   =       1.2000000000000000 [-]
	 SCS Same-Spin Energy      =      -0.0723341170917875 [Eh]
	 SCS Opposite-Spin Energy  =      -0.9777933327556960 [Eh]
	 SCS Correlation Energy    =      -1.0501274498474835 [Eh]
	 SCS Total Energy          =    -213.8134589962289169 [Eh]
	-----------------------------------------------------------

  Dipole Moment: [D]
     X:     0.0055      Y:     0.0028      Z:    -0.0239     Total:     0.0247

*** Psi4 exiting successfully. Buy a developer a beer!
