                               Psi4 1.4a3.dev225

  ==> Input File <==

--------------------------------------------------------------------------
#psi4
#
memory 32 gb

molecule  {
1 1
  N        0.0000000     0.0000000     0.0000000
  C        1.4895250     0.0926920    -0.1642530
  C       -0.3334060    -0.1729460     1.4536780
  C       -0.5167230    -1.1772360    -0.7754760
  C       -0.6393960     1.2574900    -0.5139490
  H        1.8514760     0.9503420     0.4029520
  H        1.9409440    -0.8253370     0.2122260
  H        1.7177820     0.2178920    -1.2227970
  H       -1.4164000    -0.2388150     1.5589270
  H        0.1577890    -1.1303083     1.8304906
  H        0.0467840     0.6873570     2.0047010
  H       -1.5978840    -1.2330590    -0.6479300
  H       -0.2683930    -1.0393290    -1.8279050
  H       -0.0452370    -2.0825640    -0.3928860
  H       -1.7193290     1.1773100    -0.3890120
  H       -0.2561440     2.1034850     0.0567550
  H       -0.3898460     1.3710400    -1.5689960
units angstrom
no_reorient  #important for SAPT in psi4, default
symmetry c1  #important for SAPT in psi4, default
}

set PROPERTIES_ORIGIN ["COM"]
properties('MP2/aug-cc-pvtz', properties = ['dipole'])
--------------------------------------------------------------------------

    Molecular point group: c1
  Charge       = 1
  Multiplicity = 1
  Basis Set: AUG-CC-PVTZ
    Blend: AUG-CC-PVTZ
  Basis Set: (AUG-CC-PVTZ AUX)
    Blend: AUG-CC-PVTZ-JKFIT

    Orbital Energies [Eh]
    ---------------------

    Doubly Occupied:

       1A    -15.870702     2A    -11.459075     3A    -11.454165
       4A    -11.453826     5A    -11.453813     6A     -1.508315
       7A     -1.172168     8A     -1.171990     9A     -1.168402
      10A     -1.020434    11A     -0.869557    12A     -0.869508
      13A     -0.866435    14A     -0.780460    15A     -0.777797
      16A     -0.731507    17A     -0.731386    18A     -0.727491
      19A     -0.720047    20A     -0.719977    21A     -0.716420

  @DF-RHF Final Energy:  -212.76144741349339

   => Energetics <=

    Nuclear Repulsion Energy =            213.7774811219076412
    One-Electron Energy =                -700.5909052641100061
    Two-Electron Energy =                 274.0519767287090076
    Total Energy =                       -212.7614474134933857
  Basis Set: (AUG-CC-PVTZ AUX)
    Blend: AUG-CC-PVTZ-RI
    Molecular point group: c1

    Geometry (in Angstrom), charge = 1, multiplicity = 1:

       Center              X                  Y                   Z               Mass
    ------------   -----------------  -----------------  -----------------  -----------------
         N           -0.000293002070     0.000571073846    -0.000224771841    14.003074004430
         C            1.489231997930     0.093263073846    -0.164477771841    12.000000000000
         C           -0.333699002070    -0.172374926154     1.453453228159    12.000000000000
         C           -0.517016002070    -1.176664926154    -0.775700771841    12.000000000000
         C           -0.639689002070     1.258061073846    -0.514173771841    12.000000000000
         H            1.851182997930     0.950913073846     0.402727228159     1.007825032230
         H            1.940650997930    -0.824765926154     0.212001228159     1.007825032230
         H            1.717488997930     0.218463073846    -1.223021771841     1.007825032230
         H           -1.416693002070    -0.238243926154     1.558702228159     1.007825032230
         H            0.157495997930    -1.129737226154     1.830265828159     1.007825032230
         H            0.046490997930     0.687928073846     2.004476228159     1.007825032230
         H           -1.598177002070    -1.232487926154    -0.648154771841     1.007825032230
         H           -0.268686002070    -1.038757926154    -1.828129771841     1.007825032230
         H           -0.045530002070    -2.081992926154    -0.393110771841     1.007825032230
         H           -1.719622002070     1.177881073846    -0.389236771841     1.007825032230
         H           -0.256437002070     2.104056073846     0.056530228159     1.007825032230
         H           -0.390139002070     1.371611073846    -1.569220771841     1.007825032230

  Basis Set: AUG-CC-PVTZ
    Blend: AUG-CC-PVTZ
  Basis Set: (AUG-CC-PVTZ AUX)
    Blend: AUG-CC-PVTZ-JKFIT
	 Reference Energy          =    -212.7614474134933857 [Eh]
	 Singles Energy            =      -0.0000000000000000 [Eh]
	 Same-Spin Energy          =      -0.2169263203568836 [Eh]
	 Opposite-Spin Energy      =      -0.8152207662719615 [Eh]
	 Correlation Energy        =      -1.0321470866288451 [Eh]
	 Total Energy              =    -213.7935945001222251 [Eh]

	 ================> DF-SCS-MP2 Energies <==================
	-----------------------------------------------------------
	 SCS Same-Spin Scale       =       0.3333333333333333 [-]
	 SCS Opposite-Spin Scale   =       1.2000000000000000 [-]
	 SCS Same-Spin Energy      =      -0.0723087734522945 [Eh]
	 SCS Opposite-Spin Energy  =      -0.9782649195263537 [Eh]
	 SCS Correlation Energy    =      -1.0505736929786482 [Eh]
	 SCS Total Energy          =    -213.8120211064720309 [Eh]
	-----------------------------------------------------------

  Dipole Moment: [D]
     X:    -0.0013      Y:     0.0018      Z:     0.0007     Total:     0.0023

*** Psi4 exiting successfully. Buy a developer a beer!
