                               Psi4 1.4a3.dev225

  ==> Input File <==

--------------------------------------------------------------------------
#psi4
#
memory 32 gb

molecule  {
1 1
  N        0.0000000     0.0000000     0.0000000
  C        1.4895250     0.0926920    -0.1642530
  C       -0.3334060    -0.1729460     1.4536780
  C       -0.5167230    -1.1772360    -0.7754760
  C       -0.6393960     1.2574900    -0.5139490
  H        1.8514760     0.9503420     0.4029520
  H        1.9409440    -0.8253370     0.2122260
  H        1.7177820     0.2178920    -1.2227970
  H       -1.4164000    -0.2388150     1.5589270
  H        0.1362470    -1.0883220     1.8139650
  H        0.0467840     0.6873570     2.0047010
  H       -1.5978840    -1.2330590    -0.6479300
  H       -0.2683930    -1.0393290    -1.8279050
  H       -0.0452370    -2.0825640    -0.3928860
  H       -1.7193290     1.1773100    -0.3890120
  H       -0.2561440     2.1034850     0.0567550
  H       -0.3898460     1.3710400    -1.5689960
units angstrom
no_reorient  #important for SAPT in psi4, default
symmetry c1  #important for SAPT in psi4, default
}

set PROPERTIES_ORIGIN ["COM"]
properties('MP2/aug-cc-pvtz', properties = ['dipole'])
--------------------------------------------------------------------------

    Molecular point group: c1
  Charge       = 1
  Multiplicity = 1
  Basis Set: AUG-CC-PVTZ
    Blend: AUG-CC-PVTZ
  Basis Set: (AUG-CC-PVTZ AUX)
    Blend: AUG-CC-PVTZ-JKFIT

    Orbital Energies [Eh]
    ---------------------

    Doubly Occupied:

       1A    -15.870410     2A    -11.453923     3A    -11.453923
       4A    -11.453923     5A    -11.453896     6A     -1.508369
       7A     -1.172060     8A     -1.172060     9A     -1.172060
      10A     -1.021876    11A     -0.869443    12A     -0.869442
      13A     -0.869442    14A     -0.780420    15A     -0.780420
      16A     -0.731406    17A     -0.731405    18A     -0.731405
      19A     -0.719875    20A     -0.719875    21A     -0.719874

  @DF-RHF Final Energy:  -212.76370458252111

   => Energetics <=

    Nuclear Repulsion Energy =            213.9882004052603577
    One-Electron Energy =                -700.9927937760033956
    Two-Electron Energy =                 274.2408887882219233
    Total Energy =                       -212.7637045825210862
  Basis Set: (AUG-CC-PVTZ AUX)
    Blend: AUG-CC-PVTZ-RI
    Molecular point group: c1

    Geometry (in Angstrom), charge = 1, multiplicity = 1:

       Center              X                  Y                   Z               Mass
    ------------   -----------------  -----------------  -----------------  -----------------
         N            0.000000000000    -0.000000000000    -0.000000000000    14.003074004430
         C            1.489525000000     0.092692000000    -0.164253000000    12.000000000000
         C           -0.333406000000    -0.172946000000     1.453678000000    12.000000000000
         C           -0.516723000000    -1.177236000000    -0.775476000000    12.000000000000
         C           -0.639396000000     1.257490000000    -0.513949000000    12.000000000000
         H            1.851476000000     0.950342000000     0.402952000000     1.007825032230
         H            1.940944000000    -0.825337000000     0.212226000000     1.007825032230
         H            1.717782000000     0.217892000000    -1.222797000000     1.007825032230
         H           -1.416400000000    -0.238815000000     1.558927000000     1.007825032230
         H            0.136247000000    -1.088322000000     1.813965000000     1.007825032230
         H            0.046784000000     0.687357000000     2.004701000000     1.007825032230
         H           -1.597884000000    -1.233059000000    -0.647930000000     1.007825032230
         H           -0.268393000000    -1.039329000000    -1.827905000000     1.007825032230
         H           -0.045237000000    -2.082564000000    -0.392886000000     1.007825032230
         H           -1.719329000000     1.177310000000    -0.389012000000     1.007825032230
         H           -0.256144000000     2.103485000000     0.056755000000     1.007825032230
         H           -0.389846000000     1.371040000000    -1.568996000000     1.007825032230

  Basis Set: AUG-CC-PVTZ
    Blend: AUG-CC-PVTZ
  Basis Set: (AUG-CC-PVTZ AUX)
    Blend: AUG-CC-PVTZ-JKFIT
	 Reference Energy          =    -212.7637045825211146 [Eh]
	 Singles Energy            =      -0.0000000000000000 [Eh]
	 Same-Spin Energy          =      -0.2168481901144159 [Eh]
	 Opposite-Spin Energy      =      -0.8148072740375709 [Eh]
	 Correlation Energy        =      -1.0316554641519868 [Eh]
	 Total Energy              =    -213.7953600466730961 [Eh]

	 ================> DF-SCS-MP2 Energies <==================
	-----------------------------------------------------------
	 SCS Same-Spin Scale       =       0.3333333333333333 [-]
	 SCS Opposite-Spin Scale   =       1.2000000000000000 [-]
	 SCS Same-Spin Energy      =      -0.0722827300381386 [Eh]
	 SCS Opposite-Spin Energy  =      -0.9777687288450850 [Eh]
	 SCS Correlation Energy    =      -1.0500514588832237 [Eh]
	 SCS Total Energy          =    -213.8137560414043321 [Eh]
	-----------------------------------------------------------

  Dipole Moment: [D]
     X:     0.0000      Y:     0.0000      Z:    -0.0000     Total:     0.0000

*** Psi4 exiting successfully. Buy a developer a beer!
