                               Psi4 1.4a3.dev225

  ==> Input File <==

--------------------------------------------------------------------------
#psi4
#
memory 32 gb

molecule  {
1 1
  N        0.0000000     0.0000000     0.0000000
  C        1.4895250     0.0926920    -0.1642530
  C       -0.4147903    -0.0389732     1.4424561
  C       -0.5167230    -1.1772360    -0.7754760
  C       -0.6393960     1.2574900    -0.5139490
  H        1.8514760     0.9503420     0.4029520
  H        1.9409440    -0.8253370     0.2122260
  H        1.7177820     0.2178920    -1.2227970
  H       -1.4164000    -0.2388150     1.5589270
  H        0.1362470    -1.0883220     1.8139650
  H        0.0467840     0.6873570     2.0047010
  H       -1.5978840    -1.2330590    -0.6479300
  H       -0.2683930    -1.0393290    -1.8279050
  H       -0.0452370    -2.0825640    -0.3928860
  H       -1.7193290     1.1773100    -0.3890120
  H       -0.2561440     2.1034850     0.0567550
  H       -0.3898460     1.3710400    -1.5689960
units angstrom
no_reorient  #important for SAPT in psi4, default
symmetry c1  #important for SAPT in psi4, default
}

set PROPERTIES_ORIGIN ["COM"]
properties('MP2/aug-cc-pvtz', properties = ['dipole'])
--------------------------------------------------------------------------

    Molecular point group: c1
  Charge       = 1
  Multiplicity = 1
  Basis Set: AUG-CC-PVTZ
    Blend: AUG-CC-PVTZ
  Basis Set: (AUG-CC-PVTZ AUX)
    Blend: AUG-CC-PVTZ-JKFIT

    Orbital Energies [Eh]
    ---------------------

    Doubly Occupied:

       1A    -15.871768     2A    -11.457577     3A    -11.455487
       4A    -11.455474     5A    -11.452719     6A     -1.509578
       7A     -1.180722     8A     -1.172817     9A     -1.165839
      10A     -1.024340    11A     -0.880280    12A     -0.873693
      13A     -0.863078    14A     -0.794119    15A     -0.775220
      16A     -0.751086    17A     -0.731983    18A     -0.728241
      19A     -0.724445    20A     -0.723766    21A     -0.675600

  @DF-RHF Final Energy:  -212.73832258849311

   => Energetics <=

    Nuclear Repulsion Energy =            214.0413091969425636
    One-Electron Energy =                -701.0236017656395688
    Two-Electron Energy =                 274.2439699802038717
    Total Energy =                       -212.7383225884931335
  Basis Set: (AUG-CC-PVTZ AUX)
    Blend: AUG-CC-PVTZ-RI
    Molecular point group: c1

    Geometry (in Angstrom), charge = 1, multiplicity = 1:

       Center              X                  Y                   Z               Mass
    ------------   -----------------  -----------------  -----------------  -----------------
         N            0.013180181890    -0.021696885915     0.001817385947    14.003074004430
         C            1.502705181890     0.070995114085    -0.162435614053    12.000000000000
         C           -0.401610118110    -0.060670085915     1.444273485947    12.000000000000
         C           -0.503542818110    -1.198932885915    -0.773658614053    12.000000000000
         C           -0.626215818110     1.235793114085    -0.512131614053    12.000000000000
         H            1.864656181890     0.928645114085     0.404769385947     1.007825032230
         H            1.954124181890    -0.847033885915     0.214043385947     1.007825032230
         H            1.730962181890     0.196195114085    -1.220979614053     1.007825032230
         H           -1.403219818110    -0.260511885915     1.560744385947     1.007825032230
         H            0.149427181890    -1.110018885915     1.815782385947     1.007825032230
         H            0.059964181890     0.665660114085     2.006518385947     1.007825032230
         H           -1.584703818110    -1.254755885915    -0.646112614053     1.007825032230
         H           -0.255212818110    -1.061025885915    -1.826087614053     1.007825032230
         H           -0.032056818110    -2.104260885915    -0.391068614053     1.007825032230
         H           -1.706148818110     1.155613114085    -0.387194614053     1.007825032230
         H           -0.242963818110     2.081788114085     0.058572385947     1.007825032230
         H           -0.376665818110     1.349343114085    -1.567178614053     1.007825032230

  Basis Set: AUG-CC-PVTZ
    Blend: AUG-CC-PVTZ
  Basis Set: (AUG-CC-PVTZ AUX)
    Blend: AUG-CC-PVTZ-JKFIT
	 Reference Energy          =    -212.7383225884931051 [Eh]
	 Singles Energy            =      -0.0000000000000000 [Eh]
	 Same-Spin Energy          =      -0.2174164001719284 [Eh]
	 Opposite-Spin Energy      =      -0.8163340397135250 [Eh]
	 Correlation Energy        =      -1.0337504398854533 [Eh]
	 Total Energy              =    -213.7720730283785713 [Eh]

	 ================> DF-SCS-MP2 Energies <==================
	-----------------------------------------------------------
	 SCS Same-Spin Scale       =       0.3333333333333333 [-]
	 SCS Opposite-Spin Scale   =       1.2000000000000000 [-]
	 SCS Same-Spin Energy      =      -0.0724721333906428 [Eh]
	 SCS Opposite-Spin Energy  =      -0.9796008476562300 [Eh]
	 SCS Correlation Energy    =      -1.0520729810468727 [Eh]
	 SCS Total Energy          =    -213.7903955695399816 [Eh]
	-----------------------------------------------------------

  Dipole Moment: [D]
     X:     0.0357      Y:    -0.0394      Z:    -0.0354     Total:     0.0639

*** Psi4 exiting successfully. Buy a developer a beer!
