                               Psi4 1.4a3.dev225

  ==> Input File <==

--------------------------------------------------------------------------
#psi4
#
memory 32 gb

molecule  {
1 1
  N        0.0000000     0.0000000     0.0000000
  C        1.4895250     0.0926920    -0.1642530
  C       -0.3334060    -0.1729460     1.4536780
  C       -0.5016200    -1.1930702    -0.7610592
  C       -0.6393960     1.2574900    -0.5139490
  H        1.8514760     0.9503420     0.4029520
  H        1.9409440    -0.8253370     0.2122260
  H        1.7177820     0.2178920    -1.2227970
  H       -1.4164000    -0.2388150     1.5589270
  H        0.1362470    -1.0883220     1.8139650
  H        0.0467840     0.6873570     2.0047010
  H       -1.5978840    -1.2330590    -0.6479300
  H       -0.2683930    -1.0393290    -1.8279050
  H       -0.0452370    -2.0825640    -0.3928860
  H       -1.7193290     1.1773100    -0.3890120
  H       -0.2561440     2.1034850     0.0567550
  H       -0.3898460     1.3710400    -1.5689960
units angstrom
no_reorient  #important for SAPT in psi4, default
symmetry c1  #important for SAPT in psi4, default
}

set PROPERTIES_ORIGIN ["COM"]
properties('MP2/aug-cc-pvtz', properties = ['dipole'])
--------------------------------------------------------------------------

    Molecular point group: c1
  Charge       = 1
  Multiplicity = 1
  Basis Set: AUG-CC-PVTZ
    Blend: AUG-CC-PVTZ
  Basis Set: (AUG-CC-PVTZ AUX)
    Blend: AUG-CC-PVTZ-JKFIT

    Orbital Energies [Eh]
    ---------------------

    Doubly Occupied:

       1A    -15.870451     2A    -11.454331     3A    -11.454014
       4A    -11.453744     5A    -11.453730     6A     -1.508403
       7A     -1.173436     8A     -1.172044     9A     -1.170809
      10A     -1.021978    11A     -0.871516    12A     -0.868899
      13A     -0.868211    14A     -0.781968    15A     -0.779104
      16A     -0.735609    17A     -0.731425    18A     -0.728309
      19A     -0.722360    20A     -0.718249    21A     -0.717300

  @DF-RHF Final Energy:  -212.76285244663012

   => Energetics <=

    Nuclear Repulsion Energy =            213.9901155016407301
    One-Electron Energy =                -700.9941500693615808
    Two-Electron Energy =                 274.2411821210907306
    Total Energy =                       -212.7628524466301201
  Basis Set: (AUG-CC-PVTZ AUX)
    Blend: AUG-CC-PVTZ-RI
    Molecular point group: c1

    Geometry (in Angstrom), charge = 1, multiplicity = 1:

       Center              X                  Y                   Z               Mass
    ------------   -----------------  -----------------  -----------------  -----------------
         N           -0.002445929830     0.002564347621    -0.002334799787    14.003074004430
         C            1.487079070170     0.095256347621    -0.166587799787    12.000000000000
         C           -0.335851929830    -0.170381652379     1.451343200213    12.000000000000
         C           -0.504065929830    -1.190505852379    -0.763393999787    12.000000000000
         C           -0.641841929830     1.260054347621    -0.516283799787    12.000000000000
         H            1.849030070170     0.952906347621     0.400617200213     1.007825032230
         H            1.938498070170    -0.822772652379     0.209891200213     1.007825032230
         H            1.715336070170     0.220456347621    -1.225131799787     1.007825032230
         H           -1.418845929830    -0.236250652379     1.556592200213     1.007825032230
         H            0.133801070170    -1.085757652379     1.811630200213     1.007825032230
         H            0.044338070170     0.689921347621     2.002366200213     1.007825032230
         H           -1.600329929830    -1.230494652379    -0.650264799787     1.007825032230
         H           -0.270838929830    -1.036764652379    -1.830239799787     1.007825032230
         H           -0.047682929830    -2.079999652379    -0.395220799787     1.007825032230
         H           -1.721774929830     1.179874347621    -0.391346799787     1.007825032230
         H           -0.258589929830     2.106049347621     0.054420200213     1.007825032230
         H           -0.392291929830     1.373604347621    -1.571330799787     1.007825032230

  Basis Set: AUG-CC-PVTZ
    Blend: AUG-CC-PVTZ
  Basis Set: (AUG-CC-PVTZ AUX)
    Blend: AUG-CC-PVTZ-JKFIT
	 Reference Energy          =    -212.7628524466301201 [Eh]
	 Singles Energy            =      -0.0000000000000000 [Eh]
	 Same-Spin Energy          =      -0.2168643910059633 [Eh]
	 Opposite-Spin Energy      =      -0.8148523036226238 [Eh]
	 Correlation Energy        =      -1.0317166946285872 [Eh]
	 Total Energy              =    -213.7945691412587053 [Eh]

	 ================> DF-SCS-MP2 Energies <==================
	-----------------------------------------------------------
	 SCS Same-Spin Scale       =       0.3333333333333333 [-]
	 SCS Opposite-Spin Scale   =       1.2000000000000000 [-]
	 SCS Same-Spin Energy      =      -0.0722881303353211 [Eh]
	 SCS Opposite-Spin Energy  =      -0.9778227643471485 [Eh]
	 SCS Correlation Energy    =      -1.0501108946824695 [Eh]
	 SCS Total Energy          =    -213.8129633413125816 [Eh]
	-----------------------------------------------------------

  Dipole Moment: [D]
     X:    -0.0071      Y:     0.0090      Z:    -0.0066     Total:     0.0132

*** Psi4 exiting successfully. Buy a developer a beer!
