                               Psi4 1.4a3.dev225

  ==> Input File <==

--------------------------------------------------------------------------
#psi4
#
memory 32 gb

molecule  {
1 1
  N       -0.0069436     0.0955507    -0.0424777
  C        1.4895250     0.0926920    -0.1642530
  C       -0.3334060    -0.1729460     1.4536780
  C       -0.5167230    -1.1772360    -0.7754760
  C       -0.6393960     1.2574900    -0.5139490
  H        1.8514760     0.9503420     0.4029520
  H        1.9409440    -0.8253370     0.2122260
  H        1.7177820     0.2178920    -1.2227970
  H       -1.4164000    -0.2388150     1.5589270
  H        0.1362470    -1.0883220     1.8139650
  H        0.0467840     0.6873570     2.0047010
  H       -1.5978840    -1.2330590    -0.6479300
  H       -0.2683930    -1.0393290    -1.8279050
  H       -0.0452370    -2.0825640    -0.3928860
  H       -1.7193290     1.1773100    -0.3890120
  H       -0.2561440     2.1034850     0.0567550
  H       -0.3898460     1.3710400    -1.5689960
units angstrom
no_reorient  #important for SAPT in psi4, default
symmetry c1  #important for SAPT in psi4, default
}

set PROPERTIES_ORIGIN ["COM"]
properties('MP2/aug-cc-pvtz', properties = ['dipole'])
--------------------------------------------------------------------------

    Molecular point group: c1
  Charge       = 1
  Multiplicity = 1
  Basis Set: AUG-CC-PVTZ
    Blend: AUG-CC-PVTZ
  Basis Set: (AUG-CC-PVTZ AUX)
    Blend: AUG-CC-PVTZ-JKFIT

    Orbital Energies [Eh]
    ---------------------

    Doubly Occupied:

       1A    -15.869215     2A    -11.458581     3A    -11.458570
       4A    -11.454275     5A    -11.445292     6A     -1.510994
       7A     -1.187398     8A     -1.168152     9A     -1.162189
      10A     -1.020516    11A     -0.874005    12A     -0.871848
      13A     -0.865158    14A     -0.781734    15A     -0.780872
      16A     -0.751233    17A     -0.731880    18A     -0.731751
      19A     -0.731561    20A     -0.707180    21A     -0.692706

  @DF-RHF Final Energy:  -212.75117571310898

   => Energetics <=

    Nuclear Repulsion Energy =            213.9958557349274031
    One-Electron Energy =                -700.9838388160015938
    Two-Electron Energy =                 274.2368073679651843
    Total Energy =                       -212.7511757131089780
  Basis Set: (AUG-CC-PVTZ AUX)
    Blend: AUG-CC-PVTZ-RI
    Molecular point group: c1

    Geometry (in Angstrom), charge = 1, multiplicity = 1:

       Center              X                  Y                   Z               Mass
    ------------   -----------------  -----------------  -----------------  -----------------
         N           -0.005631377126     0.077493234978    -0.034450133672    14.003074004430
         C            1.490837222874     0.074634534978    -0.156225433672    12.000000000000
         C           -0.332093777126    -0.191003465022     1.461705566328    12.000000000000
         C           -0.515410777126    -1.195293465022    -0.767448433672    12.000000000000
         C           -0.638083777126     1.239432534978    -0.505921433672    12.000000000000
         H            1.852788222874     0.932284534978     0.410979566328     1.007825032230
         H            1.942256222874    -0.843394465022     0.220253566328     1.007825032230
         H            1.719094222874     0.199834534978    -1.214769433672     1.007825032230
         H           -1.415087777126    -0.256872465022     1.566954566328     1.007825032230
         H            0.137559222874    -1.106379465022     1.821992566328     1.007825032230
         H            0.048096222874     0.669299534978     2.012728566328     1.007825032230
         H           -1.596571777126    -1.251116465022    -0.639902433672     1.007825032230
         H           -0.267080777126    -1.057386465022    -1.819877433672     1.007825032230
         H           -0.043924777126    -2.100621465022    -0.384858433672     1.007825032230
         H           -1.718016777126     1.159252534978    -0.380984433672     1.007825032230
         H           -0.254831777126     2.085427534978     0.064782566328     1.007825032230
         H           -0.388533777126     1.352982534978    -1.560968433672     1.007825032230

  Basis Set: AUG-CC-PVTZ
    Blend: AUG-CC-PVTZ
  Basis Set: (AUG-CC-PVTZ AUX)
    Blend: AUG-CC-PVTZ-JKFIT
	 Reference Energy          =    -212.7511757131089780 [Eh]
	 Singles Energy            =      -0.0000000000000000 [Eh]
	 Same-Spin Energy          =      -0.2173713667492151 [Eh]
	 Opposite-Spin Energy      =      -0.8158695405018224 [Eh]
	 Correlation Energy        =      -1.0332409072510376 [Eh]
	 Total Energy              =    -213.7844166203600196 [Eh]

	 ================> DF-SCS-MP2 Energies <==================
	-----------------------------------------------------------
	 SCS Same-Spin Scale       =       0.3333333333333333 [-]
	 SCS Opposite-Spin Scale   =       1.2000000000000000 [-]
	 SCS Same-Spin Energy      =      -0.0724571222497384 [Eh]
	 SCS Opposite-Spin Energy  =      -0.9790434486021868 [Eh]
	 SCS Correlation Energy    =      -1.0515005708519252 [Eh]
	 SCS Total Energy          =    -213.8026762839608921 [Eh]
	-----------------------------------------------------------

  Dipole Moment: [D]
     X:     0.0188      Y:    -0.2440      Z:     0.1084     Total:     0.2677

*** Psi4 exiting successfully. Buy a developer a beer!
