                               Psi4 1.4a3.dev225

  ==> Input File <==

--------------------------------------------------------------------------
#psi4
#
memory 32 gb

molecule  {
1 1
  N        0.0000000     0.0000000     0.0000000
  C        1.4895250     0.0926920    -0.1642530
  C       -0.3334060    -0.1729460     1.4536780
  C       -0.5167230    -1.1772360    -0.7754760
  C       -0.6393960     1.2574900    -0.5139490
  H        1.8514760     0.9503420     0.4029520
  H        1.9409440    -0.8253370     0.2122260
  H        1.7596606     0.2408626    -1.4170096
  H       -1.4164000    -0.2388150     1.5589270
  H        0.1362470    -1.0883220     1.8139650
  H        0.0467840     0.6873570     2.0047010
  H       -1.5978840    -1.2330590    -0.6479300
  H       -0.2683930    -1.0393290    -1.8279050
  H       -0.0452370    -2.0825640    -0.3928860
  H       -1.7193290     1.1773100    -0.3890120
  H       -0.2561440     2.1034850     0.0567550
  H       -0.3898460     1.3710400    -1.5689960
units angstrom
no_reorient  #important for SAPT in psi4, default
symmetry c1  #important for SAPT in psi4, default
}

set PROPERTIES_ORIGIN ["COM"]
properties('MP2/aug-cc-pvtz', properties = ['dipole'])
--------------------------------------------------------------------------

    Molecular point group: c1
  Charge       = 1
  Multiplicity = 1
  Basis Set: AUG-CC-PVTZ
    Blend: AUG-CC-PVTZ
  Basis Set: (AUG-CC-PVTZ AUX)
    Blend: AUG-CC-PVTZ-JKFIT

    Orbital Energies [Eh]
    ---------------------

    Doubly Occupied:

       1A    -15.871797     2A    -11.473115     3A    -11.455095
       4A    -11.453567     5A    -11.453554     6A     -1.508496
       7A     -1.172596     8A     -1.171839     9A     -1.160993
      10A     -1.017297    11A     -0.870068    12A     -0.869845
      13A     -0.860176    14A     -0.780754    15A     -0.772951
      16A     -0.732028    17A     -0.731393    18A     -0.724460
      19A     -0.720746    20A     -0.720428    21A     -0.692831

  @DF-RHF Final Energy:  -212.74252700940949

   => Energetics <=

    Nuclear Repulsion Energy =            213.2099647184764422
    One-Electron Energy =                -699.4769230478721056
    Two-Electron Energy =                 273.5244313199862063
    Total Energy =                       -212.7425270094094572
  Basis Set: (AUG-CC-PVTZ AUX)
    Blend: AUG-CC-PVTZ-RI
    Molecular point group: c1

    Geometry (in Angstrom), charge = 1, multiplicity = 1:

       Center              X                  Y                   Z               Mass
    ------------   -----------------  -----------------  -----------------  -----------------
         N           -0.000569608972    -0.000312433077     0.002641569665    14.003074004430
         C            1.488955391028     0.092379566923    -0.161611430335    12.000000000000
         C           -0.333975608972    -0.173258433077     1.456319569665    12.000000000000
         C           -0.517292608972    -1.177548433077    -0.772834430335    12.000000000000
         C           -0.639965608972     1.257177566923    -0.511307430335    12.000000000000
         H            1.850906391028     0.950029566923     0.405593569665     1.007825032230
         H            1.940374391028    -0.825649433077     0.214867569665     1.007825032230
         H            1.759090991028     0.240550166923    -1.414368030335     1.007825032230
         H           -1.416969608972    -0.239127433077     1.561568569665     1.007825032230
         H            0.135677391028    -1.088634433077     1.816606569665     1.007825032230
         H            0.046214391028     0.687044566923     2.007342569665     1.007825032230
         H           -1.598453608972    -1.233371433077    -0.645288430335     1.007825032230
         H           -0.268962608972    -1.039641433077    -1.825263430335     1.007825032230
         H           -0.045806608972    -2.082876433077    -0.390244430335     1.007825032230
         H           -1.719898608972     1.176997566923    -0.386370430335     1.007825032230
         H           -0.256713608972     2.103172566923     0.059396569665     1.007825032230
         H           -0.390415608972     1.370727566923    -1.566354430335     1.007825032230

  Basis Set: AUG-CC-PVTZ
    Blend: AUG-CC-PVTZ
  Basis Set: (AUG-CC-PVTZ AUX)
    Blend: AUG-CC-PVTZ-JKFIT
	 Reference Energy          =    -212.7425270094094856 [Eh]
	 Singles Energy            =      -0.0000000000000000 [Eh]
	 Same-Spin Energy          =      -0.2172032735157554 [Eh]
	 Opposite-Spin Energy      =      -0.8167751893252970 [Eh]
	 Correlation Energy        =      -1.0339784628410524 [Eh]
	 Total Energy              =    -213.7765054722505340 [Eh]

	 ================> DF-SCS-MP2 Energies <==================
	-----------------------------------------------------------
	 SCS Same-Spin Scale       =       0.3333333333333333 [-]
	 SCS Opposite-Spin Scale   =       1.2000000000000000 [-]
	 SCS Same-Spin Energy      =      -0.0724010911719185 [Eh]
	 SCS Opposite-Spin Energy  =      -0.9801302271903564 [Eh]
	 SCS Correlation Energy    =      -1.0525313183622749 [Eh]
	 SCS Total Energy          =    -213.7950583277717556 [Eh]
	-----------------------------------------------------------

  Dipole Moment: [D]
     X:    -0.0002      Y:    -0.0013      Z:     0.0125     Total:     0.0125

*** Psi4 exiting successfully. Buy a developer a beer!
