                               Psi4 1.4a3.dev225

  ==> Input File <==

--------------------------------------------------------------------------
#psi4
#
memory 32 gb

molecule  {
1 1
  N        0.0000000     0.0000000     0.0000000
  C        1.4895250     0.0926920    -0.1642530
  C       -0.3334060    -0.1729460     1.4536780
  C       -0.5167230    -1.1772360    -0.7754760
  C       -0.6393960     1.2574900    -0.5139490
  H        1.8768530     0.9795771     0.3374496
  H        1.9409440    -0.8253370     0.2122260
  H        1.7177820     0.2178920    -1.2227970
  H       -1.4164000    -0.2388150     1.5589270
  H        0.1362470    -1.0883220     1.8139650
  H        0.0467840     0.6873570     2.0047010
  H       -1.5978840    -1.2330590    -0.6479300
  H       -0.2683930    -1.0393290    -1.8279050
  H       -0.0452370    -2.0825640    -0.3928860
  H       -1.7193290     1.1773100    -0.3890120
  H       -0.2561440     2.1034850     0.0567550
  H       -0.3898460     1.3710400    -1.5689960
units angstrom
no_reorient  #important for SAPT in psi4, default
symmetry c1  #important for SAPT in psi4, default
}

set PROPERTIES_ORIGIN ["COM"]
properties('MP2/aug-cc-pvtz', properties = ['dipole'])
--------------------------------------------------------------------------

    Molecular point group: c1
  Charge       = 1
  Multiplicity = 1
  Basis Set: AUG-CC-PVTZ
    Blend: AUG-CC-PVTZ
  Basis Set: (AUG-CC-PVTZ AUX)
    Blend: AUG-CC-PVTZ-JKFIT

    Orbital Energies [Eh]
    ---------------------

    Doubly Occupied:

       1A    -15.870956     2A    -11.454118     3A    -11.454049
       4A    -11.453742     5A    -11.453518     6A     -1.508360
       7A     -1.172320     8A     -1.172153     9A     -1.171506
      10A     -1.022359    11A     -0.871327    12A     -0.869344
      13A     -0.868080    14A     -0.782042    15A     -0.778286
      16A     -0.733671    17A     -0.731385    18A     -0.728673
      19A     -0.721304    20A     -0.719892    21A     -0.717674

  @DF-RHF Final Energy:  -212.76316434152781

   => Energetics <=

    Nuclear Repulsion Energy =            213.9319012428311737
    One-Electron Energy =                -700.8806107274164106
    Two-Electron Energy =                 274.1855451430574817
    Total Energy =                       -212.7631643415277836
  Basis Set: (AUG-CC-PVTZ AUX)
    Blend: AUG-CC-PVTZ-RI
    Molecular point group: c1

    Geometry (in Angstrom), charge = 1, multiplicity = 1:

       Center              X                  Y                   Z               Mass
    ------------   -----------------  -----------------  -----------------  -----------------
         N           -0.000345163565    -0.000397639254     0.000890926505    14.003074004430
         C            1.489179836435     0.092294360746    -0.163362073495    12.000000000000
         C           -0.333751163565    -0.173343639254     1.454568926505    12.000000000000
         C           -0.517068163565    -1.177633639254    -0.774585073495    12.000000000000
         C           -0.639741163565     1.257092360746    -0.513058073495    12.000000000000
         H            1.876507836435     0.979179460746     0.338340526505     1.007825032230
         H            1.940598836435    -0.825734639254     0.213116926505     1.007825032230
         H            1.717436836435     0.217494360746    -1.221906073495     1.007825032230
         H           -1.416745163565    -0.239212639254     1.559817926505     1.007825032230
         H            0.135901836435    -1.088719639254     1.814855926505     1.007825032230
         H            0.046438836435     0.686959360746     2.005591926505     1.007825032230
         H           -1.598229163565    -1.233456639254    -0.647039073495     1.007825032230
         H           -0.268738163565    -1.039726639254    -1.827014073495     1.007825032230
         H           -0.045582163565    -2.082961639254    -0.391995073495     1.007825032230
         H           -1.719674163565     1.176912360746    -0.388121073495     1.007825032230
         H           -0.256489163565     2.103087360746     0.057645926505     1.007825032230
         H           -0.390191163565     1.370642360746    -1.568105073495     1.007825032230

  Basis Set: AUG-CC-PVTZ
    Blend: AUG-CC-PVTZ
  Basis Set: (AUG-CC-PVTZ AUX)
    Blend: AUG-CC-PVTZ-JKFIT
	 Reference Energy          =    -212.7631643415278120 [Eh]
	 Singles Energy            =      -0.0000000000000000 [Eh]
	 Same-Spin Energy          =      -0.2168413734678153 [Eh]
	 Opposite-Spin Energy      =      -0.8147800534766644 [Eh]
	 Correlation Energy        =      -1.0316214269444797 [Eh]
	 Total Energy              =    -213.7947857684722806 [Eh]

	 ================> DF-SCS-MP2 Energies <==================
	-----------------------------------------------------------
	 SCS Same-Spin Scale       =       0.3333333333333333 [-]
	 SCS Opposite-Spin Scale   =       1.2000000000000000 [-]
	 SCS Same-Spin Energy      =      -0.0722804578226051 [Eh]
	 SCS Opposite-Spin Energy  =      -0.9777360641719972 [Eh]
	 SCS Correlation Energy    =      -1.0500165219946023 [Eh]
	 SCS Total Energy          =    -213.8131808635224047 [Eh]
	-----------------------------------------------------------

  Dipole Moment: [D]
     X:     0.0042      Y:     0.0208      Z:    -0.0213     Total:     0.0301

*** Psi4 exiting successfully. Buy a developer a beer!
