                               Psi4 1.4a3.dev225

  ==> Input File <==

--------------------------------------------------------------------------
#psi4
#
memory 32 gb

molecule  {
1 1
  N        0.0000000     0.0000000     0.0000000
  C        1.4895250     0.0926920    -0.1642530
  C       -0.3334060    -0.1729460     1.4536780
  C       -0.5167230    -1.1772360    -0.7754760
  C       -0.6393960     1.2574900    -0.5139490
  H        1.8514760     0.9503420     0.4029520
  H        1.9549555    -0.8319131     0.1774671
  H        1.7177820     0.2178920    -1.2227970
  H       -1.4164000    -0.2388150     1.5589270
  H        0.1362470    -1.0883220     1.8139650
  H        0.0467840     0.6873570     2.0047010
  H       -1.5978840    -1.2330590    -0.6479300
  H       -0.2683930    -1.0393290    -1.8279050
  H       -0.0452370    -2.0825640    -0.3928860
  H       -1.7193290     1.1773100    -0.3890120
  H       -0.2561440     2.1034850     0.0567550
  H       -0.3898460     1.3710400    -1.5689960
units angstrom
no_reorient  #important for SAPT in psi4, default
symmetry c1  #important for SAPT in psi4, default
}

set PROPERTIES_ORIGIN ["COM"]
properties('MP2/aug-cc-pvtz', properties = ['dipole'])
--------------------------------------------------------------------------

    Molecular point group: c1
  Charge       = 1
  Multiplicity = 1
  Basis Set: AUG-CC-PVTZ
    Blend: AUG-CC-PVTZ
  Basis Set: (AUG-CC-PVTZ AUX)
    Blend: AUG-CC-PVTZ-JKFIT

    Orbital Energies [Eh]
    ---------------------

    Doubly Occupied:

       1A    -15.870682     2A    -11.454022     3A    -11.453981
       4A    -11.453826     5A    -11.453715     6A     -1.508361
       7A     -1.172185     8A     -1.172104     9A     -1.171768
      10A     -1.022108    11A     -0.870369    12A     -0.869391
      13A     -0.868745    14A     -0.781218    15A     -0.779312
      16A     -0.732510    17A     -0.731394    18A     -0.729963
      19A     -0.720670    20A     -0.719883    21A     -0.718953

  @DF-RHF Final Energy:  -212.76357978997805

   => Energetics <=

    Nuclear Repulsion Energy =            213.9592633633604635
    One-Electron Energy =                -700.9353682157769754
    Two-Electron Energy =                 274.2125250624384307
    Total Energy =                       -212.7635797899780528
  Basis Set: (AUG-CC-PVTZ AUX)
    Blend: AUG-CC-PVTZ-RI
    Molecular point group: c1

    Geometry (in Angstrom), charge = 1, multiplicity = 1:

       Center              X                  Y                   Z               Mass
    ------------   -----------------  -----------------  -----------------  -----------------
         N           -0.000190576478     0.000089444384     0.000472770849    14.003074004430
         C            1.489334423522     0.092781444384    -0.163780229151    12.000000000000
         C           -0.333596576478    -0.172856555616     1.454150770849    12.000000000000
         C           -0.516913576478    -1.177146555616    -0.775003229151    12.000000000000
         C           -0.639586576478     1.257579444384    -0.513476229151    12.000000000000
         H            1.851285423522     0.950431444384     0.403424770849     1.007825032230
         H            1.954764923522    -0.831823655616     0.177939870849     1.007825032230
         H            1.717591423522     0.217981444384    -1.222324229151     1.007825032230
         H           -1.416590576478    -0.238725555616     1.559399770849     1.007825032230
         H            0.136056423522    -1.088232555616     1.814437770849     1.007825032230
         H            0.046593423522     0.687446444384     2.005173770849     1.007825032230
         H           -1.598074576478    -1.232969555616    -0.647457229151     1.007825032230
         H           -0.268583576478    -1.039239555616    -1.827432229151     1.007825032230
         H           -0.045427576478    -2.082474555616    -0.392413229151     1.007825032230
         H           -1.719519576478     1.177399444384    -0.388539229151     1.007825032230
         H           -0.256334576478     2.103574444384     0.057227770849     1.007825032230
         H           -0.390036576478     1.371129444384    -1.568523229151     1.007825032230

  Basis Set: AUG-CC-PVTZ
    Blend: AUG-CC-PVTZ
  Basis Set: (AUG-CC-PVTZ AUX)
    Blend: AUG-CC-PVTZ-JKFIT
	 Reference Energy          =    -212.7635797899780528 [Eh]
	 Singles Energy            =      -0.0000000000000000 [Eh]
	 Same-Spin Energy          =      -0.2168377749842587 [Eh]
	 Opposite-Spin Energy      =      -0.8147824462127500 [Eh]
	 Correlation Energy        =      -1.0316202211970087 [Eh]
	 Total Energy              =    -213.7952000111750692 [Eh]

	 ================> DF-SCS-MP2 Energies <==================
	-----------------------------------------------------------
	 SCS Same-Spin Scale       =       0.3333333333333333 [-]
	 SCS Opposite-Spin Scale   =       1.2000000000000000 [-]
	 SCS Same-Spin Energy      =      -0.0722792583280862 [Eh]
	 SCS Opposite-Spin Energy  =      -0.9777389354552999 [Eh]
	 SCS Correlation Energy    =      -1.0500181937833861 [Eh]
	 SCS Total Energy          =    -213.8135979837614400 [Eh]
	-----------------------------------------------------------

  Dipole Moment: [D]
     X:     0.0031      Y:    -0.0079      Z:    -0.0122     Total:     0.0148

*** Psi4 exiting successfully. Buy a developer a beer!
