                               Psi4 1.4a3.dev225

  ==> Input File <==

--------------------------------------------------------------------------
#psi4
#
memory 32 gb

molecule  {
1 1
  N        0.0000000     0.0000000     0.0000000
  C        1.4895250     0.0926920    -0.1642530
  C       -0.2483688    -0.3050239     1.4489731
  C       -0.5167230    -1.1772360    -0.7754760
  C       -0.6393960     1.2574900    -0.5139490
  H        1.8514760     0.9503420     0.4029520
  H        1.9409440    -0.8253370     0.2122260
  H        1.7177820     0.2178920    -1.2227970
  H       -1.4164000    -0.2388150     1.5589270
  H        0.1362470    -1.0883220     1.8139650
  H        0.0467840     0.6873570     2.0047010
  H       -1.5978840    -1.2330590    -0.6479300
  H       -0.2683930    -1.0393290    -1.8279050
  H       -0.0452370    -2.0825640    -0.3928860
  H       -1.7193290     1.1773100    -0.3890120
  H       -0.2561440     2.1034850     0.0567550
  H       -0.3898460     1.3710400    -1.5689960
units angstrom
no_reorient  #important for SAPT in psi4, default
symmetry c1  #important for SAPT in psi4, default
}

set PROPERTIES_ORIGIN ["COM"]
properties('MP2/aug-cc-pvtz', properties = ['dipole'])
--------------------------------------------------------------------------

    Molecular point group: c1
  Charge       = 1
  Multiplicity = 1
  Basis Set: AUG-CC-PVTZ
    Blend: AUG-CC-PVTZ
  Basis Set: (AUG-CC-PVTZ AUX)
    Blend: AUG-CC-PVTZ-JKFIT

    Orbital Energies [Eh]
    ---------------------

    Doubly Occupied:

       1A    -15.871961     2A    -11.457366     3A    -11.457296
       4A    -11.453285     5A    -11.453272     6A     -1.509570
       7A     -1.182172     8A     -1.172518     9A     -1.165904
      10A     -1.026571    11A     -0.887897    12A     -0.867357
      13A     -0.864219    14A     -0.789862    15A     -0.775952
      16A     -0.755069    17A     -0.732085    18A     -0.726013
      19A     -0.724675    20A     -0.708321    21A     -0.688496

  @DF-RHF Final Energy:  -212.72942036988536

   => Energetics <=

    Nuclear Repulsion Energy =            214.0667840679824394
    One-Electron Energy =                -701.0526893784734739
    Two-Electron Energy =                 274.2564849406056737
    Total Energy =                       -212.7294203698853607
  Basis Set: (AUG-CC-PVTZ AUX)
    Blend: AUG-CC-PVTZ-RI
    Molecular point group: c1

    Geometry (in Angstrom), charge = 1, multiplicity = 1:

       Center              X                  Y                   Z               Mass
    ------------   -----------------  -----------------  -----------------  -----------------
         N           -0.013771768799     0.021390006988     0.000761958237    14.003074004430
         C            1.475753231201     0.114082006988    -0.163491041763    12.000000000000
         C           -0.262140568799    -0.283633893012     1.449735058237    12.000000000000
         C           -0.530494768799    -1.155845993012    -0.774714041763    12.000000000000
         C           -0.653167768799     1.278880006988    -0.513187041763    12.000000000000
         H            1.837704231201     0.971732006988     0.403713958237     1.007825032230
         H            1.927172231201    -0.803946993012     0.212987958237     1.007825032230
         H            1.704010231201     0.239282006988    -1.222035041763     1.007825032230
         H           -1.430171768799    -0.217424993012     1.559688958237     1.007825032230
         H            0.122475231201    -1.066931993012     1.814726958237     1.007825032230
         H            0.033012231201     0.708747006988     2.005462958237     1.007825032230
         H           -1.611655768799    -1.211668993012    -0.647168041763     1.007825032230
         H           -0.282164768799    -1.017938993012    -1.827143041763     1.007825032230
         H           -0.059008768799    -2.061173993012    -0.392124041763     1.007825032230
         H           -1.733100768799     1.198700006988    -0.388250041763     1.007825032230
         H           -0.269915768799     2.124875006988     0.057516958237     1.007825032230
         H           -0.403617768799     1.392430006988    -1.568234041763     1.007825032230

  Basis Set: AUG-CC-PVTZ
    Blend: AUG-CC-PVTZ
  Basis Set: (AUG-CC-PVTZ AUX)
    Blend: AUG-CC-PVTZ-JKFIT
	 Reference Energy          =    -212.7294203698853607 [Eh]
	 Singles Energy            =      -0.0000000000000000 [Eh]
	 Same-Spin Energy          =      -0.2174437902068631 [Eh]
	 Opposite-Spin Energy      =      -0.8164874154338195 [Eh]
	 Correlation Energy        =      -1.0339312056406826 [Eh]
	 Total Energy              =    -213.7633515755260305 [Eh]

	 ================> DF-SCS-MP2 Energies <==================
	-----------------------------------------------------------
	 SCS Same-Spin Scale       =       0.3333333333333333 [-]
	 SCS Opposite-Spin Scale   =       1.2000000000000000 [-]
	 SCS Same-Spin Energy      =      -0.0724812634022877 [Eh]
	 SCS Opposite-Spin Energy  =      -0.9797848985205834 [Eh]
	 SCS Correlation Energy    =      -1.0522661619228710 [Eh]
	 SCS Total Energy          =    -213.7816865318082193 [Eh]
	-----------------------------------------------------------

  Dipole Moment: [D]
     X:    -0.0437      Y:     0.0920      Z:    -0.0476     Total:     0.1124

*** Psi4 exiting successfully. Buy a developer a beer!
