                               Psi4 1.4a3.dev225

  ==> Input File <==

--------------------------------------------------------------------------
#psi4
#
memory 32 gb

molecule  {
1 1
  N        0.0000000     0.0000000     0.0000000
  C        1.4895250     0.0926920    -0.1642530
  C       -0.3778182    -0.1959837     1.6473190
  C       -0.5167230    -1.1772360    -0.7754760
  C       -0.6393960     1.2574900    -0.5139490
  H        1.8514760     0.9503420     0.4029520
  H        1.9409440    -0.8253370     0.2122260
  H        1.7177820     0.2178920    -1.2227970
  H       -1.4164000    -0.2388150     1.5589270
  H        0.1362470    -1.0883220     1.8139650
  H        0.0467840     0.6873570     2.0047010
  H       -1.5978840    -1.2330590    -0.6479300
  H       -0.2683930    -1.0393290    -1.8279050
  H       -0.0452370    -2.0825640    -0.3928860
  H       -1.7193290     1.1773100    -0.3890120
  H       -0.2561440     2.1034850     0.0567550
  H       -0.3898460     1.3710400    -1.5689960
units angstrom
no_reorient  #important for SAPT in psi4, default
symmetry c1  #important for SAPT in psi4, default
}

set PROPERTIES_ORIGIN ["COM"]
properties('MP2/aug-cc-pvtz', properties = ['dipole'])
--------------------------------------------------------------------------

    Molecular point group: c1
  Charge       = 1
  Multiplicity = 1
  Basis Set: AUG-CC-PVTZ
    Blend: AUG-CC-PVTZ
  Basis Set: (AUG-CC-PVTZ AUX)
    Blend: AUG-CC-PVTZ-JKFIT

    Orbital Energies [Eh]
    ---------------------

    Doubly Occupied:

       1A    -15.855410     2A    -11.468135     3A    -11.447581
       4A    -11.447581     5A    -11.447560     6A     -1.474623
       7A     -1.173329     8A     -1.161899     9A     -1.161898
      10A     -1.016643    11A     -0.860819    12A     -0.860819
      13A     -0.852586    14A     -0.795863    15A     -0.795863
      16A     -0.747400    17A     -0.747400    18A     -0.725621
      19A     -0.714448    20A     -0.714448    21A     -0.671108

  @DF-RHF Final Energy:  -212.73887170009084

   => Energetics <=

    Nuclear Repulsion Energy =            210.6976555218910221
    One-Electron Energy =                -694.5909901585715716
    Two-Electron Energy =                 271.1544629365897094
    Total Energy =                       -212.7388717000908400
  Basis Set: (AUG-CC-PVTZ AUX)
    Blend: AUG-CC-PVTZ-RI
    Molecular point group: c1

    Geometry (in Angstrom), charge = 1, multiplicity = 1:

       Center              X                  Y                   Z               Mass
    ------------   -----------------  -----------------  -----------------  -----------------
         N            0.007192552792     0.003730953960    -0.031360146876    14.003074004430
         C            1.496717552792     0.096422953960    -0.195613146876    12.000000000000
         C           -0.370625647208    -0.192252746040     1.615958853124    12.000000000000
         C           -0.509530447208    -1.173505046040    -0.806836146876    12.000000000000
         C           -0.632203447208     1.261220953960    -0.545309146876    12.000000000000
         H            1.858668552792     0.954072953960     0.371591853124     1.007825032230
         H            1.948136552792    -0.821606046040     0.180865853124     1.007825032230
         H            1.724974552792     0.221622953960    -1.254157146876     1.007825032230
         H           -1.409207447208    -0.235084046040     1.527566853124     1.007825032230
         H            0.143439552792    -1.084591046040     1.782604853124     1.007825032230
         H            0.053976552792     0.691087953960     1.973340853124     1.007825032230
         H           -1.590691447208    -1.229328046040    -0.679290146876     1.007825032230
         H           -0.261200447208    -1.035598046040    -1.859265146876     1.007825032230
         H           -0.038044447208    -2.078833046040    -0.424246146876     1.007825032230
         H           -1.712136447208     1.181040953960    -0.420372146876     1.007825032230
         H           -0.248951447208     2.107215953960     0.025394853124     1.007825032230
         H           -0.382653447208     1.374770953960    -1.600356146876     1.007825032230

  Basis Set: AUG-CC-PVTZ
    Blend: AUG-CC-PVTZ
  Basis Set: (AUG-CC-PVTZ AUX)
    Blend: AUG-CC-PVTZ-JKFIT
	 Reference Energy          =    -212.7388717000908400 [Eh]
	 Singles Energy            =      -0.0000000000000000 [Eh]
	 Same-Spin Energy          =      -0.2164265348304134 [Eh]
	 Opposite-Spin Energy      =      -0.8164770245849855 [Eh]
	 Correlation Energy        =      -1.0329035594153988 [Eh]
	 Total Energy              =    -213.7717752595062279 [Eh]

	 ================> DF-SCS-MP2 Energies <==================
	-----------------------------------------------------------
	 SCS Same-Spin Scale       =       0.3333333333333333 [-]
	 SCS Opposite-Spin Scale   =       1.2000000000000000 [-]
	 SCS Same-Spin Energy      =      -0.0721421782768045 [Eh]
	 SCS Opposite-Spin Energy  =      -0.9797724295019825 [Eh]
	 SCS Correlation Energy    =      -1.0519146077787869 [Eh]
	 SCS Total Energy          =    -213.7907863078696380 [Eh]
	-----------------------------------------------------------

  Dipole Moment: [D]
     X:    -0.0663      Y:    -0.0344      Z:     0.2891     Total:     0.2985

*** Psi4 exiting successfully. Buy a developer a beer!
