                               Psi4 1.4a3.dev225

  ==> Input File <==

--------------------------------------------------------------------------
#psi4
#
memory 32 gb

molecule  {
1 1
  N        0.0000000     0.0000000     0.0000000
  C        1.4895250     0.0926920    -0.1642530
  C       -0.3054209    -0.2172546     1.4538804
  C       -0.5167230    -1.1772360    -0.7754760
  C       -0.6393960     1.2574900    -0.5139490
  H        1.8514760     0.9503420     0.4029520
  H        1.9409440    -0.8253370     0.2122260
  H        1.7177820     0.2178920    -1.2227970
  H       -1.4164000    -0.2388150     1.5589270
  H        0.1362470    -1.0883220     1.8139650
  H        0.0467840     0.6873570     2.0047010
  H       -1.5978840    -1.2330590    -0.6479300
  H       -0.2683930    -1.0393290    -1.8279050
  H       -0.0452370    -2.0825640    -0.3928860
  H       -1.7193290     1.1773100    -0.3890120
  H       -0.2561440     2.1034850     0.0567550
  H       -0.3898460     1.3710400    -1.5689960
units angstrom
no_reorient  #important for SAPT in psi4, default
symmetry c1  #important for SAPT in psi4, default
}

set PROPERTIES_ORIGIN ["COM"]
properties('MP2/aug-cc-pvtz', properties = ['dipole'])
--------------------------------------------------------------------------

    Molecular point group: c1
  Charge       = 1
  Multiplicity = 1
  Basis Set: AUG-CC-PVTZ
    Blend: AUG-CC-PVTZ
  Basis Set: (AUG-CC-PVTZ AUX)
    Blend: AUG-CC-PVTZ-JKFIT

    Orbital Energies [Eh]
    ---------------------

    Doubly Occupied:

       1A    -15.870577     2A    -11.454806     3A    -11.454306
       4A    -11.453593     5A    -11.453579     6A     -1.508504
       7A     -1.174926     8A     -1.172063     9A     -1.169635
      10A     -1.022308    11A     -0.873988    12A     -0.868425
      13A     -0.867136    14A     -0.783649    15A     -0.778058
      16A     -0.740290    17A     -0.731481    18A     -0.726438
      19A     -0.723656    20A     -0.716511    21A     -0.713131

  @DF-RHF Final Energy:  -212.76021438720633

   => Energetics <=

    Nuclear Repulsion Energy =            213.9960905729228102
    One-Electron Energy =                -700.9984854896583784
    Two-Electron Energy =                 274.2421805295292643
    Total Energy =                       -212.7602143872063039
  Basis Set: (AUG-CC-PVTZ AUX)
    Blend: AUG-CC-PVTZ-RI
    Molecular point group: c1

    Geometry (in Angstrom), charge = 1, multiplicity = 1:

       Center              X                  Y                   Z               Mass
    ------------   -----------------  -----------------  -----------------  -----------------
         N           -0.004532185056     0.007175774779    -0.000032778666    14.003074004430
         C            1.484992814944     0.099867774779    -0.164285778666    12.000000000000
         C           -0.309953085056    -0.210078825221     1.453847621334    12.000000000000
         C           -0.521255185056    -1.170060225221    -0.775508778666    12.000000000000
         C           -0.643928185056     1.264665774779    -0.513981778666    12.000000000000
         H            1.846943814944     0.957517774779     0.402919221334     1.007825032230
         H            1.936411814944    -0.818161225221     0.212193221334     1.007825032230
         H            1.713249814944     0.225067774779    -1.222829778666     1.007825032230
         H           -1.420932185056    -0.231639225221     1.558894221334     1.007825032230
         H            0.131714814944    -1.081146225221     1.813932221334     1.007825032230
         H            0.042251814944     0.694532774779     2.004668221334     1.007825032230
         H           -1.602416185056    -1.225883225221    -0.647962778666     1.007825032230
         H           -0.272925185056    -1.032153225221    -1.827937778666     1.007825032230
         H           -0.049769185056    -2.075388225221    -0.392918778666     1.007825032230
         H           -1.723861185056     1.184485774779    -0.389044778666     1.007825032230
         H           -0.260676185056     2.110660774779     0.056722221334     1.007825032230
         H           -0.394378185056     1.378215774779    -1.569028778666     1.007825032230

  Basis Set: AUG-CC-PVTZ
    Blend: AUG-CC-PVTZ
  Basis Set: (AUG-CC-PVTZ AUX)
    Blend: AUG-CC-PVTZ-JKFIT
	 Reference Energy          =    -212.7602143872063323 [Eh]
	 Singles Energy            =      -0.0000000000000000 [Eh]
	 Same-Spin Energy          =      -0.2169132695798940 [Eh]
	 Opposite-Spin Energy      =      -0.8149886217402208 [Eh]
	 Correlation Energy        =      -1.0319018913201148 [Eh]
	 Total Energy              =    -213.7921162785264357 [Eh]

	 ================> DF-SCS-MP2 Energies <==================
	-----------------------------------------------------------
	 SCS Same-Spin Scale       =       0.3333333333333333 [-]
	 SCS Opposite-Spin Scale   =       1.2000000000000000 [-]
	 SCS Same-Spin Energy      =      -0.0723044231932980 [Eh]
	 SCS Opposite-Spin Energy  =      -0.9779863460882650 [Eh]
	 SCS Correlation Energy    =      -1.0502907692815631 [Eh]
	 SCS Total Energy          =    -213.8105051564878920 [Eh]
	-----------------------------------------------------------

  Dipole Moment: [D]
     X:    -0.0137      Y:     0.0242      Z:    -0.0054     Total:     0.0283

*** Psi4 exiting successfully. Buy a developer a beer!
