                               Psi4 1.4a3.dev225

  ==> Input File <==

--------------------------------------------------------------------------
#psi4
#
memory 32 gb

molecule  {
1 1
  N        0.0000000     0.0000000     0.0000000
  C        1.4895250     0.0926920    -0.1642530
  C       -0.3334060    -0.1729460     1.4536780
  C       -0.5167230    -1.1772360    -0.7754760
  C       -0.6393960     1.2574900    -0.5139490
  H        1.8514760     0.9503420     0.4029520
  H        1.9409440    -0.8253370     0.2122260
  H        1.7073123     0.2121493    -1.1742439
  H       -1.4164000    -0.2388150     1.5589270
  H        0.1362470    -1.0883220     1.8139650
  H        0.0467840     0.6873570     2.0047010
  H       -1.5978840    -1.2330590    -0.6479300
  H       -0.2683930    -1.0393290    -1.8279050
  H       -0.0452370    -2.0825640    -0.3928860
  H       -1.7193290     1.1773100    -0.3890120
  H       -0.2561440     2.1034850     0.0567550
  H       -0.3898460     1.3710400    -1.5689960
units angstrom
no_reorient  #important for SAPT in psi4, default
symmetry c1  #important for SAPT in psi4, default
}

set PROPERTIES_ORIGIN ["COM"]
properties('MP2/aug-cc-pvtz', properties = ['dipole'])
--------------------------------------------------------------------------

    Molecular point group: c1
  Charge       = 1
  Multiplicity = 1
  Basis Set: AUG-CC-PVTZ
    Blend: AUG-CC-PVTZ
  Basis Set: (AUG-CC-PVTZ AUX)
    Blend: AUG-CC-PVTZ-JKFIT

    Orbital Energies [Eh]
    ---------------------

    Doubly Occupied:

       1A    -15.870160     2A    -11.454024     3A    -11.454011
       4A    -11.453702     5A    -11.448561     6A     -1.508488
       7A     -1.176481     8A     -1.172139     9A     -1.171970
      10A     -1.023540    11A     -0.873006    12A     -0.869400
      13A     -0.869359    14A     -0.783626    15A     -0.780410
      16A     -0.736323    17A     -0.731435    18A     -0.731344
      19A     -0.721246    20A     -0.719801    21A     -0.719738

  @DF-RHF Final Energy:  -212.76277095400050

   => Energetics <=

    Nuclear Repulsion Energy =            214.2120220446188910
    One-Electron Energy =                -701.4120657263905514
    Two-Electron Energy =                 274.4372727277711874
    Total Energy =                       -212.7627709540004730
  Basis Set: (AUG-CC-PVTZ AUX)
    Blend: AUG-CC-PVTZ-RI
    Molecular point group: c1

    Geometry (in Angstrom), charge = 1, multiplicity = 1:

       Center              X                  Y                   Z               Mass
    ------------   -----------------  -----------------  -----------------  -----------------
         N            0.000142402923     0.000078108949    -0.000660391736    14.003074004430
         C            1.489667402923     0.092770108949    -0.164913391736    12.000000000000
         C           -0.333263597077    -0.172867891051     1.453017608264    12.000000000000
         C           -0.516580597077    -1.177157891051    -0.776136391736    12.000000000000
         C           -0.639253597077     1.257568108949    -0.514609391736    12.000000000000
         H            1.851618402923     0.950420108949     0.402291608264     1.007825032230
         H            1.941086402923    -0.825258891051     0.211565608264     1.007825032230
         H            1.707454702923     0.212227408949    -1.174904291736     1.007825032230
         H           -1.416257597077    -0.238736891051     1.558266608264     1.007825032230
         H            0.136389402923    -1.088243891051     1.813304608264     1.007825032230
         H            0.046926402923     0.687435108949     2.004040608264     1.007825032230
         H           -1.597741597077    -1.232980891051    -0.648590391736     1.007825032230
         H           -0.268250597077    -1.039250891051    -1.828565391736     1.007825032230
         H           -0.045094597077    -2.082485891051    -0.393546391736     1.007825032230
         H           -1.719186597077     1.177388108949    -0.389672391736     1.007825032230
         H           -0.256001597077     2.103563108949     0.056094608264     1.007825032230
         H           -0.389703597077     1.371118108949    -1.569656391736     1.007825032230

  Basis Set: AUG-CC-PVTZ
    Blend: AUG-CC-PVTZ
  Basis Set: (AUG-CC-PVTZ AUX)
    Blend: AUG-CC-PVTZ-JKFIT
	 Reference Energy          =    -212.7627709540005014 [Eh]
	 Singles Energy            =      -0.0000000000000000 [Eh]
	 Same-Spin Energy          =      -0.2167828688843776 [Eh]
	 Opposite-Spin Energy      =      -0.8144642377983908 [Eh]
	 Correlation Energy        =      -1.0312471066827684 [Eh]
	 Total Energy              =    -213.7940180606832712 [Eh]

	 ================> DF-SCS-MP2 Energies <==================
	-----------------------------------------------------------
	 SCS Same-Spin Scale       =       0.3333333333333333 [-]
	 SCS Opposite-Spin Scale   =       1.2000000000000000 [-]
	 SCS Same-Spin Energy      =      -0.0722609562947925 [Eh]
	 SCS Opposite-Spin Energy  =      -0.9773570853580690 [Eh]
	 SCS Correlation Energy    =      -1.0496180416528615 [Eh]
	 SCS Total Energy          =    -213.8123889956533503 [Eh]
	-----------------------------------------------------------

  Dipole Moment: [D]
     X:    -0.0018      Y:     0.0000      Z:    -0.0011     Total:     0.0021

*** Psi4 exiting successfully. Buy a developer a beer!
