                               Psi4 1.4a3.dev225

  ==> Input File <==

--------------------------------------------------------------------------
#psi4
#
memory 32 gb

molecule  {
1 1
  N        0.0000000     0.0000000     0.0000000
  C        1.4895250     0.0926920    -0.1642530
  C       -0.3334060    -0.1729460     1.4536780
  C       -0.5167230    -1.1772360    -0.7754760
  C       -0.6393960     1.2574900    -0.5139490
  H        1.8514760     0.9503420     0.4029520
  H        1.9409440    -0.8253370     0.2122260
  H        1.7282517     0.2236347    -1.2713501
  H       -1.4164000    -0.2388150     1.5589270
  H        0.1362470    -1.0883220     1.8139650
  H        0.0467840     0.6873570     2.0047010
  H       -1.5978840    -1.2330590    -0.6479300
  H       -0.2683930    -1.0393290    -1.8279050
  H       -0.0452370    -2.0825640    -0.3928860
  H       -1.7193290     1.1773100    -0.3890120
  H       -0.2561440     2.1034850     0.0567550
  H       -0.3898460     1.3710400    -1.5689960
units angstrom
no_reorient  #important for SAPT in psi4, default
symmetry c1  #important for SAPT in psi4, default
}

set PROPERTIES_ORIGIN ["COM"]
properties('MP2/aug-cc-pvtz', properties = ['dipole'])
--------------------------------------------------------------------------

    Molecular point group: c1
  Charge       = 1
  Multiplicity = 1
  Basis Set: AUG-CC-PVTZ
    Blend: AUG-CC-PVTZ
  Basis Set: (AUG-CC-PVTZ AUX)
    Blend: AUG-CC-PVTZ-JKFIT

    Orbital Energies [Eh]
    ---------------------

    Doubly Occupied:

       1A    -15.870702     2A    -11.459075     3A    -11.454165
       4A    -11.453826     5A    -11.453813     6A     -1.508315
       7A     -1.172168     8A     -1.171990     9A     -1.168402
      10A     -1.020434    11A     -0.869556    12A     -0.869508
      13A     -0.866435    14A     -0.780460    15A     -0.777797
      16A     -0.731507    17A     -0.731386    18A     -0.727491
      19A     -0.720046    20A     -0.719977    21A     -0.716421

  @DF-RHF Final Energy:  -212.76144747311167

   => Energetics <=

    Nuclear Repulsion Energy =            213.7774811141277098
    One-Electron Energy =                -700.5909054611444162
    Two-Electron Energy =                 274.0519768739050619
    Total Energy =                       -212.7614474731116729
  Basis Set: (AUG-CC-PVTZ AUX)
    Blend: AUG-CC-PVTZ-RI
    Molecular point group: c1

    Geometry (in Angstrom), charge = 1, multiplicity = 1:

       Center              X                  Y                   Z               Mass
    ------------   -----------------  -----------------  -----------------  -----------------
         N           -0.000142402923    -0.000078108949     0.000660391736    14.003074004430
         C            1.489382597077     0.092613891051    -0.163592608264    12.000000000000
         C           -0.333548402923    -0.173024108949     1.454338391736    12.000000000000
         C           -0.516865402923    -1.177314108949    -0.774815608264    12.000000000000
         C           -0.639538402923     1.257411891051    -0.513288608264    12.000000000000
         H            1.851333597077     0.950263891051     0.403612391736     1.007825032230
         H            1.940801597077    -0.825415108949     0.212886391736     1.007825032230
         H            1.728109297077     0.223556591051    -1.270689708264     1.007825032230
         H           -1.416542402923    -0.238893108949     1.559587391736     1.007825032230
         H            0.136104597077    -1.088400108949     1.814625391736     1.007825032230
         H            0.046641597077     0.687278891051     2.005361391736     1.007825032230
         H           -1.598026402923    -1.233137108949    -0.647269608264     1.007825032230
         H           -0.268535402923    -1.039407108949    -1.827244608264     1.007825032230
         H           -0.045379402923    -2.082642108949    -0.392225608264     1.007825032230
         H           -1.719471402923     1.177231891051    -0.388351608264     1.007825032230
         H           -0.256286402923     2.103406891051     0.057415391736     1.007825032230
         H           -0.389988402923     1.370961891051    -1.568335608264     1.007825032230

  Basis Set: AUG-CC-PVTZ
    Blend: AUG-CC-PVTZ
  Basis Set: (AUG-CC-PVTZ AUX)
    Blend: AUG-CC-PVTZ-JKFIT
	 Reference Energy          =    -212.7614474731116729 [Eh]
	 Singles Energy            =      -0.0000000000000000 [Eh]
	 Same-Spin Energy          =      -0.2169263201363844 [Eh]
	 Opposite-Spin Energy      =      -0.8152207644585826 [Eh]
	 Correlation Energy        =      -1.0321470845949670 [Eh]
	 Total Energy              =    -213.7935945577066263 [Eh]

	 ================> DF-SCS-MP2 Energies <==================
	-----------------------------------------------------------
	 SCS Same-Spin Scale       =       0.3333333333333333 [-]
	 SCS Opposite-Spin Scale   =       1.2000000000000000 [-]
	 SCS Same-Spin Energy      =      -0.0723087733787948 [Eh]
	 SCS Opposite-Spin Energy  =      -0.9782649173502991 [Eh]
	 SCS Correlation Energy    =      -1.0505736907290939 [Eh]
	 SCS Total Energy          =    -213.8120211638407682 [Eh]
	-----------------------------------------------------------

  Dipole Moment: [D]
     X:     0.0010      Y:    -0.0002      Z:     0.0021     Total:     0.0023

*** Psi4 exiting successfully. Buy a developer a beer!
