                               Psi4 1.4a3.dev225

  ==> Input File <==

--------------------------------------------------------------------------
#psi4
#
memory 32 gb

molecule  {
1 1
  N       -0.0613097     0.0611376    -0.0590406
  C        1.4895250     0.0926920    -0.1642530
  C       -0.3334060    -0.1729460     1.4536780
  C       -0.5167230    -1.1772360    -0.7754760
  C       -0.6393960     1.2574900    -0.5139490
  H        1.8514760     0.9503420     0.4029520
  H        1.9409440    -0.8253370     0.2122260
  H        1.7177820     0.2178920    -1.2227970
  H       -1.4164000    -0.2388150     1.5589270
  H        0.1362470    -1.0883220     1.8139650
  H        0.0467840     0.6873570     2.0047010
  H       -1.5978840    -1.2330590    -0.6479300
  H       -0.2683930    -1.0393290    -1.8279050
  H       -0.0452370    -2.0825640    -0.3928860
  H       -1.7193290     1.1773100    -0.3890120
  H       -0.2561440     2.1034850     0.0567550
  H       -0.3898460     1.3710400    -1.5689960
units angstrom
no_reorient  #important for SAPT in psi4, default
symmetry c1  #important for SAPT in psi4, default
}

set PROPERTIES_ORIGIN ["COM"]
properties('MP2/aug-cc-pvtz', properties = ['dipole'])
--------------------------------------------------------------------------

    Molecular point group: c1
  Charge       = 1
  Multiplicity = 1
  Basis Set: AUG-CC-PVTZ
    Blend: AUG-CC-PVTZ
  Basis Set: (AUG-CC-PVTZ AUX)
    Blend: AUG-CC-PVTZ-JKFIT

    Orbital Energies [Eh]
    ---------------------

    Doubly Occupied:

       1A    -15.869215     2A    -11.458581     3A    -11.458570
       4A    -11.454275     5A    -11.445292     6A     -1.510994
       7A     -1.187398     8A     -1.168152     9A     -1.162189
      10A     -1.020516    11A     -0.874005    12A     -0.871848
      13A     -0.865158    14A     -0.781734    15A     -0.780872
      16A     -0.751233    17A     -0.731880    18A     -0.731751
      19A     -0.731561    20A     -0.707180    21A     -0.692706

  @DF-RHF Final Energy:  -212.75117571450986

   => Energetics <=

    Nuclear Repulsion Energy =            213.9958576985574723
    One-Electron Energy =                -700.9838425276118414
    Two-Electron Energy =                 274.2368091145445419
    Total Energy =                       -212.7511757145098272
  Basis Set: (AUG-CC-PVTZ AUX)
    Blend: AUG-CC-PVTZ-RI
    Molecular point group: c1

    Geometry (in Angstrom), charge = 1, multiplicity = 1:

       Center              X                  Y                   Z               Mass
    ------------   -----------------  -----------------  -----------------  -----------------
         N           -0.049723204420     0.049583628407    -0.047882925913    14.003074004430
         C            1.501111495580     0.081138028407    -0.153095325913    12.000000000000
         C           -0.321819504420    -0.184499971593     1.464835674087    12.000000000000
         C           -0.505136504420    -1.188789971593    -0.764318325913    12.000000000000
         C           -0.627809504420     1.245936028407    -0.502791325913    12.000000000000
         H            1.863062495580     0.938788028407     0.414109674087     1.007825032230
         H            1.952530495580    -0.836890971593     0.223383674087     1.007825032230
         H            1.729368495580     0.206338028407    -1.211639325913     1.007825032230
         H           -1.404813504420    -0.250368971593     1.570084674087     1.007825032230
         H            0.147833495580    -1.099875971593     1.825122674087     1.007825032230
         H            0.058370495580     0.675803028407     2.015858674087     1.007825032230
         H           -1.586297504420    -1.244612971593    -0.636772325913     1.007825032230
         H           -0.256806504420    -1.050882971593    -1.816747325913     1.007825032230
         H           -0.033650504420    -2.094117971593    -0.381728325913     1.007825032230
         H           -1.707742504420     1.165756028407    -0.377854325913     1.007825032230
         H           -0.244557504420     2.091931028407     0.067912674087     1.007825032230
         H           -0.378259504420     1.359486028407    -1.557838325913     1.007825032230

  Basis Set: AUG-CC-PVTZ
    Blend: AUG-CC-PVTZ
  Basis Set: (AUG-CC-PVTZ AUX)
    Blend: AUG-CC-PVTZ-JKFIT
	 Reference Energy          =    -212.7511757145098557 [Eh]
	 Singles Energy            =      -0.0000000000000000 [Eh]
	 Same-Spin Energy          =      -0.2173713661659017 [Eh]
	 Opposite-Spin Energy      =      -0.8158695380061631 [Eh]
	 Correlation Energy        =      -1.0332409041720649 [Eh]
	 Total Energy              =    -213.7844166186819166 [Eh]

	 ================> DF-SCS-MP2 Energies <==================
	-----------------------------------------------------------
	 SCS Same-Spin Scale       =       0.3333333333333333 [-]
	 SCS Opposite-Spin Scale   =       1.2000000000000000 [-]
	 SCS Same-Spin Energy      =      -0.0724571220553006 [Eh]
	 SCS Opposite-Spin Energy  =      -0.9790434456073958 [Eh]
	 SCS Correlation Energy    =      -1.0515005676626963 [Eh]
	 SCS Total Energy          =    -213.8026762821725413 [Eh]
	-----------------------------------------------------------

  Dipole Moment: [D]
     X:     0.1563      Y:    -0.1570      Z:     0.1503     Total:     0.2677

*** Psi4 exiting successfully. Buy a developer a beer!
