                               Psi4 1.4a3.dev225

  ==> Input File <==

--------------------------------------------------------------------------
#psi4
#
memory 32 gb

molecule  {
1 1
  N        0.0000000     0.0000000     0.0000000
  C        1.4399211     0.0896052    -0.1587831
  C       -0.3334060    -0.1729460     1.4536780
  C       -0.5167230    -1.1772360    -0.7754760
  C       -0.6393960     1.2574900    -0.5139490
  H        1.8514760     0.9503420     0.4029520
  H        1.9409440    -0.8253370     0.2122260
  H        1.7177820     0.2178920    -1.2227970
  H       -1.4164000    -0.2388150     1.5589270
  H        0.1362470    -1.0883220     1.8139650
  H        0.0467840     0.6873570     2.0047010
  H       -1.5978840    -1.2330590    -0.6479300
  H       -0.2683930    -1.0393290    -1.8279050
  H       -0.0452370    -2.0825640    -0.3928860
  H       -1.7193290     1.1773100    -0.3890120
  H       -0.2561440     2.1034850     0.0567550
  H       -0.3898460     1.3710400    -1.5689960
units angstrom
no_reorient  #important for SAPT in psi4, default
symmetry c1  #important for SAPT in psi4, default
}

set PROPERTIES_ORIGIN ["COM"]
properties('MP2/aug-cc-pvtz', properties = ['dipole'])
--------------------------------------------------------------------------

    Molecular point group: c1
  Charge       = 1
  Multiplicity = 1
  Basis Set: AUG-CC-PVTZ
    Blend: AUG-CC-PVTZ
  Basis Set: (AUG-CC-PVTZ AUX)
    Blend: AUG-CC-PVTZ-JKFIT

    Orbital Energies [Eh]
    ---------------------

    Doubly Occupied:

       1A    -15.872467     2A    -11.455270     3A    -11.455270
       4A    -11.455251     5A    -11.452718     6A     -1.519282
       7A     -1.174608     8A     -1.174608     9A     -1.174066
      10A     -1.022080    11A     -0.874371    12A     -0.872559
      13A     -0.872559    14A     -0.779566    15A     -0.779566
      16A     -0.732646    17A     -0.730635    18A     -0.728757
      19A     -0.728757    20A     -0.713862    21A     -0.713862

  @DF-RHF Final Energy:  -212.76137016604082

   => Energetics <=

    Nuclear Repulsion Energy =            214.8761765164747715
    One-Electron Energy =                -702.7095700925087840
    Two-Electron Energy =                 275.0720234099932213
    Total Energy =                       -212.7613701660408196
  Basis Set: (AUG-CC-PVTZ AUX)
    Blend: AUG-CC-PVTZ-RI
    Molecular point group: c1

    Geometry (in Angstrom), charge = 1, multiplicity = 1:

       Center              X                  Y                   Z               Mass
    ------------   -----------------  -----------------  -----------------  -----------------
         N            0.008033348256     0.000499907052    -0.000885849936    14.003074004430
         C            1.447954448256     0.090105107052    -0.159668949936    12.000000000000
         C           -0.325372651744    -0.172446092948     1.452792150064    12.000000000000
         C           -0.508689651744    -1.176736092948    -0.776361849936    12.000000000000
         C           -0.631362651744     1.257989907052    -0.514834849936    12.000000000000
         H            1.859509348256     0.950841907052     0.402066150064     1.007825032230
         H            1.948977348256    -0.824837092948     0.211340150064     1.007825032230
         H            1.725815348256     0.218391907052    -1.223682849936     1.007825032230
         H           -1.408366651744    -0.238315092948     1.558041150064     1.007825032230
         H            0.144280348256    -1.087822092948     1.813079150064     1.007825032230
         H            0.054817348256     0.687856907052     2.003815150064     1.007825032230
         H           -1.589850651744    -1.232559092948    -0.648815849936     1.007825032230
         H           -0.260359651744    -1.038829092948    -1.828790849936     1.007825032230
         H           -0.037203651744    -2.082064092948    -0.393771849936     1.007825032230
         H           -1.711295651744     1.177809907052    -0.389897849936     1.007825032230
         H           -0.248110651744     2.103984907052     0.055869150064     1.007825032230
         H           -0.381812651744     1.371539907052    -1.569881849936     1.007825032230

  Basis Set: AUG-CC-PVTZ
    Blend: AUG-CC-PVTZ
  Basis Set: (AUG-CC-PVTZ AUX)
    Blend: AUG-CC-PVTZ-JKFIT
	 Reference Energy          =    -212.7613701660408196 [Eh]
	 Singles Energy            =      -0.0000000000000000 [Eh]
	 Same-Spin Energy          =      -0.2172828006716386 [Eh]
	 Opposite-Spin Energy      =      -0.8149445959276408 [Eh]
	 Correlation Energy        =      -1.0322273965992794 [Eh]
	 Total Energy              =    -213.7935975626400875 [Eh]

	 ================> DF-SCS-MP2 Energies <==================
	-----------------------------------------------------------
	 SCS Same-Spin Scale       =       0.3333333333333333 [-]
	 SCS Opposite-Spin Scale   =       1.2000000000000000 [-]
	 SCS Same-Spin Energy      =      -0.0724276002238795 [Eh]
	 SCS Opposite-Spin Energy  =      -0.9779335151131689 [Eh]
	 SCS Correlation Energy    =      -1.0503611153370485 [Eh]
	 SCS Total Energy          =    -213.8117312813778597 [Eh]
	-----------------------------------------------------------

  Dipole Moment: [D]
     X:    -0.0591      Y:    -0.0037      Z:     0.0065     Total:     0.0595

*** Psi4 exiting successfully. Buy a developer a beer!
