                               Psi4 1.4a3.dev225

  ==> Input File <==

--------------------------------------------------------------------------
#psi4
#
memory 32 gb

molecule  {
1 1
  N        0.0000000     0.0000000     0.0000000
  C        1.4895250     0.0926920    -0.1642530
  C       -0.3334060    -0.1729460     1.4536780
  C       -0.5167230    -1.1772360    -0.7754760
  C       -0.6393960     1.2574900    -0.5139490
  H        1.8514760     0.9503420     0.4029520
  H        1.9409440    -0.8253370     0.2122260
  H        1.7177820     0.2178920    -1.2227970
  H       -1.4164000    -0.2388150     1.5589270
  H        0.2224148    -1.2562672     1.8800673
  H        0.0467840     0.6873570     2.0047010
  H       -1.5978840    -1.2330590    -0.6479300
  H       -0.2683930    -1.0393290    -1.8279050
  H       -0.0452370    -2.0825640    -0.3928860
  H       -1.7193290     1.1773100    -0.3890120
  H       -0.2561440     2.1034850     0.0567550
  H       -0.3898460     1.3710400    -1.5689960
units angstrom
no_reorient  #important for SAPT in psi4, default
symmetry c1  #important for SAPT in psi4, default
}

set PROPERTIES_ORIGIN ["COM"]
properties('MP2/aug-cc-pvtz', properties = ['dipole'])
--------------------------------------------------------------------------

    Molecular point group: c1
  Charge       = 1
  Multiplicity = 1
  Basis Set: AUG-CC-PVTZ
    Blend: AUG-CC-PVTZ
  Basis Set: (AUG-CC-PVTZ AUX)
    Blend: AUG-CC-PVTZ-JKFIT

    Orbital Energies [Eh]
    ---------------------

    Doubly Occupied:

       1A    -15.871797     2A    -11.473115     3A    -11.455096
       4A    -11.453567     5A    -11.453554     6A     -1.508496
       7A     -1.172596     8A     -1.171839     9A     -1.160993
      10A     -1.017297    11A     -0.870068    12A     -0.869846
      13A     -0.860176    14A     -0.780754    15A     -0.772951
      16A     -0.732028    17A     -0.731393    18A     -0.724460
      19A     -0.720746    20A     -0.720428    21A     -0.692831

  @DF-RHF Final Energy:  -212.74252687060664

   => Energetics <=

    Nuclear Repulsion Energy =            213.2099652496676754
    One-Electron Energy =                -699.4769233467036429
    Two-Electron Energy =                 273.5244312264293285
    Total Energy =                       -212.7425268706066390
  Basis Set: (AUG-CC-PVTZ AUX)
    Blend: AUG-CC-PVTZ-RI
    Molecular point group: c1

    Geometry (in Angstrom), charge = 1, multiplicity = 1:

       Center              X                  Y                   Z               Mass
    ------------   -----------------  -----------------  -----------------  -----------------
         N           -0.001172005558     0.002284295384    -0.000899086004    14.003074004430
         C            1.488352994442     0.094976295384    -0.165152086004    12.000000000000
         C           -0.334578005558    -0.170661704616     1.452778913996    12.000000000000
         C           -0.517895005558    -1.174951704616    -0.776375086004    12.000000000000
         C           -0.640568005558     1.259774295384    -0.514848086004    12.000000000000
         H            1.850303994442     0.952626295384     0.402052913996     1.007825032230
         H            1.939771994442    -0.823052704616     0.211326913996     1.007825032230
         H            1.716609994442     0.220176295384    -1.223696086004     1.007825032230
         H           -1.417572005558    -0.236530704616     1.558027913996     1.007825032230
         H            0.221242794442    -1.253982904616     1.879168213996     1.007825032230
         H            0.045611994442     0.689641295384     2.003801913996     1.007825032230
         H           -1.599056005558    -1.230774704616    -0.648829086004     1.007825032230
         H           -0.269565005558    -1.037044704616    -1.828804086004     1.007825032230
         H           -0.046409005558    -2.080279704616    -0.393785086004     1.007825032230
         H           -1.720501005558     1.179594295384    -0.389911086004     1.007825032230
         H           -0.257316005558     2.105769295384     0.055855913996     1.007825032230
         H           -0.391018005558     1.373324295384    -1.569895086004     1.007825032230

  Basis Set: AUG-CC-PVTZ
    Blend: AUG-CC-PVTZ
  Basis Set: (AUG-CC-PVTZ AUX)
    Blend: AUG-CC-PVTZ-JKFIT
	 Reference Energy          =    -212.7425268706066390 [Eh]
	 Singles Energy            =      -0.0000000000000000 [Eh]
	 Same-Spin Energy          =      -0.2172032734701889 [Eh]
	 Opposite-Spin Energy      =      -0.8167751924123143 [Eh]
	 Correlation Energy        =      -1.0339784658825031 [Eh]
	 Total Energy              =    -213.7765053364891514 [Eh]

	 ================> DF-SCS-MP2 Energies <==================
	-----------------------------------------------------------
	 SCS Same-Spin Scale       =       0.3333333333333333 [-]
	 SCS Opposite-Spin Scale   =       1.2000000000000000 [-]
	 SCS Same-Spin Energy      =      -0.0724010911567296 [Eh]
	 SCS Opposite-Spin Energy  =      -0.9801302308947771 [Eh]
	 SCS Correlation Energy    =      -1.0525313220515067 [Eh]
	 SCS Total Energy          =    -213.7950581926581322 [Eh]
	-----------------------------------------------------------

  Dipole Moment: [D]
     X:    -0.0062      Y:     0.0107      Z:    -0.0018     Total:     0.0125

*** Psi4 exiting successfully. Buy a developer a beer!
