                               Psi4 1.4a3.dev225

  ==> Input File <==

--------------------------------------------------------------------------
#psi4
#
memory 32 gb

molecule  {
1 1
  N        0.0000000     0.0000000     0.0000000
  C        1.4895250     0.0926920    -0.1642530
  C       -0.3223029    -0.1671866     1.4052678
  C       -0.5167230    -1.1772360    -0.7754760
  C       -0.6393960     1.2574900    -0.5139490
  H        1.8514760     0.9503420     0.4029520
  H        1.9409440    -0.8253370     0.2122260
  H        1.7177820     0.2178920    -1.2227970
  H       -1.4164000    -0.2388150     1.5589270
  H        0.1362470    -1.0883220     1.8139650
  H        0.0467840     0.6873570     2.0047010
  H       -1.5978840    -1.2330590    -0.6479300
  H       -0.2683930    -1.0393290    -1.8279050
  H       -0.0452370    -2.0825640    -0.3928860
  H       -1.7193290     1.1773100    -0.3890120
  H       -0.2561440     2.1034850     0.0567550
  H       -0.3898460     1.3710400    -1.5689960
units angstrom
no_reorient  #important for SAPT in psi4, default
symmetry c1  #important for SAPT in psi4, default
}

set PROPERTIES_ORIGIN ["COM"]
properties('MP2/aug-cc-pvtz', properties = ['dipole'])
--------------------------------------------------------------------------

    Molecular point group: c1
  Charge       = 1
  Multiplicity = 1
  Basis Set: AUG-CC-PVTZ
    Blend: AUG-CC-PVTZ
  Basis Set: (AUG-CC-PVTZ AUX)
    Blend: AUG-CC-PVTZ-JKFIT

    Orbital Energies [Eh]
    ---------------------

    Doubly Occupied:

       1A    -15.872467     2A    -11.455270     3A    -11.455270
       4A    -11.455251     5A    -11.452717     6A     -1.519282
       7A     -1.174608     8A     -1.174608     9A     -1.174066
      10A     -1.022080    11A     -0.874371    12A     -0.872559
      13A     -0.872559    14A     -0.779566    15A     -0.779566
      16A     -0.732646    17A     -0.730636    18A     -0.728757
      19A     -0.728757    20A     -0.713862    21A     -0.713862

  @DF-RHF Final Energy:  -212.76137008235852

   => Energetics <=

    Nuclear Repulsion Energy =            214.8761786275762518
    One-Electron Energy =                -702.7095740162577613
    Two-Electron Energy =                 275.0720253063229848
    Total Energy =                       -212.7613700823585532
  Basis Set: (AUG-CC-PVTZ AUX)
    Blend: AUG-CC-PVTZ-RI
    Molecular point group: c1

    Geometry (in Angstrom), charge = 1, multiplicity = 1:

       Center              X                  Y                   Z               Mass
    ------------   -----------------  -----------------  -----------------  -----------------
         N           -0.001798146295    -0.000932734441     0.007840028622    14.003074004430
         C            1.487726853705     0.091759265559    -0.156412971378    12.000000000000
         C           -0.324101046295    -0.168119334441     1.413107828622    12.000000000000
         C           -0.518521146295    -1.178168734441    -0.767635971378    12.000000000000
         C           -0.641194146295     1.256557265559    -0.506108971378    12.000000000000
         H            1.849677853705     0.949409265559     0.410792028622     1.007825032230
         H            1.939145853705    -0.826269734441     0.220066028622     1.007825032230
         H            1.715983853705     0.216959265559    -1.214956971378     1.007825032230
         H           -1.418198146295    -0.239747734441     1.566767028622     1.007825032230
         H            0.134448853705    -1.089254734441     1.821805028622     1.007825032230
         H            0.044985853705     0.686424265559     2.012541028622     1.007825032230
         H           -1.599682146295    -1.233991734441    -0.640089971378     1.007825032230
         H           -0.270191146295    -1.040261734441    -1.820064971378     1.007825032230
         H           -0.047035146295    -2.083496734441    -0.385045971378     1.007825032230
         H           -1.721127146295     1.176377265559    -0.381171971378     1.007825032230
         H           -0.257942146295     2.102552265559     0.064595028622     1.007825032230
         H           -0.391644146295     1.370107265559    -1.561155971378     1.007825032230

  Basis Set: AUG-CC-PVTZ
    Blend: AUG-CC-PVTZ
  Basis Set: (AUG-CC-PVTZ AUX)
    Blend: AUG-CC-PVTZ-JKFIT
	 Reference Energy          =    -212.7613700823585248 [Eh]
	 Singles Energy            =      -0.0000000000000000 [Eh]
	 Same-Spin Energy          =      -0.2172828020549889 [Eh]
	 Opposite-Spin Energy      =      -0.8149445979840113 [Eh]
	 Correlation Energy        =      -1.0322274000390002 [Eh]
	 Total Energy              =    -213.7935974823975300 [Eh]

	 ================> DF-SCS-MP2 Energies <==================
	-----------------------------------------------------------
	 SCS Same-Spin Scale       =       0.3333333333333333 [-]
	 SCS Opposite-Spin Scale   =       1.2000000000000000 [-]
	 SCS Same-Spin Energy      =      -0.0724276006849963 [Eh]
	 SCS Opposite-Spin Energy  =      -0.9779335175808135 [Eh]
	 SCS Correlation Energy    =      -1.0503611182658097 [Eh]
	 SCS Total Energy          =    -213.8117312006243367 [Eh]
	-----------------------------------------------------------

  Dipole Moment: [D]
     X:     0.0132      Y:     0.0069      Z:    -0.0576     Total:     0.0595

*** Psi4 exiting successfully. Buy a developer a beer!
