                               Psi4 1.4a3.dev225

  ==> Input File <==

--------------------------------------------------------------------------
#psi4
#
memory 32 gb

molecule  {
1 1
  N        0.0000000     0.0000000     0.0000000
  C        1.4895250     0.0926920    -0.1642530
  C       -0.3334060    -0.1729460     1.4536780
  C       -0.5167230    -1.1772360    -0.7754760
  C       -0.6393960     1.2574900    -0.5139490
  H        1.8514760     0.9503420     0.4029520
  H        1.9409440    -0.8253370     0.2122260
  H        1.7177820     0.2178920    -1.2227970
  H       -1.4164000    -0.2388150     1.5589270
  H        0.1362470    -1.0883220     1.8139650
  H        0.0467840     0.6873570     2.0047010
  H       -1.5978840    -1.2330590    -0.6479300
  H       -0.2683930    -1.0393290    -1.8279050
  H        0.0412672    -2.2486657    -0.3226917
  H       -1.7193290     1.1773100    -0.3890120
  H       -0.2561440     2.1034850     0.0567550
  H       -0.3898460     1.3710400    -1.5689960
units angstrom
no_reorient  #important for SAPT in psi4, default
symmetry c1  #important for SAPT in psi4, default
}

set PROPERTIES_ORIGIN ["COM"]
properties('MP2/aug-cc-pvtz', properties = ['dipole'])
--------------------------------------------------------------------------

    Molecular point group: c1
  Charge       = 1
  Multiplicity = 1
  Basis Set: AUG-CC-PVTZ
    Blend: AUG-CC-PVTZ
  Basis Set: (AUG-CC-PVTZ AUX)
    Blend: AUG-CC-PVTZ-JKFIT

    Orbital Energies [Eh]
    ---------------------

    Doubly Occupied:

       1A    -15.871797     2A    -11.473115     3A    -11.455096
       4A    -11.453567     5A    -11.453554     6A     -1.508496
       7A     -1.172596     8A     -1.171839     9A     -1.160993
      10A     -1.017297    11A     -0.870068    12A     -0.869845
      13A     -0.860176    14A     -0.780754    15A     -0.772951
      16A     -0.732028    17A     -0.731393    18A     -0.724460
      19A     -0.720746    20A     -0.720428    21A     -0.692831

  @DF-RHF Final Energy:  -212.74252694499296

   => Energetics <=

    Nuclear Repulsion Energy =            213.2099649516464410
    One-Electron Energy =                -699.4769230214905065
    Two-Electron Energy =                 273.5244311248511053
    Total Energy =                       -212.7425269449929601
  Basis Set: (AUG-CC-PVTZ AUX)
    Blend: AUG-CC-PVTZ-RI
    Molecular point group: c1

    Geometry (in Angstrom), charge = 1, multiplicity = 1:

       Center              X                  Y                   Z               Mass
    ------------   -----------------  -----------------  -----------------  -----------------
         N           -0.001176581080     0.002259221143    -0.000954743068    14.003074004430
         C            1.488348418920     0.094951221143    -0.165207743068    12.000000000000
         C           -0.334582581080    -0.170686778857     1.452723256932    12.000000000000
         C           -0.517899581080    -1.174976778857    -0.776430743068    12.000000000000
         C           -0.640572581080     1.259749221143    -0.514903743068    12.000000000000
         H            1.850299418920     0.952601221143     0.401997256932     1.007825032230
         H            1.939767418920    -0.823077778857     0.211271256932     1.007825032230
         H            1.716605418920     0.220151221143    -1.223751743068     1.007825032230
         H           -1.417576581080    -0.236555778857     1.557972256932     1.007825032230
         H            0.135070418920    -1.086062778857     1.813010256932     1.007825032230
         H            0.045607418920     0.689616221143     2.003746256932     1.007825032230
         H           -1.599060581080    -1.230799778857    -0.648884743068     1.007825032230
         H           -0.269569581080    -1.037069778857    -1.828859743068     1.007825032230
         H            0.040090618920    -2.246406478857    -0.323646443068     1.007825032230
         H           -1.720505581080     1.179569221143    -0.389966743068     1.007825032230
         H           -0.257320581080     2.105744221143     0.055800256932     1.007825032230
         H           -0.391022581080     1.373299221143    -1.569950743068     1.007825032230

  Basis Set: AUG-CC-PVTZ
    Blend: AUG-CC-PVTZ
  Basis Set: (AUG-CC-PVTZ AUX)
    Blend: AUG-CC-PVTZ-JKFIT
	 Reference Energy          =    -212.7425269449929601 [Eh]
	 Singles Energy            =      -0.0000000000000000 [Eh]
	 Same-Spin Energy          =      -0.2172032730628877 [Eh]
	 Opposite-Spin Energy      =      -0.8167751899608374 [Eh]
	 Correlation Energy        =      -1.0339784630237250 [Eh]
	 Total Energy              =    -213.7765054080166749 [Eh]

	 ================> DF-SCS-MP2 Energies <==================
	-----------------------------------------------------------
	 SCS Same-Spin Scale       =       0.3333333333333333 [-]
	 SCS Opposite-Spin Scale   =       1.2000000000000000 [-]
	 SCS Same-Spin Energy      =      -0.0724010910209626 [Eh]
	 SCS Opposite-Spin Energy  =      -0.9801302279530049 [Eh]
	 SCS Correlation Energy    =      -1.0525313189739673 [Eh]
	 SCS Total Energy          =    -213.7950582639669221 [Eh]
	-----------------------------------------------------------

  Dipole Moment: [D]
     X:    -0.0066      Y:     0.0089      Z:    -0.0060     Total:     0.0125

*** Psi4 exiting successfully. Buy a developer a beer!
