                               Psi4 1.4a3.dev225

  ==> Input File <==

--------------------------------------------------------------------------
#psi4
#
memory 32 gb

molecule  {
1 1
  N        0.0000000     0.0000000     0.0000000
  C        1.4895250     0.0926920    -0.1642530
  C       -0.3334060    -0.1729460     1.4536780
  C       -0.5755156    -1.1103630    -0.8307383
  C       -0.6393960     1.2574900    -0.5139490
  H        1.8514760     0.9503420     0.4029520
  H        1.9409440    -0.8253370     0.2122260
  H        1.7177820     0.2178920    -1.2227970
  H       -1.4164000    -0.2388150     1.5589270
  H        0.1362470    -1.0883220     1.8139650
  H        0.0467840     0.6873570     2.0047010
  H       -1.5978840    -1.2330590    -0.6479300
  H       -0.2683930    -1.0393290    -1.8279050
  H       -0.0452370    -2.0825640    -0.3928860
  H       -1.7193290     1.1773100    -0.3890120
  H       -0.2561440     2.1034850     0.0567550
  H       -0.3898460     1.3710400    -1.5689960
units angstrom
no_reorient  #important for SAPT in psi4, default
symmetry c1  #important for SAPT in psi4, default
}

set PROPERTIES_ORIGIN ["COM"]
properties('MP2/aug-cc-pvtz', properties = ['dipole'])
--------------------------------------------------------------------------

    Molecular point group: c1
  Charge       = 1
  Multiplicity = 1
  Basis Set: AUG-CC-PVTZ
    Blend: AUG-CC-PVTZ
  Basis Set: (AUG-CC-PVTZ AUX)
    Blend: AUG-CC-PVTZ-JKFIT

    Orbital Energies [Eh]
    ---------------------

    Doubly Occupied:

       1A    -15.871035     2A    -11.455532     3A    -11.454883
       4A    -11.454869     5A    -11.452872     6A     -1.508909
       7A     -1.177668     8A     -1.172450     9A     -1.167572
      10A     -1.023111    11A     -0.876032    12A     -0.872140
      13A     -0.864317    14A     -0.788673    15A     -0.776185
      16A     -0.746039    17A     -0.731666    18A     -0.726482
      19A     -0.724665    20A     -0.723010    21A     -0.693119

  @DF-RHF Final Energy:  -212.75174097174332

   => Energetics <=

    Nuclear Repulsion Energy =            214.0138700950398913
    One-Electron Energy =                -701.0087639755392956
    Two-Electron Energy =                 274.2431529087560875
    Total Energy =                       -212.7517409717432884
  Basis Set: (AUG-CC-PVTZ AUX)
    Blend: AUG-CC-PVTZ-RI
    Molecular point group: c1

    Geometry (in Angstrom), charge = 1, multiplicity = 1:

       Center              X                  Y                   Z               Mass
    ------------   -----------------  -----------------  -----------------  -----------------
         N            0.009521457601    -0.010830077835     0.008949725754    14.003074004430
         C            1.499046457601     0.081861922165    -0.155303274246    12.000000000000
         C           -0.323884542399    -0.183776077835     1.462627725754    12.000000000000
         C           -0.565994142399    -1.121193077835    -0.821788574246    12.000000000000
         C           -0.629874542399     1.246659922165    -0.504999274246    12.000000000000
         H            1.860997457601     0.939511922165     0.411901725754     1.007825032230
         H            1.950465457601    -0.836167077835     0.221175725754     1.007825032230
         H            1.727303457601     0.207061922165    -1.213847274246     1.007825032230
         H           -1.406878542399    -0.249645077835     1.567876725754     1.007825032230
         H            0.145768457601    -1.099152077835     1.822914725754     1.007825032230
         H            0.056305457601     0.676526922165     2.013650725754     1.007825032230
         H           -1.588362542399    -1.243889077835    -0.638980274246     1.007825032230
         H           -0.258871542399    -1.050159077835    -1.818955274246     1.007825032230
         H           -0.035715542399    -2.093394077835    -0.383936274246     1.007825032230
         H           -1.709807542399     1.166479922165    -0.380062274246     1.007825032230
         H           -0.246622542399     2.092654922165     0.065704725754     1.007825032230
         H           -0.380324542399     1.360209922165    -1.560046274246     1.007825032230

  Basis Set: AUG-CC-PVTZ
    Blend: AUG-CC-PVTZ
  Basis Set: (AUG-CC-PVTZ AUX)
    Blend: AUG-CC-PVTZ-JKFIT
	 Reference Energy          =    -212.7517409717433168 [Eh]
	 Singles Energy            =      -0.0000000000000000 [Eh]
	 Same-Spin Energy          =      -0.2171021996628373 [Eh]
	 Opposite-Spin Energy      =      -0.8154991281909050 [Eh]
	 Correlation Energy        =      -1.0326013278537423 [Eh]
	 Total Energy              =    -213.7843422995970570 [Eh]

	 ================> DF-SCS-MP2 Energies <==================
	-----------------------------------------------------------
	 SCS Same-Spin Scale       =       0.3333333333333333 [-]
	 SCS Opposite-Spin Scale   =       1.2000000000000000 [-]
	 SCS Same-Spin Energy      =      -0.0723673998876124 [Eh]
	 SCS Opposite-Spin Energy  =      -0.9785989538290859 [Eh]
	 SCS Correlation Energy    =      -1.0509663537166984 [Eh]
	 SCS Total Energy          =    -213.8027073254600054 [Eh]
	-----------------------------------------------------------

  Dipole Moment: [D]
     X:     0.0283      Y:    -0.0098      Z:     0.0303     Total:     0.0426

*** Psi4 exiting successfully. Buy a developer a beer!
