                               Psi4 1.4a3.dev225

  ==> Input File <==

--------------------------------------------------------------------------
#psi4
#
memory 32 gb

molecule  {
1 1
  N       -0.0303586     0.0313050    -0.0290656
  C        1.4895250     0.0926920    -0.1642530
  C       -0.3334060    -0.1729460     1.4536780
  C       -0.5167230    -1.1772360    -0.7754760
  C       -0.6393960     1.2574900    -0.5139490
  H        1.8514760     0.9503420     0.4029520
  H        1.9409440    -0.8253370     0.2122260
  H        1.7177820     0.2178920    -1.2227970
  H       -1.4164000    -0.2388150     1.5589270
  H        0.1362470    -1.0883220     1.8139650
  H        0.0467840     0.6873570     2.0047010
  H       -1.5978840    -1.2330590    -0.6479300
  H       -0.2683930    -1.0393290    -1.8279050
  H       -0.0452370    -2.0825640    -0.3928860
  H       -1.7193290     1.1773100    -0.3890120
  H       -0.2561440     2.1034850     0.0567550
  H       -0.3898460     1.3710400    -1.5689960
units angstrom
no_reorient  #important for SAPT in psi4, default
symmetry c1  #important for SAPT in psi4, default
}

set PROPERTIES_ORIGIN ["COM"]
properties('MP2/aug-cc-pvtz', properties = ['dipole'])
--------------------------------------------------------------------------

    Molecular point group: c1
  Charge       = 1
  Multiplicity = 1
  Basis Set: AUG-CC-PVTZ
    Blend: AUG-CC-PVTZ
  Basis Set: (AUG-CC-PVTZ AUX)
    Blend: AUG-CC-PVTZ-JKFIT

    Orbital Energies [Eh]
    ---------------------

    Doubly Occupied:

       1A    -15.870122     2A    -11.456159     3A    -11.456147
       4A    -11.454004     5A    -11.449628     6A     -1.508976
       7A     -1.179484     8A     -1.170127     9A     -1.166985
      10A     -1.021540    11A     -0.871453    12A     -0.870356
      13A     -0.867153    14A     -0.780777    15A     -0.780553
      16A     -0.736183    17A     -0.731517    18A     -0.731482
      19A     -0.731447    20A     -0.714429    21A     -0.706875

  @DF-RHF Final Energy:  -212.76065290965113

   => Energetics <=

    Nuclear Repulsion Energy =            213.9891929539848832
    One-Electron Energy =                -700.9889001686432266
    Two-Electron Energy =                 274.2390543050071869
    Total Energy =                       -212.7606529096511281
  Basis Set: (AUG-CC-PVTZ AUX)
    Blend: AUG-CC-PVTZ-RI
    Molecular point group: c1

    Geometry (in Angstrom), charge = 1, multiplicity = 1:

       Center              X                  Y                   Z               Mass
    ------------   -----------------  -----------------  -----------------  -----------------
         N           -0.024621338446     0.025388884864    -0.023572693560    14.003074004430
         C            1.495262261554     0.086775884864    -0.158760093560    12.000000000000
         C           -0.327668738446    -0.178862115136     1.459170906440    12.000000000000
         C           -0.510985738446    -1.183152115136    -0.769983093560    12.000000000000
         C           -0.633658738446     1.251573884864    -0.508456093560    12.000000000000
         H            1.857213261554     0.944425884864     0.408444906440     1.007825032230
         H            1.946681261554    -0.831253115136     0.217718906440     1.007825032230
         H            1.723519261554     0.211975884864    -1.217304093560     1.007825032230
         H           -1.410662738446    -0.244731115136     1.564419906440     1.007825032230
         H            0.141984261554    -1.094238115136     1.819457906440     1.007825032230
         H            0.052521261554     0.681440884864     2.010193906440     1.007825032230
         H           -1.592146738446    -1.238975115136    -0.642437093560     1.007825032230
         H           -0.262655738446    -1.045245115136    -1.822412093560     1.007825032230
         H           -0.039499738446    -2.088480115136    -0.387393093560     1.007825032230
         H           -1.713591738446     1.171393884864    -0.383519093560     1.007825032230
         H           -0.250406738446     2.097568884864     0.062247906440     1.007825032230
         H           -0.384108738446     1.365123884864    -1.563503093560     1.007825032230

  Basis Set: AUG-CC-PVTZ
    Blend: AUG-CC-PVTZ
  Basis Set: (AUG-CC-PVTZ AUX)
    Blend: AUG-CC-PVTZ-JKFIT
	 Reference Energy          =    -212.7606529096511281 [Eh]
	 Singles Energy            =      -0.0000000000000000 [Eh]
	 Same-Spin Energy          =      -0.2169767501397957 [Eh]
	 Opposite-Spin Energy      =      -0.8150716162331275 [Eh]
	 Correlation Energy        =      -1.0320483663729232 [Eh]
	 Total Energy              =    -213.7927012760240473 [Eh]

	 ================> DF-SCS-MP2 Energies <==================
	-----------------------------------------------------------
	 SCS Same-Spin Scale       =       0.3333333333333333 [-]
	 SCS Opposite-Spin Scale   =       1.2000000000000000 [-]
	 SCS Same-Spin Energy      =      -0.0723255833799319 [Eh]
	 SCS Opposite-Spin Energy  =      -0.9780859394797530 [Eh]
	 SCS Correlation Energy    =      -1.0504115228596849 [Eh]
	 SCS Total Energy          =    -213.8110644325108183 [Eh]
	-----------------------------------------------------------

  Dipole Moment: [D]
     X:     0.0782      Y:    -0.0809      Z:     0.0748     Total:     0.1351

*** Psi4 exiting successfully. Buy a developer a beer!
