                               Psi4 1.4a3.dev225

  ==> Input File <==

--------------------------------------------------------------------------
#psi4
#
memory 32 gb

molecule  {
1 1
  N        0.0000000     0.0000000     0.0000000
  C        1.4895250     0.0926920    -0.1642530
  C       -0.3334060    -0.1729460     1.4536780
  C       -0.5167230    -1.1772360    -0.7754760
  C       -0.6393960     1.2574900    -0.5139490
  H        1.8514760     0.9503420     0.4029520
  H        1.9112887    -0.8088387     0.2803260
  H        1.7177820     0.2178920    -1.2227970
  H       -1.4164000    -0.2388150     1.5589270
  H        0.1362470    -1.0883220     1.8139650
  H        0.0467840     0.6873570     2.0047010
  H       -1.5978840    -1.2330590    -0.6479300
  H       -0.2683930    -1.0393290    -1.8279050
  H       -0.0452370    -2.0825640    -0.3928860
  H       -1.7193290     1.1773100    -0.3890120
  H       -0.2561440     2.1034850     0.0567550
  H       -0.3898460     1.3710400    -1.5689960
units angstrom
no_reorient  #important for SAPT in psi4, default
symmetry c1  #important for SAPT in psi4, default
}

set PROPERTIES_ORIGIN ["COM"]
properties('MP2/aug-cc-pvtz', properties = ['dipole'])
--------------------------------------------------------------------------

    Molecular point group: c1
  Charge       = 1
  Multiplicity = 1
  Basis Set: AUG-CC-PVTZ
    Blend: AUG-CC-PVTZ
  Basis Set: (AUG-CC-PVTZ AUX)
    Blend: AUG-CC-PVTZ-JKFIT

    Orbital Energies [Eh]
    ---------------------

    Doubly Occupied:

       1A    -15.869876     2A    -11.454321     3A    -11.454121
       4A    -11.453791     5A    -11.453684     6A     -1.508411
       7A     -1.172739     8A     -1.171993     9A     -1.171833
      10A     -1.021466    11A     -0.870944    12A     -0.869559
      13A     -0.867685    14A     -0.782867    15A     -0.778914
      16A     -0.734412    17A     -0.731440    18A     -0.729491
      19A     -0.721004    20A     -0.719865    21A     -0.717659

  @DF-RHF Final Energy:  -212.76307565468136

   => Energetics <=

    Nuclear Repulsion Energy =            214.0508389795888604
    One-Electron Energy =                -701.1156786501800298
    Two-Electron Energy =                 274.3017640159097823
    Total Energy =                       -212.7630756546813586
  Basis Set: (AUG-CC-PVTZ AUX)
    Blend: AUG-CC-PVTZ-RI
    Molecular point group: c1

    Geometry (in Angstrom), charge = 1, multiplicity = 1:

       Center              X                  Y                   Z               Mass
    ------------   -----------------  -----------------  -----------------  -----------------
         N            0.000403354576    -0.000224400522    -0.000926257587    14.003074004430
         C            1.489928354576     0.092467599478    -0.165179257587    12.000000000000
         C           -0.333002645424    -0.173170400522     1.452751742413    12.000000000000
         C           -0.516319645424    -1.177460400522    -0.776402257587    12.000000000000
         C           -0.638992645424     1.257265599478    -0.514875257587    12.000000000000
         H            1.851879354576     0.950117599478     0.402025742413     1.007825032230
         H            1.911692054576    -0.809063100522     0.279399742413     1.007825032230
         H            1.718185354576     0.217667599478    -1.223723257587     1.007825032230
         H           -1.415996645424    -0.239039400522     1.558000742413     1.007825032230
         H            0.136650354576    -1.088546400522     1.813038742413     1.007825032230
         H            0.047187354576     0.687132599478     2.003774742413     1.007825032230
         H           -1.597480645424    -1.233283400522    -0.648856257587     1.007825032230
         H           -0.267989645424    -1.039553400522    -1.828831257587     1.007825032230
         H           -0.044833645424    -2.082788400522    -0.393812257587     1.007825032230
         H           -1.718925645424     1.177085599478    -0.389938257587     1.007825032230
         H           -0.255740645424     2.103260599478     0.055828742413     1.007825032230
         H           -0.389442645424     1.370815599478    -1.569922257587     1.007825032230

  Basis Set: AUG-CC-PVTZ
    Blend: AUG-CC-PVTZ
  Basis Set: (AUG-CC-PVTZ AUX)
    Blend: AUG-CC-PVTZ-JKFIT
	 Reference Energy          =    -212.7630756546813586 [Eh]
	 Singles Energy            =      -0.0000000000000000 [Eh]
	 Same-Spin Energy          =      -0.2169111177977863 [Eh]
	 Opposite-Spin Energy      =      -0.8149224420999697 [Eh]
	 Correlation Energy        =      -1.0318335598977559 [Eh]
	 Total Energy              =    -213.7949092145791212 [Eh]

	 ================> DF-SCS-MP2 Energies <==================
	-----------------------------------------------------------
	 SCS Same-Spin Scale       =       0.3333333333333333 [-]
	 SCS Opposite-Spin Scale   =       1.2000000000000000 [-]
	 SCS Same-Spin Energy      =      -0.0723037059325954 [Eh]
	 SCS Opposite-Spin Energy  =      -0.9779069305199636 [Eh]
	 SCS Correlation Energy    =      -1.0502106364525590 [Eh]
	 SCS Total Energy          =    -213.8132862911339203 [Eh]
	-----------------------------------------------------------

  Dipole Moment: [D]
     X:    -0.0065      Y:     0.0170      Z:     0.0224     Total:     0.0289

*** Psi4 exiting successfully. Buy a developer a beer!
