                               Psi4 1.4a3.dev225

  ==> Input File <==

--------------------------------------------------------------------------
#psi4
#
memory 32 gb

molecule  {
1 1
  N       -0.0076821     0.1433500    -0.0639521
  C        1.4895250     0.0926920    -0.1642530
  C       -0.3334060    -0.1729460     1.4536780
  C       -0.5167230    -1.1772360    -0.7754760
  C       -0.6393960     1.2574900    -0.5139490
  H        1.8514760     0.9503420     0.4029520
  H        1.9409440    -0.8253370     0.2122260
  H        1.7177820     0.2178920    -1.2227970
  H       -1.4164000    -0.2388150     1.5589270
  H        0.1362470    -1.0883220     1.8139650
  H        0.0467840     0.6873570     2.0047010
  H       -1.5978840    -1.2330590    -0.6479300
  H       -0.2683930    -1.0393290    -1.8279050
  H       -0.0452370    -2.0825640    -0.3928860
  H       -1.7193290     1.1773100    -0.3890120
  H       -0.2561440     2.1034850     0.0567550
  H       -0.3898460     1.3710400    -1.5689960
units angstrom
no_reorient  #important for SAPT in psi4, default
symmetry c1  #important for SAPT in psi4, default
}

set PROPERTIES_ORIGIN ["COM"]
properties('MP2/aug-cc-pvtz', properties = ['dipole'])
--------------------------------------------------------------------------

    Molecular point group: c1
  Charge       = 1
  Multiplicity = 1
  Basis Set: AUG-CC-PVTZ
    Blend: AUG-CC-PVTZ
  Basis Set: (AUG-CC-PVTZ AUX)
    Blend: AUG-CC-PVTZ-JKFIT

    Orbital Energies [Eh]
    ---------------------

    Doubly Occupied:

       1A    -15.867656     2A    -11.461110     3A    -11.461100
       4A    -11.454755     5A    -11.441006     6A     -1.514700
       7A     -1.195489     8A     -1.166184     9A     -1.157735
      10A     -1.018806    11A     -0.877168    12A     -0.873967
      13A     -0.863589    14A     -0.783139    15A     -0.781309
      16A     -0.764820    17A     -0.732536    18A     -0.732213
      19A     -0.731748    20A     -0.698243    21A     -0.677542

  @DF-RHF Final Energy:  -212.73479599467711

   => Energetics <=

    Nuclear Repulsion Energy =            214.0129785463161340
    One-Electron Energy =                -700.9859209745686712
    Two-Electron Energy =                 274.2381464335753662
    Total Energy =                       -212.7347959946771425
  Basis Set: (AUG-CC-PVTZ AUX)
    Blend: AUG-CC-PVTZ-RI
    Molecular point group: c1

    Geometry (in Angstrom), charge = 1, multiplicity = 1:

       Center              X                  Y                   Z               Mass
    ------------   -----------------  -----------------  -----------------  -----------------
         N           -0.006230313126     0.116259276323    -0.051866235545    14.003074004430
         C            1.490976786874     0.065601276323    -0.152167135545    12.000000000000
         C           -0.331954213126    -0.200036723677     1.465763864455    12.000000000000
         C           -0.515271213126    -1.204326723677    -0.763390135545    12.000000000000
         C           -0.637944213126     1.230399276323    -0.501863135545    12.000000000000
         H            1.852927786874     0.923251276323     0.415037864455     1.007825032230
         H            1.942395786874    -0.852427723677     0.224311864455     1.007825032230
         H            1.719233786874     0.190801276323    -1.210711135545     1.007825032230
         H           -1.414948213126    -0.265905723677     1.571012864455     1.007825032230
         H            0.137698786874    -1.115412723677     1.826050864455     1.007825032230
         H            0.048235786874     0.660266276323     2.016786864455     1.007825032230
         H           -1.596432213126    -1.260149723677    -0.635844135545     1.007825032230
         H           -0.266941213126    -1.066419723677    -1.815819135545     1.007825032230
         H           -0.043785213126    -2.109654723677    -0.380800135545     1.007825032230
         H           -1.717877213126     1.150219276323    -0.376926135545     1.007825032230
         H           -0.254692213126     2.076394276323     0.068840864455     1.007825032230
         H           -0.388394213126     1.343949276323    -1.556910135545     1.007825032230

  Basis Set: AUG-CC-PVTZ
    Blend: AUG-CC-PVTZ
  Basis Set: (AUG-CC-PVTZ AUX)
    Blend: AUG-CC-PVTZ-JKFIT
	 Reference Energy          =    -212.7347959946771141 [Eh]
	 Singles Energy            =      -0.0000000000000000 [Eh]
	 Same-Spin Energy          =      -0.2180459246289017 [Eh]
	 Opposite-Spin Energy      =      -0.8172028683611227 [Eh]
	 Correlation Energy        =      -1.0352487929900245 [Eh]
	 Total Energy              =    -213.7700447876671319 [Eh]

	 ================> DF-SCS-MP2 Energies <==================
	-----------------------------------------------------------
	 SCS Same-Spin Scale       =       0.3333333333333333 [-]
	 SCS Opposite-Spin Scale   =       1.2000000000000000 [-]
	 SCS Same-Spin Energy      =      -0.0726819748763006 [Eh]
	 SCS Opposite-Spin Energy  =      -0.9806434420333472 [Eh]
	 SCS Correlation Energy    =      -1.0533254169096478 [Eh]
	 SCS Total Energy          =    -213.7881214115867579 [Eh]
	-----------------------------------------------------------

  Dipole Moment: [D]
     X:     0.0219      Y:    -0.3597      Z:     0.1603     Total:     0.3944

*** Psi4 exiting successfully. Buy a developer a beer!
