                               Psi4 1.4a3.dev225

  ==> Input File <==

--------------------------------------------------------------------------
#psi4
#
memory 32 gb

molecule  {
1 1
  N        0.0000000     0.0000000     0.0000000
  C        1.4895250     0.0926920    -0.1642530
  C       -0.3334060    -0.1729460     1.4536780
  C       -0.5316686    -1.1610432    -0.7896566
  C       -0.6393960     1.2574900    -0.5139490
  H        1.8514760     0.9503420     0.4029520
  H        1.9409440    -0.8253370     0.2122260
  H        1.7177820     0.2178920    -1.2227970
  H       -1.4164000    -0.2388150     1.5589270
  H        0.1362470    -1.0883220     1.8139650
  H        0.0467840     0.6873570     2.0047010
  H       -1.5978840    -1.2330590    -0.6479300
  H       -0.2683930    -1.0393290    -1.8279050
  H       -0.0452370    -2.0825640    -0.3928860
  H       -1.7193290     1.1773100    -0.3890120
  H       -0.2561440     2.1034850     0.0567550
  H       -0.3898460     1.3710400    -1.5689960
units angstrom
no_reorient  #important for SAPT in psi4, default
symmetry c1  #important for SAPT in psi4, default
}

set PROPERTIES_ORIGIN ["COM"]
properties('MP2/aug-cc-pvtz', properties = ['dipole'])
--------------------------------------------------------------------------

    Molecular point group: c1
  Charge       = 1
  Multiplicity = 1
  Basis Set: AUG-CC-PVTZ
    Blend: AUG-CC-PVTZ
  Basis Set: (AUG-CC-PVTZ AUX)
    Blend: AUG-CC-PVTZ-JKFIT

    Orbital Energies [Eh]
    ---------------------

    Doubly Occupied:

       1A    -15.870451     2A    -11.454128     3A    -11.454115
       4A    -11.454015     5A    -11.453563     6A     -1.508403
       7A     -1.173380     8A     -1.172110     9A     -1.170793
      10A     -1.021968    11A     -0.870837    12A     -0.870046
      13A     -0.867729    14A     -0.782035    15A     -0.779056
      16A     -0.735260    17A     -0.731421    18A     -0.728614
      19A     -0.721388    20A     -0.721247    21A     -0.715327

  @DF-RHF Final Energy:  -212.76289377114622

   => Energetics <=

    Nuclear Repulsion Energy =            213.9899940164171426
    One-Electron Energy =                -700.9940080537310223
    Two-Electron Energy =                 274.2411202661676271
    Total Energy =                       -212.7628937711462527
  Basis Set: (AUG-CC-PVTZ AUX)
    Blend: AUG-CC-PVTZ-RI
    Molecular point group: c1

    Geometry (in Angstrom), charge = 1, multiplicity = 1:

       Center              X                  Y                   Z               Mass
    ------------   -----------------  -----------------  -----------------  -----------------
         N            0.002420438911    -0.002622422867     0.002296547213    14.003074004430
         C            1.491945438911     0.090069577133    -0.161956452787    12.000000000000
         C           -0.330985561089    -0.175568422867     1.455974547213    12.000000000000
         C           -0.529248161089    -1.163665622867    -0.787360052787    12.000000000000
         C           -0.636975561089     1.254867577133    -0.511652452787    12.000000000000
         H            1.853896438911     0.947719577133     0.405248547213     1.007825032230
         H            1.943364438911    -0.827959422867     0.214522547213     1.007825032230
         H            1.720202438911     0.215269577133    -1.220500452787     1.007825032230
         H           -1.413979561089    -0.241437422867     1.561223547213     1.007825032230
         H            0.138667438911    -1.090944422867     1.816261547213     1.007825032230
         H            0.049204438911     0.684734577133     2.006997547213     1.007825032230
         H           -1.595463561089    -1.235681422867    -0.645633452787     1.007825032230
         H           -0.265972561089    -1.041951422867    -1.825608452787     1.007825032230
         H           -0.042816561089    -2.085186422867    -0.390589452787     1.007825032230
         H           -1.716908561089     1.174687577133    -0.386715452787     1.007825032230
         H           -0.253723561089     2.100862577133     0.059051547213     1.007825032230
         H           -0.387425561089     1.368417577133    -1.566699452787     1.007825032230

  Basis Set: AUG-CC-PVTZ
    Blend: AUG-CC-PVTZ
  Basis Set: (AUG-CC-PVTZ AUX)
    Blend: AUG-CC-PVTZ-JKFIT
	 Reference Energy          =    -212.7628937711462243 [Eh]
	 Singles Energy            =      -0.0000000000000000 [Eh]
	 Same-Spin Energy          =      -0.2168642529154259 [Eh]
	 Opposite-Spin Energy      =      -0.8148516646854244 [Eh]
	 Correlation Energy        =      -1.0317159176008501 [Eh]
	 Total Energy              =    -213.7946096887470731 [Eh]

	 ================> DF-SCS-MP2 Energies <==================
	-----------------------------------------------------------
	 SCS Same-Spin Scale       =       0.3333333333333333 [-]
	 SCS Opposite-Spin Scale   =       1.2000000000000000 [-]
	 SCS Same-Spin Energy      =      -0.0722880843051419 [Eh]
	 SCS Opposite-Spin Energy  =      -0.9778219976225092 [Eh]
	 SCS Correlation Energy    =      -1.0501100819276512 [Eh]
	 SCS Total Energy          =    -213.8130038530738659 [Eh]
	-----------------------------------------------------------

  Dipole Moment: [D]
     X:     0.0071      Y:    -0.0062      Z:     0.0070     Total:     0.0117

*** Psi4 exiting successfully. Buy a developer a beer!
