                               Psi4 1.4a3.dev225

  ==> Input File <==

--------------------------------------------------------------------------
#psi4
#
memory 32 gb

molecule  {
1 1
  N        0.0000000     0.0000000     0.0000000
  C        1.4895250     0.0926920    -0.1642530
  C       -0.3334060    -0.1729460     1.4536780
  C       -0.5167230    -1.1772360    -0.7754760
  C       -0.6393960     1.2574900    -0.5139490
  H        1.8514760     0.9503420     0.4029520
  H        1.9409440    -0.8253370     0.2122260
  H        1.7177820     0.2178920    -1.2227970
  H       -1.4164000    -0.2388150     1.5589270
  H        0.1276302    -1.0715275     1.8073548
  H        0.0467840     0.6873570     2.0047010
  H       -1.5978840    -1.2330590    -0.6479300
  H       -0.2683930    -1.0393290    -1.8279050
  H       -0.0452370    -2.0825640    -0.3928860
  H       -1.7193290     1.1773100    -0.3890120
  H       -0.2561440     2.1034850     0.0567550
  H       -0.3898460     1.3710400    -1.5689960
units angstrom
no_reorient  #important for SAPT in psi4, default
symmetry c1  #important for SAPT in psi4, default
}

set PROPERTIES_ORIGIN ["COM"]
properties('MP2/aug-cc-pvtz', properties = ['dipole'])
--------------------------------------------------------------------------

    Molecular point group: c1
  Charge       = 1
  Multiplicity = 1
  Basis Set: AUG-CC-PVTZ
    Blend: AUG-CC-PVTZ
  Basis Set: (AUG-CC-PVTZ AUX)
    Blend: AUG-CC-PVTZ-JKFIT

    Orbital Energies [Eh]
    ---------------------

    Doubly Occupied:

       1A    -15.870305     2A    -11.453963     3A    -11.453950
       4A    -11.453826     5A    -11.451795     6A     -1.508409
       7A     -1.173730     8A     -1.172090     9A     -1.172022
      10A     -1.022514    11A     -0.870799    12A     -0.869423
      13A     -0.869405    14A     -0.781634    15A     -0.780413
      16A     -0.733354    17A     -0.731416    18A     -0.731376
      19A     -0.720578    20A     -0.719841    21A     -0.719816

  @DF-RHF Final Energy:  -212.76376511299583

   => Energetics <=

    Nuclear Repulsion Energy =            214.0760622381700955
    One-Electron Energy =                -701.1583375549837456
    Two-Electron Energy =                 274.3185102038178229
    Total Energy =                       -212.7637651129958272
  Basis Set: (AUG-CC-PVTZ AUX)
    Blend: AUG-CC-PVTZ-RI
    Molecular point group: c1

    Geometry (in Angstrom), charge = 1, multiplicity = 1:

       Center              X                  Y                   Z               Mass
    ------------   -----------------  -----------------  -----------------  -----------------
         N            0.000117200828    -0.000228429266     0.000089908192    14.003074004430
         C            1.489642200828     0.092463570734    -0.164163091808    12.000000000000
         C           -0.333288799172    -0.173174429266     1.453767908192    12.000000000000
         C           -0.516605799172    -1.177464429266    -0.775386091808    12.000000000000
         C           -0.639278799172     1.257261570734    -0.513859091808    12.000000000000
         H            1.851593200828     0.950113570734     0.403041908192     1.007825032230
         H            1.941061200828    -0.825565429266     0.212315908192     1.007825032230
         H            1.717899200828     0.217663570734    -1.222707091808     1.007825032230
         H           -1.416282799172    -0.239043429266     1.559016908192     1.007825032230
         H            0.127747400828    -1.071755929266     1.807444708192     1.007825032230
         H            0.046901200828     0.687128570734     2.004790908192     1.007825032230
         H           -1.597766799172    -1.233287429266    -0.647840091808     1.007825032230
         H           -0.268275799172    -1.039557429266    -1.827815091808     1.007825032230
         H           -0.045119799172    -2.082792429266    -0.392796091808     1.007825032230
         H           -1.719211799172     1.177081570734    -0.388922091808     1.007825032230
         H           -0.256026799172     2.103256570734     0.056844908192     1.007825032230
         H           -0.389728799172     1.370811570734    -1.568906091808     1.007825032230

  Basis Set: AUG-CC-PVTZ
    Blend: AUG-CC-PVTZ
  Basis Set: (AUG-CC-PVTZ AUX)
    Blend: AUG-CC-PVTZ-JKFIT
	 Reference Energy          =    -212.7637651129958272 [Eh]
	 Singles Energy            =      -0.0000000000000000 [Eh]
	 Same-Spin Energy          =      -0.2168202617122415 [Eh]
	 Opposite-Spin Energy      =      -0.8146607570113397 [Eh]
	 Correlation Energy        =      -1.0314810187235812 [Eh]
	 Total Energy              =    -213.7952461317194093 [Eh]

	 ================> DF-SCS-MP2 Energies <==================
	-----------------------------------------------------------
	 SCS Same-Spin Scale       =       0.3333333333333333 [-]
	 SCS Opposite-Spin Scale   =       1.2000000000000000 [-]
	 SCS Same-Spin Energy      =      -0.0722734205707472 [Eh]
	 SCS Opposite-Spin Energy  =      -0.9775929084136076 [Eh]
	 SCS Correlation Energy    =      -1.0498663289843548 [Eh]
	 SCS Total Energy          =    -213.8136314419801920 [Eh]
	-----------------------------------------------------------

  Dipole Moment: [D]
     X:     0.0005      Y:    -0.0005      Z:    -0.0005     Total:     0.0008

*** Psi4 exiting successfully. Buy a developer a beer!
