                               Psi4 1.4a3.dev225

  ==> Input File <==

--------------------------------------------------------------------------
#psi4
#
memory 32 gb

molecule  {
1 1
  N        0.0000000     0.0000000     0.0000000
  C        1.5887329     0.0988656    -0.1751929
  C       -0.3334060    -0.1729460     1.4536780
  C       -0.5167230    -1.1772360    -0.7754760
  C       -0.6393960     1.2574900    -0.5139490
  H        1.8514760     0.9503420     0.4029520
  H        1.9409440    -0.8253370     0.2122260
  H        1.7177820     0.2178920    -1.2227970
  H       -1.4164000    -0.2388150     1.5589270
  H        0.1362470    -1.0883220     1.8139650
  H        0.0467840     0.6873570     2.0047010
  H       -1.5978840    -1.2330590    -0.6479300
  H       -0.2683930    -1.0393290    -1.8279050
  H       -0.0452370    -2.0825640    -0.3928860
  H       -1.7193290     1.1773100    -0.3890120
  H       -0.2561440     2.1034850     0.0567550
  H       -0.3898460     1.3710400    -1.5689960
units angstrom
no_reorient  #important for SAPT in psi4, default
symmetry c1  #important for SAPT in psi4, default
}

set PROPERTIES_ORIGIN ["COM"]
properties('MP2/aug-cc-pvtz', properties = ['dipole'])
--------------------------------------------------------------------------

    Molecular point group: c1
  Charge       = 1
  Multiplicity = 1
  Basis Set: AUG-CC-PVTZ
    Blend: AUG-CC-PVTZ
  Basis Set: (AUG-CC-PVTZ AUX)
    Blend: AUG-CC-PVTZ-JKFIT

    Orbital Energies [Eh]
    ---------------------

    Doubly Occupied:

       1A    -15.864156     2A    -11.459155     3A    -11.450964
       4A    -11.450964     5A    -11.450943     6A     -1.489907
       7A     -1.171211     8A     -1.167023     9A     -1.167023
      10A     -1.019955    11A     -0.864353    12A     -0.864353
      13A     -0.860353    14A     -0.786046    15A     -0.786046
      16A     -0.742886    17A     -0.742885    18A     -0.728694
      19A     -0.718631    20A     -0.718631    21A     -0.696116

  @DF-RHF Final Energy:  -212.75652063929252

   => Energetics <=

    Nuclear Repulsion Energy =            212.3002880776685402
    One-Electron Energy =                -697.7130290488946684
    Two-Electron Energy =                 272.6562203319335822
    Total Energy =                       -212.7565206392925461
  Basis Set: (AUG-CC-PVTZ AUX)
    Blend: AUG-CC-PVTZ-RI
    Molecular point group: c1

    Geometry (in Angstrom), charge = 1, multiplicity = 1:

       Center              X                  Y                   Z               Mass
    ------------   -----------------  -----------------  -----------------  -----------------
         N           -0.016066712707    -0.000999814103     0.001771716066    14.003074004430
         C            1.572666187293     0.097865785897    -0.173421183934    12.000000000000
         C           -0.349472712707    -0.173945814103     1.455449716066    12.000000000000
         C           -0.532789712707    -1.178235814103    -0.773704283934    12.000000000000
         C           -0.655462712707     1.256490185897    -0.512177283934    12.000000000000
         H            1.835409287293     0.949342185897     0.404723716066     1.007825032230
         H            1.924877287293    -0.826336814103     0.213997716066     1.007825032230
         H            1.701715287293     0.216892185897    -1.221025283934     1.007825032230
         H           -1.432466712707    -0.239814814103     1.560698716066     1.007825032230
         H            0.120180287293    -1.089321814103     1.815736716066     1.007825032230
         H            0.030717287293     0.686357185897     2.006472716066     1.007825032230
         H           -1.613950712707    -1.234058814103    -0.646158283934     1.007825032230
         H           -0.284459712707    -1.040328814103    -1.826133283934     1.007825032230
         H           -0.061303712707    -2.083563814103    -0.391114283934     1.007825032230
         H           -1.735395712707     1.176310185897    -0.387240283934     1.007825032230
         H           -0.272210712707     2.102485185897     0.058526716066     1.007825032230
         H           -0.405912712707     1.370040185897    -1.567224283934     1.007825032230

  Basis Set: AUG-CC-PVTZ
    Blend: AUG-CC-PVTZ
  Basis Set: (AUG-CC-PVTZ AUX)
    Blend: AUG-CC-PVTZ-JKFIT
	 Reference Energy          =    -212.7565206392925177 [Eh]
	 Singles Energy            =      -0.0000000000000000 [Eh]
	 Same-Spin Energy          =      -0.2164171013799165 [Eh]
	 Opposite-Spin Energy      =      -0.8152860396363646 [Eh]
	 Correlation Energy        =      -1.0317031410162811 [Eh]
	 Total Energy              =    -213.7882237803088117 [Eh]

	 ================> DF-SCS-MP2 Energies <==================
	-----------------------------------------------------------
	 SCS Same-Spin Scale       =       0.3333333333333333 [-]
	 SCS Opposite-Spin Scale   =       1.2000000000000000 [-]
	 SCS Same-Spin Energy      =      -0.0721390337933055 [Eh]
	 SCS Opposite-Spin Energy  =      -0.9783432475636374 [Eh]
	 SCS Correlation Energy    =      -1.0504822813569430 [Eh]
	 SCS Total Energy          =    -213.8070029206494667 [Eh]
	-----------------------------------------------------------

  Dipole Moment: [D]
     X:     0.1393      Y:     0.0087      Z:    -0.0154     Total:     0.1404

*** Psi4 exiting successfully. Buy a developer a beer!
