                               Psi4 1.4a3.dev225

  ==> Input File <==

--------------------------------------------------------------------------
#psi4
#
memory 32 gb

molecule  {
1 1
  N        0.0000000     0.0000000     0.0000000
  C        1.3903171     0.0865184    -0.1533131
  C       -0.3334060    -0.1729460     1.4536780
  C       -0.5167230    -1.1772360    -0.7754760
  C       -0.6393960     1.2574900    -0.5139490
  H        1.8514760     0.9503420     0.4029520
  H        1.9409440    -0.8253370     0.2122260
  H        1.7177820     0.2178920    -1.2227970
  H       -1.4164000    -0.2388150     1.5589270
  H        0.1362470    -1.0883220     1.8139650
  H        0.0467840     0.6873570     2.0047010
  H       -1.5978840    -1.2330590    -0.6479300
  H       -0.2683930    -1.0393290    -1.8279050
  H       -0.0452370    -2.0825640    -0.3928860
  H       -1.7193290     1.1773100    -0.3890120
  H       -0.2561440     2.1034850     0.0567550
  H       -0.3898460     1.3710400    -1.5689960
units angstrom
no_reorient  #important for SAPT in psi4, default
symmetry c1  #important for SAPT in psi4, default
}

set PROPERTIES_ORIGIN ["COM"]
properties('MP2/aug-cc-pvtz', properties = ['dipole'])
--------------------------------------------------------------------------

    Molecular point group: c1
  Charge       = 1
  Multiplicity = 1
  Basis Set: AUG-CC-PVTZ
    Blend: AUG-CC-PVTZ
  Basis Set: (AUG-CC-PVTZ AUX)
    Blend: AUG-CC-PVTZ-JKFIT

    Orbital Energies [Eh]
    ---------------------

    Doubly Occupied:

       1A    -15.873802     2A    -11.456567     3A    -11.456567
       4A    -11.456548     5A    -11.452411     6A     -1.531653
       7A     -1.177311     8A     -1.177241     9A     -1.177241
      10A     -1.021653    11A     -0.879398    12A     -0.876099
      13A     -0.876099    14A     -0.779585    15A     -0.779585
      16A     -0.740408    17A     -0.733837    18A     -0.729471
      19A     -0.729471    20A     -0.702835    21A     -0.702834

  @DF-RHF Final Energy:  -212.75382363444317

   => Energetics <=

    Nuclear Repulsion Energy =            215.8008377097823711
    One-Electron Energy =                -704.4880882715115149
    Two-Electron Energy =                 275.9334269272859501
    Total Energy =                       -212.7538236344431652
  Basis Set: (AUG-CC-PVTZ AUX)
    Blend: AUG-CC-PVTZ-RI
    Molecular point group: c1

    Geometry (in Angstrom), charge = 1, multiplicity = 1:

       Center              X                  Y                   Z               Mass
    ------------   -----------------  -----------------  -----------------  -----------------
         N            0.016066712707     0.000999814103    -0.001771716066    14.003074004430
         C            1.406383812707     0.087518214103    -0.155084816066    12.000000000000
         C           -0.317339287293    -0.171946185897     1.451906283934    12.000000000000
         C           -0.500656287293    -1.176236185897    -0.777247716066    12.000000000000
         C           -0.623329287293     1.258489814103    -0.515720716066    12.000000000000
         H            1.867542712707     0.951341814103     0.401180283934     1.007825032230
         H            1.957010712707    -0.824337185897     0.210454283934     1.007825032230
         H            1.733848712707     0.218891814103    -1.224568716066     1.007825032230
         H           -1.400333287293    -0.237815185897     1.557155283934     1.007825032230
         H            0.152313712707    -1.087322185897     1.812193283934     1.007825032230
         H            0.062850712707     0.688356814103     2.002929283934     1.007825032230
         H           -1.581817287293    -1.232059185897    -0.649701716066     1.007825032230
         H           -0.252326287293    -1.038329185897    -1.829676716066     1.007825032230
         H           -0.029170287293    -2.081564185897    -0.394657716066     1.007825032230
         H           -1.703262287293     1.178309814103    -0.390783716066     1.007825032230
         H           -0.240077287293     2.104484814103     0.054983283934     1.007825032230
         H           -0.373779287293     1.372039814103    -1.570767716066     1.007825032230

  Basis Set: AUG-CC-PVTZ
    Blend: AUG-CC-PVTZ
  Basis Set: (AUG-CC-PVTZ AUX)
    Blend: AUG-CC-PVTZ-JKFIT
	 Reference Energy          =    -212.7538236344431652 [Eh]
	 Singles Energy            =      -0.0000000000000000 [Eh]
	 Same-Spin Energy          =      -0.2178935907759449 [Eh]
	 Opposite-Spin Energy      =      -0.8153910905883505 [Eh]
	 Correlation Energy        =      -1.0332846813642953 [Eh]
	 Total Energy              =    -213.7871083158074725 [Eh]

	 ================> DF-SCS-MP2 Energies <==================
	-----------------------------------------------------------
	 SCS Same-Spin Scale       =       0.3333333333333333 [-]
	 SCS Opposite-Spin Scale   =       1.2000000000000000 [-]
	 SCS Same-Spin Energy      =      -0.0726311969253150 [Eh]
	 SCS Opposite-Spin Energy  =      -0.9784693087060206 [Eh]
	 SCS Correlation Energy    =      -1.0511005056313356 [Eh]
	 SCS Total Energy          =    -213.8049241400744904 [Eh]
	-----------------------------------------------------------

  Dipole Moment: [D]
     X:    -0.1115      Y:    -0.0069      Z:     0.0123     Total:     0.1124

*** Psi4 exiting successfully. Buy a developer a beer!
