                               Psi4 1.4a3.dev225

  ==> Input File <==

--------------------------------------------------------------------------
#psi4
#
memory 32 gb

molecule  {
1 1
  N        0.0000000     0.0000000     0.0000000
  C        1.4895250     0.0926920    -0.1642530
  C       -0.3334060    -0.1729460     1.4536780
  C       -0.5167230    -1.1772360    -0.7754760
  C       -0.6393960     1.2574900    -0.5139490
  H        1.8514760     0.9503420     0.4029520
  H        1.9409440    -0.8253370     0.2122260
  H        1.7177820     0.2178920    -1.2227970
  H       -1.4066555    -0.3083860     1.5881530
  H        0.1362470    -1.0883220     1.8139650
  H        0.0467840     0.6873570     2.0047010
  H       -1.5978840    -1.2330590    -0.6479300
  H       -0.2683930    -1.0393290    -1.8279050
  H       -0.0452370    -2.0825640    -0.3928860
  H       -1.7193290     1.1773100    -0.3890120
  H       -0.2561440     2.1034850     0.0567550
  H       -0.3898460     1.3710400    -1.5689960
units angstrom
no_reorient  #important for SAPT in psi4, default
symmetry c1  #important for SAPT in psi4, default
}

set PROPERTIES_ORIGIN ["COM"]
properties('MP2/aug-cc-pvtz', properties = ['dipole'])
--------------------------------------------------------------------------

    Molecular point group: c1
  Charge       = 1
  Multiplicity = 1
  Basis Set: AUG-CC-PVTZ
    Blend: AUG-CC-PVTZ
  Basis Set: (AUG-CC-PVTZ AUX)
    Blend: AUG-CC-PVTZ-JKFIT

    Orbital Energies [Eh]
    ---------------------

    Doubly Occupied:

       1A    -15.870956     2A    -11.454118     3A    -11.454049
       4A    -11.453742     5A    -11.453517     6A     -1.508360
       7A     -1.172320     8A     -1.172153     9A     -1.171506
      10A     -1.022359    11A     -0.871327    12A     -0.869344
      13A     -0.868080    14A     -0.782042    15A     -0.778286
      16A     -0.733671    17A     -0.731385    18A     -0.728673
      19A     -0.721304    20A     -0.719892    21A     -0.717674

  @DF-RHF Final Energy:  -212.76316435242836

   => Energetics <=

    Nuclear Repulsion Energy =            213.9319015011423630
    One-Electron Energy =                -700.8806112336218348
    Two-Electron Energy =                 274.1855453800511100
    Total Energy =                       -212.7631643524283618
  Basis Set: (AUG-CC-PVTZ AUX)
    Blend: AUG-CC-PVTZ-RI
    Molecular point group: c1

    Geometry (in Angstrom), charge = 1, multiplicity = 1:

       Center              X                  Y                   Z               Mass
    ------------   -----------------  -----------------  -----------------  -----------------
         N           -0.000132539164     0.000946265295    -0.000397515481    14.003074004430
         C            1.489392460836     0.093638265295    -0.164650515481    12.000000000000
         C           -0.333538539164    -0.171999734705     1.453280484519    12.000000000000
         C           -0.516855539164    -1.176289734705    -0.775873515481    12.000000000000
         C           -0.639528539164     1.258436265295    -0.514346515481    12.000000000000
         H            1.851343460836     0.951288265295     0.402554484519     1.007825032230
         H            1.940811460836    -0.824390734705     0.211828484519     1.007825032230
         H            1.717649460836     0.218838265295    -1.223194515481     1.007825032230
         H           -1.406788039164    -0.307439734705     1.587755484519     1.007825032230
         H            0.136114460836    -1.087375734705     1.813567484519     1.007825032230
         H            0.046651460836     0.688303265295     2.004303484519     1.007825032230
         H           -1.598016539164    -1.232112734705    -0.648327515481     1.007825032230
         H           -0.268525539164    -1.038382734705    -1.828302515481     1.007825032230
         H           -0.045369539164    -2.081617734705    -0.393283515481     1.007825032230
         H           -1.719461539164     1.178256265295    -0.389409515481     1.007825032230
         H           -0.256276539164     2.104431265295     0.056357484519     1.007825032230
         H           -0.389978539164     1.371986265295    -1.569393515481     1.007825032230

  Basis Set: AUG-CC-PVTZ
    Blend: AUG-CC-PVTZ
  Basis Set: (AUG-CC-PVTZ AUX)
    Blend: AUG-CC-PVTZ-JKFIT
	 Reference Energy          =    -212.7631643524283618 [Eh]
	 Singles Energy            =      -0.0000000000000000 [Eh]
	 Same-Spin Energy          =      -0.2168413731022067 [Eh]
	 Opposite-Spin Energy      =      -0.8147800519172429 [Eh]
	 Correlation Energy        =      -1.0316214250194495 [Eh]
	 Total Energy              =    -213.7947857774477995 [Eh]

	 ================> DF-SCS-MP2 Energies <==================
	-----------------------------------------------------------
	 SCS Same-Spin Scale       =       0.3333333333333333 [-]
	 SCS Opposite-Spin Scale   =       1.2000000000000000 [-]
	 SCS Same-Spin Energy      =      -0.0722804577007356 [Eh]
	 SCS Opposite-Spin Energy  =      -0.9777360623006914 [Eh]
	 SCS Correlation Energy    =      -1.0500165200014271 [Eh]
	 SCS Total Energy          =    -213.8131808724297969 [Eh]
	-----------------------------------------------------------

  Dipole Moment: [D]
     X:    -0.0046      Y:    -0.0295      Z:     0.0035     Total:     0.0301

*** Psi4 exiting successfully. Buy a developer a beer!
