                               Psi4 1.4a3.dev225

  ==> Input File <==

--------------------------------------------------------------------------
#psi4
#
memory 32 gb

molecule  {
1 1
  N        0.0000000     0.0000000     0.0000000
  C        1.4895250     0.0926920    -0.1642530
  C       -0.3334060    -0.1729460     1.4536780
  C       -0.5167230    -1.1772360    -0.7754760
  C       -0.6393960     1.2574900    -0.5139490
  H        1.8514760     0.9503420     0.4029520
  H        1.8995328    -0.7411210     0.1776894
  H        1.7177820     0.2178920    -1.2227970
  H       -1.4164000    -0.2388150     1.5589270
  H        0.1362470    -1.0883220     1.8139650
  H        0.0467840     0.6873570     2.0047010
  H       -1.5978840    -1.2330590    -0.6479300
  H       -0.2683930    -1.0393290    -1.8279050
  H       -0.0452370    -2.0825640    -0.3928860
  H       -1.7193290     1.1773100    -0.3890120
  H       -0.2561440     2.1034850     0.0567550
  H       -0.3898460     1.3710400    -1.5689960
units angstrom
no_reorient  #important for SAPT in psi4, default
symmetry c1  #important for SAPT in psi4, default
}

set PROPERTIES_ORIGIN ["COM"]
properties('MP2/aug-cc-pvtz', properties = ['dipole'])
--------------------------------------------------------------------------

    Molecular point group: c1
  Charge       = 1
  Multiplicity = 1
  Basis Set: AUG-CC-PVTZ
    Blend: AUG-CC-PVTZ
  Basis Set: (AUG-CC-PVTZ AUX)
    Blend: AUG-CC-PVTZ-JKFIT

    Orbital Energies [Eh]
    ---------------------

    Doubly Occupied:

       1A    -15.869956     2A    -11.454127     3A    -11.454114
       4A    -11.453524     5A    -11.443070     6A     -1.508679
       7A     -1.181778     8A     -1.172224     9A     -1.171898
      10A     -1.025431    11A     -0.877151    12A     -0.869379
      13A     -0.869306    14A     -0.787335    15A     -0.780428
      16A     -0.740869    17A     -0.731475    18A     -0.731324
      19A     -0.721843    20A     -0.719757    21A     -0.719638

  @DF-RHF Final Energy:  -212.75762820798136

   => Energetics <=

    Nuclear Repulsion Energy =            214.4507670651929629
    One-Electron Energy =                -701.8501770207535628
    Two-Electron Energy =                 274.6417817475792162
    Total Energy =                       -212.7576282079813836
  Basis Set: (AUG-CC-PVTZ AUX)
    Blend: AUG-CC-PVTZ-RI
    Molecular point group: c1

    Geometry (in Angstrom), charge = 1, multiplicity = 1:

       Center              X                  Y                   Z               Mass
    ------------   -----------------  -----------------  -----------------  -----------------
         N            0.000563251662    -0.001145458281     0.000469747251    14.003074004430
         C            1.490088251662     0.091546541719    -0.163783252749    12.000000000000
         C           -0.332842748338    -0.174091458281     1.454147747251    12.000000000000
         C           -0.516159748338    -1.178381458281    -0.775006252749    12.000000000000
         C           -0.638832748338     1.256344541719    -0.513479252749    12.000000000000
         H            1.852039251662     0.949196541719     0.403421747251     1.007825032230
         H            1.900096051662    -0.742266458281     0.178159147251     1.007825032230
         H            1.718345251662     0.216746541719    -1.222327252749     1.007825032230
         H           -1.415836748338    -0.239960458281     1.559396747251     1.007825032230
         H            0.136810251662    -1.089467458281     1.814434747251     1.007825032230
         H            0.047347251662     0.686211541719     2.005170747251     1.007825032230
         H           -1.597320748338    -1.234204458281    -0.647460252749     1.007825032230
         H           -0.267829748338    -1.040474458281    -1.827435252749     1.007825032230
         H           -0.044673748338    -2.083709458281    -0.392416252749     1.007825032230
         H           -1.718765748338     1.176164541719    -0.388542252749     1.007825032230
         H           -0.255580748338     2.102339541719     0.057224747251     1.007825032230
         H           -0.389282748338     1.369894541719    -1.568526252749     1.007825032230

  Basis Set: AUG-CC-PVTZ
    Blend: AUG-CC-PVTZ
  Basis Set: (AUG-CC-PVTZ AUX)
    Blend: AUG-CC-PVTZ-JKFIT
	 Reference Energy          =    -212.7576282079813552 [Eh]
	 Singles Energy            =      -0.0000000000000000 [Eh]
	 Same-Spin Energy          =      -0.2167351560309367 [Eh]
	 Opposite-Spin Energy      =      -0.8142069182380296 [Eh]
	 Correlation Energy        =      -1.0309420742689663 [Eh]
	 Total Energy              =    -213.7885702822503333 [Eh]

	 ================> DF-SCS-MP2 Energies <==================
	-----------------------------------------------------------
	 SCS Same-Spin Scale       =       0.3333333333333333 [-]
	 SCS Opposite-Spin Scale   =       1.2000000000000000 [-]
	 SCS Same-Spin Energy      =      -0.0722450520103122 [Eh]
	 SCS Opposite-Spin Energy  =      -0.9770483018856355 [Eh]
	 SCS Correlation Energy    =      -1.0492933538959477 [Eh]
	 SCS Total Energy          =    -213.8069215618772887 [Eh]
	-----------------------------------------------------------

  Dipole Moment: [D]
     X:    -0.0041      Y:    -0.0016      Z:     0.0010     Total:     0.0045

*** Psi4 exiting successfully. Buy a developer a beer!
