                               Psi4 1.4a3.dev225

  ==> Input File <==

--------------------------------------------------------------------------
#psi4
#
memory 32 gb

molecule  {
1 1
  N        0.0000000     0.0000000     0.0000000
  C        1.4696834     0.0914573    -0.1620650
  C       -0.3334060    -0.1729460     1.4536780
  C       -0.5167230    -1.1772360    -0.7754760
  C       -0.6393960     1.2574900    -0.5139490
  H        1.8514760     0.9503420     0.4029520
  H        1.9409440    -0.8253370     0.2122260
  H        1.7177820     0.2178920    -1.2227970
  H       -1.4164000    -0.2388150     1.5589270
  H        0.1362470    -1.0883220     1.8139650
  H        0.0467840     0.6873570     2.0047010
  H       -1.5978840    -1.2330590    -0.6479300
  H       -0.2683930    -1.0393290    -1.8279050
  H       -0.0452370    -2.0825640    -0.3928860
  H       -1.7193290     1.1773100    -0.3890120
  H       -0.2561440     2.1034850     0.0567550
  H       -0.3898460     1.3710400    -1.5689960
units angstrom
no_reorient  #important for SAPT in psi4, default
symmetry c1  #important for SAPT in psi4, default
}

set PROPERTIES_ORIGIN ["COM"]
properties('MP2/aug-cc-pvtz', properties = ['dipole'])
--------------------------------------------------------------------------

    Molecular point group: c1
  Charge       = 1
  Multiplicity = 1
  Basis Set: AUG-CC-PVTZ
    Blend: AUG-CC-PVTZ
  Basis Set: (AUG-CC-PVTZ AUX)
    Blend: AUG-CC-PVTZ-JKFIT

    Orbital Energies [Eh]
    ---------------------

    Doubly Occupied:

       1A    -15.871320     2A    -11.454470     3A    -11.454470
       4A    -11.454450     5A    -11.453326     6A     -1.512577
       7A     -1.173073     8A     -1.173073     9A     -1.172721
      10A     -1.022027    11A     -0.871393    12A     -0.870641
      13A     -0.870641    14A     -0.779951    15A     -0.779951
      16A     -0.731909    17A     -0.729700    18A     -0.729700
      19A     -0.724289    20A     -0.718350    21A     -0.718350

  @DF-RHF Final Energy:  -212.76333157250778

   => Energetics <=

    Nuclear Repulsion Energy =            214.3393589588083614
    One-Electron Energy =                -701.6726177065542061
    Two-Electron Energy =                 274.5699271752380355
    Total Energy =                       -212.7633315725078091
  Basis Set: (AUG-CC-PVTZ AUX)
    Blend: AUG-CC-PVTZ-RI
    Molecular point group: c1

    Geometry (in Angstrom), charge = 1, multiplicity = 1:

       Center              X                  Y                   Z               Mass
    ------------   -----------------  -----------------  -----------------  -----------------
         N            0.003213345780     0.000199959582    -0.000354346452    14.003074004430
         C            1.472896745780     0.091657259582    -0.162419346452    12.000000000000
         C           -0.330192654220    -0.172746040418     1.453323653548    12.000000000000
         C           -0.513509654220    -1.177036040418    -0.775830346452    12.000000000000
         C           -0.636182654220     1.257689959582    -0.514303346452    12.000000000000
         H            1.854689345780     0.950541959582     0.402597653548     1.007825032230
         H            1.944157345780    -0.825137040418     0.211871653548     1.007825032230
         H            1.720995345780     0.218091959582    -1.223151346452     1.007825032230
         H           -1.413186654220    -0.238615040418     1.558572653548     1.007825032230
         H            0.139460345780    -1.088122040418     1.813610653548     1.007825032230
         H            0.049997345780     0.687556959582     2.004346653548     1.007825032230
         H           -1.594670654220    -1.232859040418    -0.648284346452     1.007825032230
         H           -0.265179654220    -1.039129040418    -1.828259346452     1.007825032230
         H           -0.042023654220    -2.082364040418    -0.393240346452     1.007825032230
         H           -1.716115654220     1.177509959582    -0.389366346452     1.007825032230
         H           -0.252930654220     2.103684959582     0.056400653548     1.007825032230
         H           -0.386632654220     1.371239959582    -1.569350346452     1.007825032230

  Basis Set: AUG-CC-PVTZ
    Blend: AUG-CC-PVTZ
  Basis Set: (AUG-CC-PVTZ AUX)
    Blend: AUG-CC-PVTZ-JKFIT
	 Reference Energy          =    -212.7633315725077807 [Eh]
	 Singles Energy            =      -0.0000000000000000 [Eh]
	 Same-Spin Energy          =      -0.2170023510685870 [Eh]
	 Opposite-Spin Energy      =      -0.8148277766979980 [Eh]
	 Correlation Energy        =      -1.0318301277665849 [Eh]
	 Total Energy              =    -213.7951617002743774 [Eh]

	 ================> DF-SCS-MP2 Energies <==================
	-----------------------------------------------------------
	 SCS Same-Spin Scale       =       0.3333333333333333 [-]
	 SCS Opposite-Spin Scale   =       1.2000000000000000 [-]
	 SCS Same-Spin Energy      =      -0.0723341170228623 [Eh]
	 SCS Opposite-Spin Energy  =      -0.9777933320375976 [Eh]
	 SCS Correlation Energy    =      -1.0501274490604600 [Eh]
	 SCS Total Energy          =    -213.8134590215682351 [Eh]
	-----------------------------------------------------------

  Dipole Moment: [D]
     X:    -0.0245      Y:    -0.0015      Z:     0.0027     Total:     0.0247

*** Psi4 exiting successfully. Buy a developer a beer!
