                               Psi4 1.4a3.dev225

  ==> Input File <==

--------------------------------------------------------------------------
#psi4
#
memory 32 gb

molecule  {
1 1
  N        0.0000000     0.0000000     0.0000000
  C        1.6879408     0.1050393    -0.1861327
  C       -0.3334060    -0.1729460     1.4536780
  C       -0.5167230    -1.1772360    -0.7754760
  C       -0.6393960     1.2574900    -0.5139490
  H        1.8514760     0.9503420     0.4029520
  H        1.9409440    -0.8253370     0.2122260
  H        1.7177820     0.2178920    -1.2227970
  H       -1.4164000    -0.2388150     1.5589270
  H        0.1362470    -1.0883220     1.8139650
  H        0.0467840     0.6873570     2.0047010
  H       -1.5978840    -1.2330590    -0.6479300
  H       -0.2683930    -1.0393290    -1.8279050
  H       -0.0452370    -2.0825640    -0.3928860
  H       -1.7193290     1.1773100    -0.3890120
  H       -0.2561440     2.1034850     0.0567550
  H       -0.3898460     1.3710400    -1.5689960
units angstrom
no_reorient  #important for SAPT in psi4, default
symmetry c1  #important for SAPT in psi4, default
}

set PROPERTIES_ORIGIN ["COM"]
properties('MP2/aug-cc-pvtz', properties = ['dipole'])
--------------------------------------------------------------------------

    Molecular point group: c1
  Charge       = 1
  Multiplicity = 1
  Basis Set: AUG-CC-PVTZ
    Blend: AUG-CC-PVTZ
  Basis Set: (AUG-CC-PVTZ AUX)
    Blend: AUG-CC-PVTZ-JKFIT

    Orbital Energies [Eh]
    ---------------------

    Doubly Occupied:

       1A    -15.855410     2A    -11.468135     3A    -11.447581
       4A    -11.447581     5A    -11.447560     6A     -1.474623
       7A     -1.173329     8A     -1.161899     9A     -1.161898
      10A     -1.016643    11A     -0.860819    12A     -0.860819
      13A     -0.852586    14A     -0.795863    15A     -0.795863
      16A     -0.747400    17A     -0.747400    18A     -0.725620
      19A     -0.714448    20A     -0.714447    21A     -0.671108

  @DF-RHF Final Energy:  -212.73887159438533

   => Energetics <=

    Nuclear Repulsion Energy =            210.6976619969366027
    One-Electron Energy =                -694.5910027571708270
    Two-Electron Energy =                 271.1544691658488659
    Total Energy =                       -212.7388715943853299
  Basis Set: (AUG-CC-PVTZ AUX)
    Blend: AUG-CC-PVTZ-RI
    Molecular point group: c1

    Geometry (in Angstrom), charge = 1, multiplicity = 1:

       Center              X                  Y                   Z               Mass
    ------------   -----------------  -----------------  -----------------  -----------------
         N           -0.032133425414    -0.001999644401     0.003543415938    14.003074004430
         C            1.655807374586     0.103039655599    -0.182589284062    12.000000000000
         C           -0.365539425414    -0.174945644401     1.457221415938    12.000000000000
         C           -0.548856425414    -1.179235644401    -0.771932584062    12.000000000000
         C           -0.671529425414     1.255490355599    -0.510405584062    12.000000000000
         H            1.819342574586     0.948342355599     0.406495415938     1.007825032230
         H            1.908810574586    -0.827336644401     0.215769415938     1.007825032230
         H            1.685648574586     0.215892355599    -1.219253584062     1.007825032230
         H           -1.448533425414    -0.240814644401     1.562470415938     1.007825032230
         H            0.104113574586    -1.090321644401     1.817508415938     1.007825032230
         H            0.014650574586     0.685357355599     2.008244415938     1.007825032230
         H           -1.630017425414    -1.235058644401    -0.644386584062     1.007825032230
         H           -0.300526425414    -1.041328644401    -1.824361584062     1.007825032230
         H           -0.077370425414    -2.084563644401    -0.389342584062     1.007825032230
         H           -1.751462425414     1.175310355599    -0.385468584062     1.007825032230
         H           -0.288277425414     2.101485355599     0.060298415938     1.007825032230
         H           -0.421979425414     1.369040355599    -1.565452584062     1.007825032230

  Basis Set: AUG-CC-PVTZ
    Blend: AUG-CC-PVTZ
  Basis Set: (AUG-CC-PVTZ AUX)
    Blend: AUG-CC-PVTZ-JKFIT
	 Reference Energy          =    -212.7388715943853299 [Eh]
	 Singles Energy            =      -0.0000000000000000 [Eh]
	 Same-Spin Energy          =      -0.2164265310128422 [Eh]
	 Opposite-Spin Energy      =      -0.8164770159283118 [Eh]
	 Correlation Energy        =      -1.0329035469411540 [Eh]
	 Total Energy              =    -213.7717751413264864 [Eh]

	 ================> DF-SCS-MP2 Energies <==================
	-----------------------------------------------------------
	 SCS Same-Spin Scale       =       0.3333333333333333 [-]
	 SCS Opposite-Spin Scale   =       1.2000000000000000 [-]
	 SCS Same-Spin Energy      =      -0.0721421770042807 [Eh]
	 SCS Opposite-Spin Energy  =      -0.9797724191139741 [Eh]
	 SCS Correlation Energy    =      -1.0519145961182548 [Eh]
	 SCS Total Energy          =    -213.7907861905035816 [Eh]
	-----------------------------------------------------------

  Dipole Moment: [D]
     X:     0.2962      Y:     0.0184      Z:    -0.0327     Total:     0.2985

*** Psi4 exiting successfully. Buy a developer a beer!
