                               Psi4 1.4a3.dev225

  ==> Input File <==

--------------------------------------------------------------------------
#psi4
#
memory 32 gb

molecule  {
1 1
  N        0.0000000     0.0000000     0.0000000
  C        1.4895250     0.0926920    -0.1642530
  C       -0.3334060    -0.1729460     1.4536780
  C       -0.5167230    -1.1772360    -0.7754760
  C       -0.6393960     1.2574900    -0.5139490
  H        1.8514760     0.9503420     0.4029520
  H        1.9409440    -0.8253370     0.2122260
  H        1.7177820     0.2178920    -1.2227970
  H       -1.4164000    -0.2388150     1.5589270
  H        0.1362470    -1.0883220     1.8139650
  H        0.0467840     0.6873570     2.0047010
  H       -1.4987030    -1.2279380    -0.6596305
  H       -0.2683930    -1.0393290    -1.8279050
  H       -0.0452370    -2.0825640    -0.3928860
  H       -1.7193290     1.1773100    -0.3890120
  H       -0.2561440     2.1034850     0.0567550
  H       -0.3898460     1.3710400    -1.5689960
units angstrom
no_reorient  #important for SAPT in psi4, default
symmetry c1  #important for SAPT in psi4, default
}

set PROPERTIES_ORIGIN ["COM"]
properties('MP2/aug-cc-pvtz', properties = ['dipole'])
--------------------------------------------------------------------------

    Molecular point group: c1
  Charge       = 1
  Multiplicity = 1
  Basis Set: AUG-CC-PVTZ
    Blend: AUG-CC-PVTZ
  Basis Set: (AUG-CC-PVTZ AUX)
    Blend: AUG-CC-PVTZ-JKFIT

    Orbital Energies [Eh]
    ---------------------

    Doubly Occupied:

       1A    -15.869956     2A    -11.454127     3A    -11.454114
       4A    -11.453524     5A    -11.443070     6A     -1.508679
       7A     -1.181778     8A     -1.172224     9A     -1.171898
      10A     -1.025431    11A     -0.877151    12A     -0.869379
      13A     -0.869307    14A     -0.787335    15A     -0.780428
      16A     -0.740869    17A     -0.731475    18A     -0.731324
      19A     -0.721843    20A     -0.719757    21A     -0.719639

  @DF-RHF Final Energy:  -212.75762824788762

   => Energetics <=

    Nuclear Repulsion Energy =            214.4507672113828960
    One-Electron Energy =                -701.8501774734102128
    Two-Electron Energy =                 274.6417820141397215
    Total Energy =                       -212.7576282478876237
  Basis Set: (AUG-CC-PVTZ AUX)
    Blend: AUG-CC-PVTZ-RI
    Molecular point group: c1

    Geometry (in Angstrom), charge = 1, multiplicity = 1:

       Center              X                  Y                   Z               Mass
    ------------   -----------------  -----------------  -----------------  -----------------
         N           -0.001349003726    -0.000069652938     0.000159143567    14.003074004430
         C            1.488175996274     0.092622347062    -0.164093856433    12.000000000000
         C           -0.334755003726    -0.173015652938     1.453837143567    12.000000000000
         C           -0.518072003726    -1.177305652938    -0.775316856433    12.000000000000
         C           -0.640745003726     1.257420347062    -0.513789856433    12.000000000000
         H            1.850126996274     0.950272347062     0.403111143567     1.007825032230
         H            1.939594996274    -0.825406652938     0.212385143567     1.007825032230
         H            1.716432996274     0.217822347062    -1.222637856433     1.007825032230
         H           -1.417749003726    -0.238884652938     1.559086143567     1.007825032230
         H            0.134897996274    -1.088391652938     1.814124143567     1.007825032230
         H            0.045434996274     0.687287347062     2.004860143567     1.007825032230
         H           -1.500052003726    -1.228007652938    -0.659471356433     1.007825032230
         H           -0.269742003726    -1.039398652938    -1.827745856433     1.007825032230
         H           -0.046586003726    -2.082633652938    -0.392726856433     1.007825032230
         H           -1.720678003726     1.177240347062    -0.388852856433     1.007825032230
         H           -0.257493003726     2.103415347062     0.056914143567     1.007825032230
         H           -0.391195003726     1.370970347062    -1.568836856433     1.007825032230

  Basis Set: AUG-CC-PVTZ
    Blend: AUG-CC-PVTZ
  Basis Set: (AUG-CC-PVTZ AUX)
    Blend: AUG-CC-PVTZ-JKFIT
	 Reference Energy          =    -212.7576282478876237 [Eh]
	 Singles Energy            =      -0.0000000000000000 [Eh]
	 Same-Spin Energy          =      -0.2167351560202262 [Eh]
	 Opposite-Spin Energy      =      -0.8142069180393587 [Eh]
	 Correlation Energy        =      -1.0309420740595849 [Eh]
	 Total Energy              =    -213.7885703219472191 [Eh]

	 ================> DF-SCS-MP2 Energies <==================
	-----------------------------------------------------------
	 SCS Same-Spin Scale       =       0.3333333333333333 [-]
	 SCS Opposite-Spin Scale   =       1.2000000000000000 [-]
	 SCS Same-Spin Energy      =      -0.0722450520067421 [Eh]
	 SCS Opposite-Spin Energy  =      -0.9770483016472304 [Eh]
	 SCS Correlation Energy    =      -1.0492933536539726 [Eh]
	 SCS Total Energy          =    -213.8069216015416032 [Eh]
	-----------------------------------------------------------

  Dipole Moment: [D]
     X:     0.0001      Y:     0.0037      Z:     0.0026     Total:     0.0045

*** Psi4 exiting successfully. Buy a developer a beer!
