                               Psi4 1.4a3.dev225

  ==> Input File <==

--------------------------------------------------------------------------
#psi4
#
memory 32 gb

molecule  {
1 1
  N        0.0000000     0.0000000     0.0000000
  C        1.4895250     0.0926920    -0.1642530
  C       -0.3609849    -0.1284267     1.4517045
  C       -0.5167230    -1.1772360    -0.7754760
  C       -0.6393960     1.2574900    -0.5139490
  H        1.8514760     0.9503420     0.4029520
  H        1.9409440    -0.8253370     0.2122260
  H        1.7177820     0.2178920    -1.2227970
  H       -1.4164000    -0.2388150     1.5589270
  H        0.1362470    -1.0883220     1.8139650
  H        0.0467840     0.6873570     2.0047010
  H       -1.5978840    -1.2330590    -0.6479300
  H       -0.2683930    -1.0393290    -1.8279050
  H       -0.0452370    -2.0825640    -0.3928860
  H       -1.7193290     1.1773100    -0.3890120
  H       -0.2561440     2.1034850     0.0567550
  H       -0.3898460     1.3710400    -1.5689960
units angstrom
no_reorient  #important for SAPT in psi4, default
symmetry c1  #important for SAPT in psi4, default
}

set PROPERTIES_ORIGIN ["COM"]
properties('MP2/aug-cc-pvtz', properties = ['dipole'])
--------------------------------------------------------------------------

    Molecular point group: c1
  Charge       = 1
  Multiplicity = 1
  Basis Set: AUG-CC-PVTZ
    Blend: AUG-CC-PVTZ
  Basis Set: (AUG-CC-PVTZ AUX)
    Blend: AUG-CC-PVTZ-JKFIT

    Orbital Energies [Eh]
    ---------------------

    Doubly Occupied:

       1A    -15.870570     2A    -11.454357     3A    -11.454347
       4A    -11.454313     5A    -11.453271     6A     -1.508504
       7A     -1.174760     8A     -1.172193     9A     -1.169627
      10A     -1.022223    11A     -0.872400    12A     -0.870703
      13A     -0.866333    14A     -0.783960    15A     -0.777895
      16A     -0.739191    17A     -0.731470    18A     -0.727164
      19A     -0.722774    20A     -0.722037    21A     -0.708898

  @DF-RHF Final Energy:  -212.76054483219994

   => Energetics <=

    Nuclear Repulsion Energy =            213.9951283008699932
    One-Electron Energy =                -700.9973679571484126
    Two-Electron Energy =                 274.2416948240784791
    Total Energy =                       -212.7605448321999688
  Basis Set: (AUG-CC-PVTZ AUX)
    Blend: AUG-CC-PVTZ-RI
    Molecular point group: c1

    Geometry (in Angstrom), charge = 1, multiplicity = 1:

       Center              X                  Y                   Z               Mass
    ------------   -----------------  -----------------  -----------------  -----------------
         N            0.004466400993    -0.007209897629     0.000319608192    14.003074004430
         C            1.493991400993     0.085482102371    -0.163933391808    12.000000000000
         C           -0.356518499007    -0.135636597629     1.452024108192    12.000000000000
         C           -0.512256599007    -1.184445897629    -0.775156391808    12.000000000000
         C           -0.634929599007     1.250280102371    -0.513629391808    12.000000000000
         H            1.855942400993     0.943132102371     0.403271608192     1.007825032230
         H            1.945410400993    -0.832546897629     0.212545608192     1.007825032230
         H            1.722248400993     0.210682102371    -1.222477391808     1.007825032230
         H           -1.411933599007    -0.246024897629     1.559246608192     1.007825032230
         H            0.140713400993    -1.095531897629     1.814284608192     1.007825032230
         H            0.051250400993     0.680147102371     2.005020608192     1.007825032230
         H           -1.593417599007    -1.240268897629    -0.647610391808     1.007825032230
         H           -0.263926599007    -1.046538897629    -1.827585391808     1.007825032230
         H           -0.040770599007    -2.089773897629    -0.392566391808     1.007825032230
         H           -1.714862599007     1.170100102371    -0.388692391808     1.007825032230
         H           -0.251677599007     2.096275102371     0.057074608192     1.007825032230
         H           -0.385379599007     1.363830102371    -1.568676391808     1.007825032230

  Basis Set: AUG-CC-PVTZ
    Blend: AUG-CC-PVTZ
  Basis Set: (AUG-CC-PVTZ AUX)
    Blend: AUG-CC-PVTZ-JKFIT
	 Reference Energy          =    -212.7605448321999404 [Eh]
	 Singles Energy            =      -0.0000000000000000 [Eh]
	 Same-Spin Energy          =      -0.2169121764372737 [Eh]
	 Opposite-Spin Energy      =      -0.8149834176231969 [Eh]
	 Correlation Energy        =      -1.0318955940604706 [Eh]
	 Total Energy              =    -213.7924404262604128 [Eh]

	 ================> DF-SCS-MP2 Energies <==================
	-----------------------------------------------------------
	 SCS Same-Spin Scale       =       0.3333333333333333 [-]
	 SCS Opposite-Spin Scale   =       1.2000000000000000 [-]
	 SCS Same-Spin Energy      =      -0.0723040588124246 [Eh]
	 SCS Opposite-Spin Energy  =      -0.9779801011478363 [Eh]
	 SCS Correlation Energy    =      -1.0502841599602608 [Eh]
	 SCS Total Energy          =    -213.8108289921601965 [Eh]
	-----------------------------------------------------------

  Dipole Moment: [D]
     X:     0.0127      Y:    -0.0181      Z:    -0.0040     Total:     0.0224

*** Psi4 exiting successfully. Buy a developer a beer!
