                               Psi4 1.4a3.dev225

  ==> Input File <==

--------------------------------------------------------------------------
#psi4
#
memory 32 gb

molecule  {
1 1
  N        0.0000000     0.0000000     0.0000000
  C        1.4895250     0.0926920    -0.1642530
  C       -0.3334060    -0.1729460     1.4536780
  C       -0.5167230    -1.1772360    -0.7754760
  C       -0.6393960     1.2574900    -0.5139490
  H        1.8514760     0.9503420     0.4029520
  H        1.9409440    -0.8253370     0.2122260
  H        1.7177820     0.2178920    -1.2227970
  H       -1.3998185    -0.3429452     1.6025291
  H        0.1362470    -1.0883220     1.8139650
  H        0.0467840     0.6873570     2.0047010
  H       -1.5978840    -1.2330590    -0.6479300
  H       -0.2683930    -1.0393290    -1.8279050
  H       -0.0452370    -2.0825640    -0.3928860
  H       -1.7193290     1.1773100    -0.3890120
  H       -0.2561440     2.1034850     0.0567550
  H       -0.3898460     1.3710400    -1.5689960
units angstrom
no_reorient  #important for SAPT in psi4, default
symmetry c1  #important for SAPT in psi4, default
}

set PROPERTIES_ORIGIN ["COM"]
properties('MP2/aug-cc-pvtz', properties = ['dipole'])
--------------------------------------------------------------------------

    Molecular point group: c1
  Charge       = 1
  Multiplicity = 1
  Basis Set: AUG-CC-PVTZ
    Blend: AUG-CC-PVTZ
  Basis Set: (AUG-CC-PVTZ AUX)
    Blend: AUG-CC-PVTZ-JKFIT

    Orbital Energies [Eh]
    ---------------------

    Doubly Occupied:

       1A    -15.871232     2A    -11.454205     3A    -11.454118
       4A    -11.453665     5A    -11.453321     6A     -1.508366
       7A     -1.172469     8A     -1.172205     9A     -1.171274
      10A     -1.022629    11A     -0.872319    12A     -0.869299
      13A     -0.867448    14A     -0.782890    15A     -0.777340
      16A     -0.734859    17A     -0.731378    18A     -0.727605
      19A     -0.721813    20A     -0.719903    21A     -0.715970

  @DF-RHF Final Energy:  -212.76245979258300

   => Energetics <=

    Nuclear Repulsion Energy =            213.9061057790512734
    One-Electron Energy =                -700.8285157986318836
    Two-Electron Energy =                 274.1599502269976369
    Total Energy =                       -212.7624597925830017
  Basis Set: (AUG-CC-PVTZ AUX)
    Blend: AUG-CC-PVTZ-RI
    Molecular point group: c1

    Geometry (in Angstrom), charge = 1, multiplicity = 1:

       Center              X                  Y                   Z               Mass
    ------------   -----------------  -----------------  -----------------  -----------------
         N           -0.000225532161     0.001416319938    -0.000593051042    14.003074004430
         C            1.489299467839     0.094108319938    -0.164846051042    12.000000000000
         C           -0.333631532161    -0.171529680062     1.453084948958    12.000000000000
         C           -0.516948532161    -1.175819680062    -0.776069051042    12.000000000000
         C           -0.639621532161     1.258906319938    -0.514542051042    12.000000000000
         H            1.851250467839     0.951758319938     0.402358948958     1.007825032230
         H            1.940718467839    -0.823920680062     0.211632948958     1.007825032230
         H            1.717556467839     0.219308319938    -1.223390051042     1.007825032230
         H           -1.400044032161    -0.341528880062     1.601936048958     1.007825032230
         H            0.136021467839    -1.086905680062     1.813371948958     1.007825032230
         H            0.046558467839     0.688773319938     2.004107948958     1.007825032230
         H           -1.598109532161    -1.231642680062    -0.648523051042     1.007825032230
         H           -0.268618532161    -1.037912680062    -1.828498051042     1.007825032230
         H           -0.045462532161    -2.081147680062    -0.393479051042     1.007825032230
         H           -1.719554532161     1.178726319938    -0.389605051042     1.007825032230
         H           -0.256369532161     2.104901319938     0.056161948958     1.007825032230
         H           -0.390071532161     1.372456319938    -1.569589051042     1.007825032230

  Basis Set: AUG-CC-PVTZ
    Blend: AUG-CC-PVTZ
  Basis Set: (AUG-CC-PVTZ AUX)
    Blend: AUG-CC-PVTZ-JKFIT
	 Reference Energy          =    -212.7624597925830017 [Eh]
	 Singles Energy            =      -0.0000000000000000 [Eh]
	 Same-Spin Energy          =      -0.2168589998473090 [Eh]
	 Opposite-Spin Energy      =      -0.8148004495602635 [Eh]
	 Correlation Energy        =      -1.0316594494075726 [Eh]
	 Total Energy              =    -213.7941192419905860 [Eh]

	 ================> DF-SCS-MP2 Energies <==================
	-----------------------------------------------------------
	 SCS Same-Spin Scale       =       0.3333333333333333 [-]
	 SCS Opposite-Spin Scale   =       1.2000000000000000 [-]
	 SCS Same-Spin Energy      =      -0.0722863332824363 [Eh]
	 SCS Opposite-Spin Energy  =      -0.9777605394723162 [Eh]
	 SCS Correlation Energy    =      -1.0500468727547525 [Eh]
	 SCS Total Energy          =    -213.8125066653377644 [Eh]
	-----------------------------------------------------------

  Dipole Moment: [D]
     X:    -0.0058      Y:    -0.0450      Z:     0.0055     Total:     0.0457

*** Psi4 exiting successfully. Buy a developer a beer!
