                               Psi4 1.4a3.dev225

  ==> Input File <==

--------------------------------------------------------------------------
#psi4
#
memory 32 gb

molecule  {
1 1
  N        0.0240016    -0.1423344     0.0621525
  C        1.4895250     0.0926920    -0.1642530
  C       -0.3334060    -0.1729460     1.4536780
  C       -0.5167230    -1.1772360    -0.7754760
  C       -0.6393960     1.2574900    -0.5139490
  H        1.8514760     0.9503420     0.4029520
  H        1.9409440    -0.8253370     0.2122260
  H        1.7177820     0.2178920    -1.2227970
  H       -1.4164000    -0.2388150     1.5589270
  H        0.1362470    -1.0883220     1.8139650
  H        0.0467840     0.6873570     2.0047010
  H       -1.5978840    -1.2330590    -0.6479300
  H       -0.2683930    -1.0393290    -1.8279050
  H       -0.0452370    -2.0825640    -0.3928860
  H       -1.7193290     1.1773100    -0.3890120
  H       -0.2561440     2.1034850     0.0567550
  H       -0.3898460     1.3710400    -1.5689960
units angstrom
no_reorient  #important for SAPT in psi4, default
symmetry c1  #important for SAPT in psi4, default
}

set PROPERTIES_ORIGIN ["COM"]
properties('MP2/aug-cc-pvtz', properties = ['dipole'])
--------------------------------------------------------------------------

    Molecular point group: c1
  Charge       = 1
  Multiplicity = 1
  Basis Set: AUG-CC-PVTZ
    Blend: AUG-CC-PVTZ
  Basis Set: (AUG-CC-PVTZ AUX)
    Blend: AUG-CC-PVTZ-JKFIT

    Orbital Energies [Eh]
    ---------------------

    Doubly Occupied:

       1A    -15.868465     2A    -11.465903     3A    -11.454682
       4A    -11.448944     5A    -11.448927     6A     -1.512062
       7A     -1.188011     8A     -1.177320     9A     -1.154930
      10A     -1.019309    11A     -0.877096    12A     -0.869486
      13A     -0.866218    14A     -0.783914    15A     -0.783101
      16A     -0.749300    17A     -0.732822    18A     -0.731734
      19A     -0.731663    20A     -0.724846    21A     -0.665688

  @DF-RHF Final Energy:  -212.73922359604282

   => Energetics <=

    Nuclear Repulsion Energy =            213.9587331403425026
    One-Electron Energy =                -700.8870668191372033
    Two-Electron Energy =                 274.1891100827519381
    Total Energy =                       -212.7392235960427911
  Basis Set: (AUG-CC-PVTZ AUX)
    Blend: AUG-CC-PVTZ-RI
    Molecular point group: c1

    Geometry (in Angstrom), charge = 1, multiplicity = 1:

       Center              X                  Y                   Z               Mass
    ------------   -----------------  -----------------  -----------------  -----------------
         N            0.019465703848    -0.115435607533     0.050406729485    14.003074004430
         C            1.484989103848     0.119590792467    -0.175998770515    12.000000000000
         C           -0.337941896152    -0.146047207533     1.441932229485    12.000000000000
         C           -0.521258896152    -1.150337207533    -0.787221770515    12.000000000000
         C           -0.643931896152     1.284388792467    -0.525694770515    12.000000000000
         H            1.846940103848     0.977240792467     0.391206229485     1.007825032230
         H            1.936408103848    -0.798438207533     0.200480229485     1.007825032230
         H            1.713246103848     0.244790792467    -1.234542770515     1.007825032230
         H           -1.420935896152    -0.211916207533     1.547181229485     1.007825032230
         H            0.131711103848    -1.061423207533     1.802219229485     1.007825032230
         H            0.042248103848     0.714255792467     1.992955229485     1.007825032230
         H           -1.602419896152    -1.206160207533    -0.659675770515     1.007825032230
         H           -0.272928896152    -1.012430207533    -1.839650770515     1.007825032230
         H           -0.049772896152    -2.055665207533    -0.404631770515     1.007825032230
         H           -1.723864896152     1.204208792467    -0.400757770515     1.007825032230
         H           -0.260679896152     2.130383792467     0.045009229485     1.007825032230
         H           -0.394381896152     1.397938792467    -1.580741770515     1.007825032230

  Basis Set: AUG-CC-PVTZ
    Blend: AUG-CC-PVTZ
  Basis Set: (AUG-CC-PVTZ AUX)
    Blend: AUG-CC-PVTZ-JKFIT
	 Reference Energy          =    -212.7392235960428195 [Eh]
	 Singles Energy            =      -0.0000000000000000 [Eh]
	 Same-Spin Energy          =      -0.2179302568006276 [Eh]
	 Opposite-Spin Energy      =      -0.8170947230278864 [Eh]
	 Correlation Energy        =      -1.0350249798285140 [Eh]
	 Total Energy              =    -213.7742485758713258 [Eh]

	 ================> DF-SCS-MP2 Energies <==================
	-----------------------------------------------------------
	 SCS Same-Spin Scale       =       0.3333333333333333 [-]
	 SCS Opposite-Spin Scale   =       1.2000000000000000 [-]
	 SCS Same-Spin Energy      =      -0.0726434189335425 [Eh]
	 SCS Opposite-Spin Energy  =      -0.9805136676334637 [Eh]
	 SCS Correlation Energy    =      -1.0531570865670061 [Eh]
	 SCS Total Energy          =    -213.7923806826098314 [Eh]
	-----------------------------------------------------------

  Dipole Moment: [D]
     X:    -0.0554      Y:     0.3517      Z:    -0.1539     Total:     0.3879

*** Psi4 exiting successfully. Buy a developer a beer!
