                               Psi4 1.4a3.dev225

  ==> Input File <==

--------------------------------------------------------------------------
#psi4
#
memory 32 gb

molecule  {
1 1
  N        0.0000000     0.0000000     0.0000000
  C        1.4895250     0.0926920    -0.1642530
  C       -0.3194621    -0.1951300     1.4540006
  C       -0.5167230    -1.1772360    -0.7754760
  C       -0.6393960     1.2574900    -0.5139490
  H        1.8514760     0.9503420     0.4029520
  H        1.9409440    -0.8253370     0.2122260
  H        1.7177820     0.2178920    -1.2227970
  H       -1.4164000    -0.2388150     1.5589270
  H        0.1362470    -1.0883220     1.8139650
  H        0.0467840     0.6873570     2.0047010
  H       -1.5978840    -1.2330590    -0.6479300
  H       -0.2683930    -1.0393290    -1.8279050
  H       -0.0452370    -2.0825640    -0.3928860
  H       -1.7193290     1.1773100    -0.3890120
  H       -0.2561440     2.1034850     0.0567550
  H       -0.3898460     1.3710400    -1.5689960
units angstrom
no_reorient  #important for SAPT in psi4, default
symmetry c1  #important for SAPT in psi4, default
}

set PROPERTIES_ORIGIN ["COM"]
properties('MP2/aug-cc-pvtz', properties = ['dipole'])
--------------------------------------------------------------------------

    Molecular point group: c1
  Charge       = 1
  Multiplicity = 1
  Basis Set: AUG-CC-PVTZ
    Blend: AUG-CC-PVTZ
  Basis Set: (AUG-CC-PVTZ AUX)
    Blend: AUG-CC-PVTZ-JKFIT

    Orbital Energies [Eh]
    ---------------------

    Doubly Occupied:

       1A    -15.870451     2A    -11.454331     3A    -11.454014
       4A    -11.453744     5A    -11.453731     6A     -1.508403
       7A     -1.173436     8A     -1.172044     9A     -1.170809
      10A     -1.021978    11A     -0.871516    12A     -0.868899
      13A     -0.868211    14A     -0.781968    15A     -0.779104
      16A     -0.735609    17A     -0.731425    18A     -0.728309
      19A     -0.722360    20A     -0.718249    21A     -0.717300

  @DF-RHF Final Energy:  -212.76285247396510

   => Energetics <=

    Nuclear Repulsion Energy =            213.9901157054811449
    One-Electron Energy =                -700.9941505576839518
    Two-Electron Energy =                 274.2411823782377382
    Total Energy =                       -212.7628524739650970
  Basis Set: (AUG-CC-PVTZ AUX)
    Blend: AUG-CC-PVTZ-RI
    Molecular point group: c1

    Geometry (in Angstrom), charge = 1, multiplicity = 1:

       Center              X                  Y                   Z               Mass
    ------------   -----------------  -----------------  -----------------  -----------------
         N           -0.002258213664     0.003592697302    -0.000052245048    14.003074004430
         C            1.487266786336     0.096284697302    -0.164305245048    12.000000000000
         C           -0.321720313664    -0.191537302698     1.453948354952    12.000000000000
         C           -0.518981213664    -1.173643302698    -0.775528245048    12.000000000000
         C           -0.641654213664     1.261082697302    -0.514001245048    12.000000000000
         H            1.849217786336     0.953934697302     0.402899754952     1.007825032230
         H            1.938685786336    -0.821744302698     0.212173754952     1.007825032230
         H            1.715523786336     0.221484697302    -1.222849245048     1.007825032230
         H           -1.418658213664    -0.235222302698     1.558874754952     1.007825032230
         H            0.133988786336    -1.084729302698     1.813912754952     1.007825032230
         H            0.044525786336     0.690949697302     2.004648754952     1.007825032230
         H           -1.600142213664    -1.229466302698    -0.647982245048     1.007825032230
         H           -0.270651213664    -1.035736302698    -1.827957245048     1.007825032230
         H           -0.047495213664    -2.078971302698    -0.392938245048     1.007825032230
         H           -1.721587213664     1.180902697302    -0.389064245048     1.007825032230
         H           -0.258402213664     2.107077697302     0.056702754952     1.007825032230
         H           -0.392104213664     1.374632697302    -1.569048245048     1.007825032230

  Basis Set: AUG-CC-PVTZ
    Blend: AUG-CC-PVTZ
  Basis Set: (AUG-CC-PVTZ AUX)
    Blend: AUG-CC-PVTZ-JKFIT
	 Reference Energy          =    -212.7628524739650970 [Eh]
	 Singles Energy            =      -0.0000000000000000 [Eh]
	 Same-Spin Energy          =      -0.2168643909970403 [Eh]
	 Opposite-Spin Energy      =      -0.8148523029380238 [Eh]
	 Correlation Energy        =      -1.0317166939350642 [Eh]
	 Total Energy              =    -213.7945691679001641 [Eh]

	 ================> DF-SCS-MP2 Energies <==================
	-----------------------------------------------------------
	 SCS Same-Spin Scale       =       0.3333333333333333 [-]
	 SCS Opposite-Spin Scale   =       1.2000000000000000 [-]
	 SCS Same-Spin Energy      =      -0.0722881303323468 [Eh]
	 SCS Opposite-Spin Energy  =      -0.9778227635256285 [Eh]
	 SCS Correlation Energy    =      -1.0501108938579753 [Eh]
	 SCS Total Energy          =    -213.8129633678230732 [Eh]
	-----------------------------------------------------------

  Dipole Moment: [D]
     X:    -0.0067      Y:     0.0113      Z:    -0.0015     Total:     0.0132

*** Psi4 exiting successfully. Buy a developer a beer!
