                               Psi4 1.4a3.dev225

  ==> Input File <==

--------------------------------------------------------------------------
#psi4
#
memory 32 gb

molecule  {
1 1
  N       -0.0151029     0.0158342    -0.0144169
  C        1.4895250     0.0926920    -0.1642530
  C       -0.3334060    -0.1729460     1.4536780
  C       -0.5167230    -1.1772360    -0.7754760
  C       -0.6393960     1.2574900    -0.5139490
  H        1.8514760     0.9503420     0.4029520
  H        1.9409440    -0.8253370     0.2122260
  H        1.7177820     0.2178920    -1.2227970
  H       -1.4164000    -0.2388150     1.5589270
  H        0.1362470    -1.0883220     1.8139650
  H        0.0467840     0.6873570     2.0047010
  H       -1.5978840    -1.2330590    -0.6479300
  H       -0.2683930    -1.0393290    -1.8279050
  H       -0.0452370    -2.0825640    -0.3928860
  H       -1.7193290     1.1773100    -0.3890120
  H       -0.2561440     2.1034850     0.0567550
  H       -0.3898460     1.3710400    -1.5689960
units angstrom
no_reorient  #important for SAPT in psi4, default
symmetry c1  #important for SAPT in psi4, default
}

set PROPERTIES_ORIGIN ["COM"]
properties('MP2/aug-cc-pvtz', properties = ['dipole'])
--------------------------------------------------------------------------

    Molecular point group: c1
  Charge       = 1
  Multiplicity = 1
  Basis Set: AUG-CC-PVTZ
    Blend: AUG-CC-PVTZ
  Basis Set: (AUG-CC-PVTZ AUX)
    Blend: AUG-CC-PVTZ-JKFIT

    Orbital Energies [Eh]
    ---------------------

    Doubly Occupied:

       1A    -15.870340     2A    -11.455013     3A    -11.455000
       4A    -11.453938     5A    -11.451783     6A     -1.508514
       7A     -1.175693     8A     -1.171101     9A     -1.169493
      10A     -1.021793    11A     -0.870383    12A     -0.869830
      13A     -0.868268    14A     -0.780513    15A     -0.780456
      16A     -0.731432    17A     -0.731427    18A     -0.731417
      19A     -0.728166    20A     -0.717383    21A     -0.713534

  @DF-RHF Final Energy:  -212.76295179154042

   => Energetics <=

    Nuclear Repulsion Energy =            213.9883265662714962
    One-Electron Energy =                -700.9915986486049633
    Two-Electron Energy =                 274.2403202907930790
    Total Energy =                       -212.7629517915403881
  Basis Set: (AUG-CC-PVTZ AUX)
    Blend: AUG-CC-PVTZ-RI
    Molecular point group: c1

    Geometry (in Angstrom), charge = 1, multiplicity = 1:

       Center              X                  Y                   Z               Mass
    ------------   -----------------  -----------------  -----------------  -----------------
         N           -0.012248707530     0.012841804208    -0.011692349919    14.003074004430
         C            1.492379192470     0.089699604208    -0.161528449919    12.000000000000
         C           -0.330551807530    -0.175938395792     1.456402550081    12.000000000000
         C           -0.513868807530    -1.180228395792    -0.772751449919    12.000000000000
         C           -0.636541807530     1.254497604208    -0.511224449919    12.000000000000
         H            1.854330192470     0.947349604208     0.405676550081     1.007825032230
         H            1.943798192470    -0.828329395792     0.214950550081     1.007825032230
         H            1.720636192470     0.214899604208    -1.220072449919     1.007825032230
         H           -1.413545807530    -0.241807395792     1.561651550081     1.007825032230
         H            0.139101192470    -1.091314395792     1.816689550081     1.007825032230
         H            0.049638192470     0.684364604208     2.007425550081     1.007825032230
         H           -1.595029807530    -1.236051395792    -0.645205449919     1.007825032230
         H           -0.265538807530    -1.042321395792    -1.825180449919     1.007825032230
         H           -0.042382807530    -2.085556395792    -0.390161449919     1.007825032230
         H           -1.716474807530     1.174317604208    -0.386287449919     1.007825032230
         H           -0.253289807530     2.100492604208     0.059479550081     1.007825032230
         H           -0.386991807530     1.368047604208    -1.566271449919     1.007825032230

  Basis Set: AUG-CC-PVTZ
    Blend: AUG-CC-PVTZ
  Basis Set: (AUG-CC-PVTZ AUX)
    Blend: AUG-CC-PVTZ-JKFIT
	 Reference Energy          =    -212.7629517915404165 [Eh]
	 Singles Energy            =      -0.0000000000000000 [Eh]
	 Same-Spin Energy          =      -0.2168800582026711 [Eh]
	 Opposite-Spin Energy      =      -0.8148731496471462 [Eh]
	 Correlation Energy        =      -1.0317532078498173 [Eh]
	 Total Energy              =    -213.7947049993902340 [Eh]

	 ================> DF-SCS-MP2 Energies <==================
	-----------------------------------------------------------
	 SCS Same-Spin Scale       =       0.3333333333333333 [-]
	 SCS Opposite-Spin Scale   =       1.2000000000000000 [-]
	 SCS Same-Spin Energy      =      -0.0722933527342237 [Eh]
	 SCS Opposite-Spin Energy  =      -0.9778477795765754 [Eh]
	 SCS Correlation Energy    =      -1.0501411323107992 [Eh]
	 SCS Total Energy          =    -213.8130929238512294 [Eh]
	-----------------------------------------------------------

  Dipole Moment: [D]
     X:     0.0390      Y:    -0.0409      Z:     0.0372     Total:     0.0676

*** Psi4 exiting successfully. Buy a developer a beer!
