                               Psi4 1.4a3.dev225

  ==> Input File <==

--------------------------------------------------------------------------
#psi4
#
memory 32 gb

molecule  {
1 1
  N        0.0587923    -0.0668730     0.0552625
  C        1.4895250     0.0926920    -0.1642530
  C       -0.3334060    -0.1729460     1.4536780
  C       -0.5167230    -1.1772360    -0.7754760
  C       -0.6393960     1.2574900    -0.5139490
  H        1.8514760     0.9503420     0.4029520
  H        1.9409440    -0.8253370     0.2122260
  H        1.7177820     0.2178920    -1.2227970
  H       -1.4164000    -0.2388150     1.5589270
  H        0.1362470    -1.0883220     1.8139650
  H        0.0467840     0.6873570     2.0047010
  H       -1.5978840    -1.2330590    -0.6479300
  H       -0.2683930    -1.0393290    -1.8279050
  H       -0.0452370    -2.0825640    -0.3928860
  H       -1.7193290     1.1773100    -0.3890120
  H       -0.2561440     2.1034850     0.0567550
  H       -0.3898460     1.3710400    -1.5689960
units angstrom
no_reorient  #important for SAPT in psi4, default
symmetry c1  #important for SAPT in psi4, default
}

set PROPERTIES_ORIGIN ["COM"]
properties('MP2/aug-cc-pvtz', properties = ['dipole'])
--------------------------------------------------------------------------

    Molecular point group: c1
  Charge       = 1
  Multiplicity = 1
  Basis Set: AUG-CC-PVTZ
    Blend: AUG-CC-PVTZ
  Basis Set: (AUG-CC-PVTZ AUX)
    Blend: AUG-CC-PVTZ-JKFIT

    Orbital Energies [Eh]
    ---------------------

    Doubly Occupied:

       1A    -15.869465     2A    -11.462088     3A    -11.454258
       4A    -11.450270     5A    -11.450255     6A     -1.510198
       7A     -1.182687     8A     -1.175672     9A     -1.159645
      10A     -1.020668    11A     -0.874501    12A     -0.869091
      13A     -0.866857    14A     -0.782007    15A     -0.781384
      16A     -0.741478    17A     -0.731933    18A     -0.731580
      19A     -0.731521    20A     -0.725087    21A     -0.684383

  @DF-RHF Final Energy:  -212.75248429050305

   => Energetics <=

    Nuclear Repulsion Energy =            213.9796155300020359
    One-Electron Energy =                -700.9541463163071739
    Two-Electron Energy =                 274.2220464958020898
    Total Energy =                       -212.7524842905030482
  Basis Set: (AUG-CC-PVTZ AUX)
    Blend: AUG-CC-PVTZ-RI
    Molecular point group: c1

    Geometry (in Angstrom), charge = 1, multiplicity = 1:

       Center              X                  Y                   Z               Mass
    ------------   -----------------  -----------------  -----------------  -----------------
         N            0.047681550411    -0.054235134883     0.044818822866    14.003074004430
         C            1.478414250411     0.105329865117    -0.174696677134    12.000000000000
         C           -0.344516749589    -0.160308134883     1.443234322866    12.000000000000
         C           -0.527833749589    -1.164598134883    -0.785919677134    12.000000000000
         C           -0.650506749589     1.270127865117    -0.524392677134    12.000000000000
         H            1.840365250411     0.962979865117     0.392508322866     1.007825032230
         H            1.929833250411    -0.812699134883     0.201782322866     1.007825032230
         H            1.706671250411     0.230529865117    -1.233240677134     1.007825032230
         H           -1.427510749589    -0.226177134883     1.548483322866     1.007825032230
         H            0.125136250411    -1.075684134883     1.803521322866     1.007825032230
         H            0.035673250411     0.699994865117     1.994257322866     1.007825032230
         H           -1.608994749589    -1.220421134883    -0.658373677134     1.007825032230
         H           -0.279503749589    -1.026691134883    -1.838348677134     1.007825032230
         H           -0.056347749589    -2.069926134883    -0.403329677134     1.007825032230
         H           -1.730439749589     1.189947865117    -0.399455677134     1.007825032230
         H           -0.267254749589     2.116122865117     0.046311322866     1.007825032230
         H           -0.400956749589     1.383677865117    -1.579439677134     1.007825032230

  Basis Set: AUG-CC-PVTZ
    Blend: AUG-CC-PVTZ
  Basis Set: (AUG-CC-PVTZ AUX)
    Blend: AUG-CC-PVTZ-JKFIT
	 Reference Energy          =    -212.7524842905030482 [Eh]
	 Singles Energy            =      -0.0000000000000000 [Eh]
	 Same-Spin Energy          =      -0.2173373055858936 [Eh]
	 Opposite-Spin Energy      =      -0.8158364476575335 [Eh]
	 Correlation Energy        =      -1.0331737532434271 [Eh]
	 Total Energy              =    -213.7856580437464800 [Eh]

	 ================> DF-SCS-MP2 Energies <==================
	-----------------------------------------------------------
	 SCS Same-Spin Scale       =       0.3333333333333333 [-]
	 SCS Opposite-Spin Scale   =       1.2000000000000000 [-]
	 SCS Same-Spin Energy      =      -0.0724457685286312 [Eh]
	 SCS Opposite-Spin Energy  =      -0.9790037371890401 [Eh]
	 SCS Correlation Energy    =      -1.0514495057176714 [Eh]
	 SCS Total Energy          =    -213.8039337962207185 [Eh]
	-----------------------------------------------------------

  Dipole Moment: [D]
     X:    -0.1490      Y:     0.1678      Z:    -0.1404     Total:     0.2647

*** Psi4 exiting successfully. Buy a developer a beer!
