                               Psi4 1.4a3.dev225

  ==> Input File <==

--------------------------------------------------------------------------
#psi4
#
memory 32 gb

molecule  {
1 1
  N        0.0149455    -0.0161928     0.0141807
  C        1.4895250     0.0926920    -0.1642530
  C       -0.3334060    -0.1729460     1.4536780
  C       -0.5167230    -1.1772360    -0.7754760
  C       -0.6393960     1.2574900    -0.5139490
  H        1.8514760     0.9503420     0.4029520
  H        1.9409440    -0.8253370     0.2122260
  H        1.7177820     0.2178920    -1.2227970
  H       -1.4164000    -0.2388150     1.5589270
  H        0.1362470    -1.0883220     1.8139650
  H        0.0467840     0.6873570     2.0047010
  H       -1.5978840    -1.2330590    -0.6479300
  H       -0.2683930    -1.0393290    -1.8279050
  H       -0.0452370    -2.0825640    -0.3928860
  H       -1.7193290     1.1773100    -0.3890120
  H       -0.2561440     2.1034850     0.0567550
  H       -0.3898460     1.3710400    -1.5689960
units angstrom
no_reorient  #important for SAPT in psi4, default
symmetry c1  #important for SAPT in psi4, default
}

set PROPERTIES_ORIGIN ["COM"]
properties('MP2/aug-cc-pvtz', properties = ['dipole'])
--------------------------------------------------------------------------

    Molecular point group: c1
  Charge       = 1
  Multiplicity = 1
  Basis Set: AUG-CC-PVTZ
    Blend: AUG-CC-PVTZ
  Basis Set: (AUG-CC-PVTZ AUX)
    Blend: AUG-CC-PVTZ-JKFIT

    Orbital Energies [Eh]
    ---------------------

    Doubly Occupied:

       1A    -15.870344     2A    -11.456019     3A    -11.453938
       4A    -11.452897     5A    -11.452883     6A     -1.508502
       7A     -1.174676     8A     -1.172999     9A     -1.168616
      10A     -1.021795    11A     -0.870664    12A     -0.869184
      13A     -0.868624    14A     -0.780517    15A     -0.780464
      16A     -0.731437    17A     -0.731432    18A     -0.731411
      19A     -0.725858    20A     -0.721898    21A     -0.711320

  @DF-RHF Final Energy:  -212.76297219282864

   => Energetics <=

    Nuclear Repulsion Energy =            213.9880706187222188
    One-Electron Energy =                -700.9911295102823487
    Two-Electron Energy =                 274.2400866987315453
    Total Energy =                       -212.7629721928286131
  Basis Set: (AUG-CC-PVTZ AUX)
    Blend: AUG-CC-PVTZ-RI
    Molecular point group: c1

    Geometry (in Angstrom), charge = 1, multiplicity = 1:

       Center              X                  Y                   Z               Mass
    ------------   -----------------  -----------------  -----------------  -----------------
         N            0.012121053466    -0.013132634877     0.011500787721    14.003074004430
         C            1.486700553466     0.095752165123    -0.166932912279    12.000000000000
         C           -0.336230446534    -0.169885834877     1.450998087721    12.000000000000
         C           -0.519547446534    -1.174175834877    -0.778155912279    12.000000000000
         C           -0.642220446534     1.260550165123    -0.516628912279    12.000000000000
         H            1.848651553466     0.953402165123     0.400272087721     1.007825032230
         H            1.938119553466    -0.822276834877     0.209546087721     1.007825032230
         H            1.714957553466     0.220952165123    -1.225476912279     1.007825032230
         H           -1.419224446534    -0.235754834877     1.556247087721     1.007825032230
         H            0.133422553466    -1.085261834877     1.811285087721     1.007825032230
         H            0.043959553466     0.690417165123     2.002021087721     1.007825032230
         H           -1.600708446534    -1.229998834877    -0.650609912279     1.007825032230
         H           -0.271217446534    -1.036268834877    -1.830584912279     1.007825032230
         H           -0.048061446534    -2.079503834877    -0.395565912279     1.007825032230
         H           -1.722153446534     1.180370165123    -0.391691912279     1.007825032230
         H           -0.258968446534     2.106545165123     0.054075087721     1.007825032230
         H           -0.392670446534     1.374100165123    -1.571675912279     1.007825032230

  Basis Set: AUG-CC-PVTZ
    Blend: AUG-CC-PVTZ
  Basis Set: (AUG-CC-PVTZ AUX)
    Blend: AUG-CC-PVTZ-JKFIT
	 Reference Energy          =    -212.7629721928286415 [Eh]
	 Singles Energy            =      -0.0000000000000000 [Eh]
	 Same-Spin Energy          =      -0.2168795290951283 [Eh]
	 Opposite-Spin Energy      =      -0.8148726211259387 [Eh]
	 Correlation Energy        =      -1.0317521502210671 [Eh]
	 Total Energy              =    -213.7947243430497224 [Eh]

	 ================> DF-SCS-MP2 Energies <==================
	-----------------------------------------------------------
	 SCS Same-Spin Scale       =       0.3333333333333333 [-]
	 SCS Opposite-Spin Scale   =       1.2000000000000000 [-]
	 SCS Same-Spin Energy      =      -0.0722931763650428 [Eh]
	 SCS Opposite-Spin Energy  =      -0.9778471453511264 [Eh]
	 SCS Correlation Energy    =      -1.0501403217161691 [Eh]
	 SCS Total Energy          =    -213.8131125145447982 [Eh]
	-----------------------------------------------------------

  Dipole Moment: [D]
     X:    -0.0385      Y:     0.0416      Z:    -0.0365     Total:     0.0674

*** Psi4 exiting successfully. Buy a developer a beer!
