                               Psi4 1.4a3.dev225

  ==> Input File <==

--------------------------------------------------------------------------
#psi4
#
memory 32 gb

molecule  {
1 1
  N        0.0000000     0.0000000     0.0000000
  C        1.4895250     0.0926920    -0.1642530
  C       -0.3378472    -0.1752498     1.4730421
  C       -0.5167230    -1.1772360    -0.7754760
  C       -0.6393960     1.2574900    -0.5139490
  H        1.8514760     0.9503420     0.4029520
  H        1.9409440    -0.8253370     0.2122260
  H        1.7177820     0.2178920    -1.2227970
  H       -1.4164000    -0.2388150     1.5589270
  H        0.1362470    -1.0883220     1.8139650
  H        0.0467840     0.6873570     2.0047010
  H       -1.5978840    -1.2330590    -0.6479300
  H       -0.2683930    -1.0393290    -1.8279050
  H       -0.0452370    -2.0825640    -0.3928860
  H       -1.7193290     1.1773100    -0.3890120
  H       -0.2561440     2.1034850     0.0567550
  H       -0.3898460     1.3710400    -1.5689960
units angstrom
no_reorient  #important for SAPT in psi4, default
symmetry c1  #important for SAPT in psi4, default
}

set PROPERTIES_ORIGIN ["COM"]
properties('MP2/aug-cc-pvtz', properties = ['dipole'])
--------------------------------------------------------------------------

    Molecular point group: c1
  Charge       = 1
  Multiplicity = 1
  Basis Set: AUG-CC-PVTZ
    Blend: AUG-CC-PVTZ
  Basis Set: (AUG-CC-PVTZ AUX)
    Blend: AUG-CC-PVTZ-JKFIT

    Orbital Energies [Eh]
    ---------------------

    Doubly Occupied:

       1A    -15.869383     2A    -11.454657     3A    -11.453363
       4A    -11.453363     5A    -11.453342     6A     -1.504352
       7A     -1.171578     8A     -1.171052     9A     -1.171052
      10A     -1.021638    11A     -0.868305    12A     -0.868305
      13A     -0.867530    14A     -0.781088    15A     -0.781088
      16A     -0.733770    17A     -0.733770    18A     -0.730890
      19A     -0.720385    20A     -0.720385    21A     -0.715328

  @DF-RHF Final Energy:  -212.76340025845002

   => Energetics <=

    Nuclear Repulsion Energy =            213.6420076229014171
    One-Electron Energy =                -700.3215660422284827
    Two-Electron Energy =                 273.9161581608770462
    Total Energy =                       -212.7634002584500195
  Basis Set: (AUG-CC-PVTZ AUX)
    Blend: AUG-CC-PVTZ-RI
    Molecular point group: c1

    Geometry (in Angstrom), charge = 1, multiplicity = 1:

       Center              X                  Y                   Z               Mass
    ------------   -----------------  -----------------  -----------------  -----------------
         N            0.000719252040     0.000373100254    -0.003136014688    14.003074004430
         C            1.490244252040     0.093065100254    -0.167389014688    12.000000000000
         C           -0.337127947960    -0.174876699746     1.469906085312    12.000000000000
         C           -0.516003747960    -1.176862899746    -0.778612014688    12.000000000000
         C           -0.638676747960     1.257863100254    -0.517085014688    12.000000000000
         H            1.852195252040     0.950715100254     0.399815985312     1.007825032230
         H            1.941663252040    -0.824963899746     0.209089985312     1.007825032230
         H            1.718501252040     0.218265100254    -1.225933014688     1.007825032230
         H           -1.415680747960    -0.238441899746     1.555790985312     1.007825032230
         H            0.136966252040    -1.087948899746     1.810828985312     1.007825032230
         H            0.047503252040     0.687730100254     2.001564985312     1.007825032230
         H           -1.597164747960    -1.232685899746    -0.651066014688     1.007825032230
         H           -0.267673747960    -1.038955899746    -1.831041014688     1.007825032230
         H           -0.044517747960    -2.082190899746    -0.396022014688     1.007825032230
         H           -1.718609747960     1.177683100254    -0.392148014688     1.007825032230
         H           -0.255424747960     2.103858100254     0.053618985312     1.007825032230
         H           -0.389126747960     1.371413100254    -1.572132014688     1.007825032230

  Basis Set: AUG-CC-PVTZ
    Blend: AUG-CC-PVTZ
  Basis Set: (AUG-CC-PVTZ AUX)
    Blend: AUG-CC-PVTZ-JKFIT
	 Reference Energy          =    -212.7634002584500195 [Eh]
	 Singles Energy            =      -0.0000000000000000 [Eh]
	 Same-Spin Energy          =      -0.2167185805027921 [Eh]
	 Opposite-Spin Energy      =      -0.8148293812590430 [Eh]
	 Correlation Energy        =      -1.0315479617618353 [Eh]
	 Total Energy              =    -213.7949482202118645 [Eh]

	 ================> DF-SCS-MP2 Energies <==================
	-----------------------------------------------------------
	 SCS Same-Spin Scale       =       0.3333333333333333 [-]
	 SCS Opposite-Spin Scale   =       1.2000000000000000 [-]
	 SCS Same-Spin Energy      =      -0.0722395268342640 [Eh]
	 SCS Opposite-Spin Energy  =      -0.9777952575108516 [Eh]
	 SCS Correlation Energy    =      -1.0500347843451157 [Eh]
	 SCS Total Energy          =    -213.8134350427951347 [Eh]
	-----------------------------------------------------------

  Dipole Moment: [D]
     X:    -0.0057      Y:    -0.0030      Z:     0.0250     Total:     0.0259

*** Psi4 exiting successfully. Buy a developer a beer!
