                               Psi4 1.4a3.dev225

  ==> Input File <==

--------------------------------------------------------------------------
#psi4
#
memory 32 gb

molecule  {
1 1
  N        0.0000000     0.0000000     0.0000000
  C        1.4895250     0.0926920    -0.1642530
  C       -0.3556121    -0.1844649     1.5504985
  C       -0.5167230    -1.1772360    -0.7754760
  C       -0.6393960     1.2574900    -0.5139490
  H        1.8514760     0.9503420     0.4029520
  H        1.9409440    -0.8253370     0.2122260
  H        1.7177820     0.2178920    -1.2227970
  H       -1.4164000    -0.2388150     1.5589270
  H        0.1362470    -1.0883220     1.8139650
  H        0.0467840     0.6873570     2.0047010
  H       -1.5978840    -1.2330590    -0.6479300
  H       -0.2683930    -1.0393290    -1.8279050
  H       -0.0452370    -2.0825640    -0.3928860
  H       -1.7193290     1.1773100    -0.3890120
  H       -0.2561440     2.1034850     0.0567550
  H       -0.3898460     1.3710400    -1.5689960
units angstrom
no_reorient  #important for SAPT in psi4, default
symmetry c1  #important for SAPT in psi4, default
}

set PROPERTIES_ORIGIN ["COM"]
properties('MP2/aug-cc-pvtz', properties = ['dipole'])
--------------------------------------------------------------------------

    Molecular point group: c1
  Charge       = 1
  Multiplicity = 1
  Basis Set: AUG-CC-PVTZ
    Blend: AUG-CC-PVTZ
  Basis Set: (AUG-CC-PVTZ AUX)
    Blend: AUG-CC-PVTZ-JKFIT

    Orbital Energies [Eh]
    ---------------------

    Doubly Occupied:

       1A    -15.864156     2A    -11.459155     3A    -11.450964
       4A    -11.450964     5A    -11.450943     6A     -1.489907
       7A     -1.171211     8A     -1.167023     9A     -1.167023
      10A     -1.019955    11A     -0.864354    12A     -0.864353
      13A     -0.860353    14A     -0.786046    15A     -0.786046
      16A     -0.742885    17A     -0.742885    18A     -0.728694
      19A     -0.718631    20A     -0.718631    21A     -0.696116

  @DF-RHF Final Energy:  -212.75652072313309

   => Energetics <=

    Nuclear Repulsion Energy =            212.3002846125820042
    One-Electron Energy =                -697.7130224182079701
    Two-Electron Energy =                 272.6562170824928444
    Total Energy =                       -212.7565207231331215
  Basis Set: (AUG-CC-PVTZ AUX)
    Blend: AUG-CC-PVTZ-RI
    Molecular point group: c1

    Geometry (in Angstrom), charge = 1, multiplicity = 1:

       Center              X                  Y                   Z               Mass
    ------------   -----------------  -----------------  -----------------  -----------------
         N            0.003596276396     0.001865485077    -0.015680073438    14.003074004430
         C            1.493121276396     0.094557485077    -0.179933073438    12.000000000000
         C           -0.352015823604    -0.182599414923     1.534818426562    12.000000000000
         C           -0.513126723604    -1.175370514923    -0.791156073438    12.000000000000
         C           -0.635799723604     1.259355485077    -0.529629073438    12.000000000000
         H            1.855072276396     0.952207485077     0.387271926562     1.007825032230
         H            1.944540276396    -0.823471514923     0.196545926562     1.007825032230
         H            1.721378276396     0.219757485077    -1.238477073438     1.007825032230
         H           -1.412803723604    -0.236949514923     1.543246926562     1.007825032230
         H            0.139843276396    -1.086456514923     1.798284926562     1.007825032230
         H            0.050380276396     0.689222485077     1.989020926562     1.007825032230
         H           -1.594287723604    -1.231193514923    -0.663610073438     1.007825032230
         H           -0.264796723604    -1.037463514923    -1.843585073438     1.007825032230
         H           -0.041640723604    -2.080698514923    -0.408566073438     1.007825032230
         H           -1.715732723604     1.179175485077    -0.404692073438     1.007825032230
         H           -0.252547723604     2.105350485077     0.041074926562     1.007825032230
         H           -0.386249723604     1.372905485077    -1.584676073438     1.007825032230

  Basis Set: AUG-CC-PVTZ
    Blend: AUG-CC-PVTZ
  Basis Set: (AUG-CC-PVTZ AUX)
    Blend: AUG-CC-PVTZ-JKFIT
	 Reference Energy          =    -212.7565207231330930 [Eh]
	 Singles Energy            =      -0.0000000000000000 [Eh]
	 Same-Spin Energy          =      -0.2164171015888468 [Eh]
	 Opposite-Spin Energy      =      -0.8152860405210577 [Eh]
	 Correlation Energy        =      -1.0317031421099045 [Eh]
	 Total Energy              =    -213.7882238652429976 [Eh]

	 ================> DF-SCS-MP2 Energies <==================
	-----------------------------------------------------------
	 SCS Same-Spin Scale       =       0.3333333333333333 [-]
	 SCS Opposite-Spin Scale   =       1.2000000000000000 [-]
	 SCS Same-Spin Energy      =      -0.0721390338629489 [Eh]
	 SCS Opposite-Spin Energy  =      -0.9783432486252692 [Eh]
	 SCS Correlation Energy    =      -1.0504822824882181 [Eh]
	 SCS Total Energy          =    -213.8070030056213113 [Eh]
	-----------------------------------------------------------

  Dipole Moment: [D]
     X:    -0.0312      Y:    -0.0162      Z:     0.1359     Total:     0.1404

*** Psi4 exiting successfully. Buy a developer a beer!
