                               Psi4 1.4a3.dev225

  ==> Input File <==

--------------------------------------------------------------------------
#psi4
#
memory 32 gb

molecule  {
1 1
  N        0.0000000     0.0000000     0.0000000
  C        1.4895250     0.0926920    -0.1642530
  C       -0.3334060    -0.1729460     1.4536780
  C       -0.5167230    -1.1772360    -0.7754760
  C       -0.6393960     1.2574900    -0.5139490
  H        1.8514760     0.9503420     0.4029520
  H        1.9409440    -0.8253370     0.2122260
  H        1.7177820     0.2178920    -1.2227970
  H       -1.4121849    -0.2736619     1.5736131
  H        0.1362470    -1.0883220     1.8139650
  H        0.0467840     0.6873570     2.0047010
  H       -1.5978840    -1.2330590    -0.6479300
  H       -0.2683930    -1.0393290    -1.8279050
  H       -0.0452370    -2.0825640    -0.3928860
  H       -1.7193290     1.1773100    -0.3890120
  H       -0.2561440     2.1034850     0.0567550
  H       -0.3898460     1.3710400    -1.5689960
units angstrom
no_reorient  #important for SAPT in psi4, default
symmetry c1  #important for SAPT in psi4, default
}

set PROPERTIES_ORIGIN ["COM"]
properties('MP2/aug-cc-pvtz', properties = ['dipole'])
--------------------------------------------------------------------------

    Molecular point group: c1
  Charge       = 1
  Multiplicity = 1
  Basis Set: AUG-CC-PVTZ
    Blend: AUG-CC-PVTZ
  Basis Set: (AUG-CC-PVTZ AUX)
    Blend: AUG-CC-PVTZ-JKFIT

    Orbital Energies [Eh]
    ---------------------

    Doubly Occupied:

       1A    -15.870682     2A    -11.454022     3A    -11.453981
       4A    -11.453826     5A    -11.453715     6A     -1.508361
       7A     -1.172185     8A     -1.172104     9A     -1.171768
      10A     -1.022108    11A     -0.870369    12A     -0.869391
      13A     -0.868745    14A     -0.781218    15A     -0.779312
      16A     -0.732510    17A     -0.731394    18A     -0.729963
      19A     -0.720670    20A     -0.719883    21A     -0.718953

  @DF-RHF Final Energy:  -212.76357978536117

   => Energetics <=

    Nuclear Repulsion Energy =            213.9592633541746238
    One-Electron Energy =                -700.9353682063374436
    Two-Electron Energy =                 274.2125250668016747
    Total Energy =                       -212.7635797853611734
  Basis Set: (AUG-CC-PVTZ AUX)
    Blend: AUG-CC-PVTZ-RI
    Molecular point group: c1

    Geometry (in Angstrom), charge = 1, multiplicity = 1:

       Center              X                  Y                   Z               Mass
    ------------   -----------------  -----------------  -----------------  -----------------
         N           -0.000057331400     0.000473967775    -0.000199752005    14.003074004430
         C            1.489467668600     0.093165967775    -0.164452752005    12.000000000000
         C           -0.333463331400    -0.172472032225     1.453478247995    12.000000000000
         C           -0.516780331400    -1.176762032225    -0.775675752005    12.000000000000
         C           -0.639453331400     1.257963967775    -0.514148752005    12.000000000000
         H            1.851418668600     0.950815967775     0.402752247995     1.007825032230
         H            1.940886668600    -0.824863032225     0.212026247995     1.007825032230
         H            1.717724668600     0.218365967775    -1.222996752005     1.007825032230
         H           -1.412242231400    -0.273187932225     1.573413347995     1.007825032230
         H            0.136189668600    -1.087848032225     1.813765247995     1.007825032230
         H            0.046726668600     0.687830967775     2.004501247995     1.007825032230
         H           -1.597941331400    -1.232585032225    -0.648129752005     1.007825032230
         H           -0.268450331400    -1.038855032225    -1.828104752005     1.007825032230
         H           -0.045294331400    -2.082090032225    -0.393085752005     1.007825032230
         H           -1.719386331400     1.177783967775    -0.389211752005     1.007825032230
         H           -0.256201331400     2.103958967775     0.056555247995     1.007825032230
         H           -0.389903331400     1.371513967775    -1.569195752005     1.007825032230

  Basis Set: AUG-CC-PVTZ
    Blend: AUG-CC-PVTZ
  Basis Set: (AUG-CC-PVTZ AUX)
    Blend: AUG-CC-PVTZ-JKFIT
	 Reference Energy          =    -212.7635797853611734 [Eh]
	 Singles Energy            =      -0.0000000000000000 [Eh]
	 Same-Spin Energy          =      -0.2168377751058082 [Eh]
	 Opposite-Spin Energy      =      -0.8147824465874547 [Eh]
	 Correlation Energy        =      -1.0316202216932628 [Eh]
	 Total Energy              =    -213.7952000070544329 [Eh]

	 ================> DF-SCS-MP2 Energies <==================
	-----------------------------------------------------------
	 SCS Same-Spin Scale       =       0.3333333333333333 [-]
	 SCS Opposite-Spin Scale   =       1.2000000000000000 [-]
	 SCS Same-Spin Energy      =      -0.0722792583686027 [Eh]
	 SCS Opposite-Spin Energy  =      -0.9777389359049455 [Eh]
	 SCS Correlation Energy    =      -1.0500181942735483 [Eh]
	 SCS Total Energy          =    -213.8135979796347215 [Eh]
	-----------------------------------------------------------

  Dipole Moment: [D]
     X:    -0.0026      Y:    -0.0145      Z:     0.0017     Total:     0.0148

*** Psi4 exiting successfully. Buy a developer a beer!
