                               Psi4 1.4a3.dev225

  ==> Input File <==

--------------------------------------------------------------------------
#psi4
#
memory 32 gb

molecule  {
1 1
  N       -0.0928157     0.0894615    -0.0898884
  C        1.4895250     0.0926920    -0.1642530
  C       -0.3334060    -0.1729460     1.4536780
  C       -0.5167230    -1.1772360    -0.7754760
  C       -0.6393960     1.2574900    -0.5139490
  H        1.8514760     0.9503420     0.4029520
  H        1.9409440    -0.8253370     0.2122260
  H        1.7177820     0.2178920    -1.2227970
  H       -1.4164000    -0.2388150     1.5589270
  H        0.1362470    -1.0883220     1.8139650
  H        0.0467840     0.6873570     2.0047010
  H       -1.5978840    -1.2330590    -0.6479300
  H       -0.2683930    -1.0393290    -1.8279050
  H       -0.0452370    -2.0825640    -0.3928860
  H       -1.7193290     1.1773100    -0.3890120
  H       -0.2561440     2.1034850     0.0567550
  H       -0.3898460     1.3710400    -1.5689960
units angstrom
no_reorient  #important for SAPT in psi4, default
symmetry c1  #important for SAPT in psi4, default
}

set PROPERTIES_ORIGIN ["COM"]
properties('MP2/aug-cc-pvtz', properties = ['dipole'])
--------------------------------------------------------------------------

    Molecular point group: c1
  Charge       = 1
  Multiplicity = 1
  Basis Set: AUG-CC-PVTZ
    Blend: AUG-CC-PVTZ
  Basis Set: (AUG-CC-PVTZ AUX)
    Blend: AUG-CC-PVTZ-JKFIT

    Orbital Energies [Eh]
    ---------------------

    Doubly Occupied:

       1A    -15.867656     2A    -11.461110     3A    -11.461100
       4A    -11.454754     5A    -11.441006     6A     -1.514700
       7A     -1.195489     8A     -1.166184     9A     -1.157735
      10A     -1.018806    11A     -0.877168    12A     -0.873967
      13A     -0.863589    14A     -0.783139    15A     -0.781309
      16A     -0.764820    17A     -0.732536    18A     -0.732213
      19A     -0.731748    20A     -0.698243    21A     -0.677542

  @DF-RHF Final Energy:  -212.73479603091710

   => Energetics <=

    Nuclear Repulsion Energy =            214.0129815452101241
    One-Electron Energy =                -700.9859267024561404
    Two-Electron Energy =                 274.2381491263289490
    Total Energy =                       -212.7347960309170958
  Basis Set: (AUG-CC-PVTZ AUX)
    Blend: AUG-CC-PVTZ-RI
    Molecular point group: c1

    Geometry (in Angstrom), charge = 1, multiplicity = 1:

       Center              X                  Y                   Z               Mass
    ------------   -----------------  -----------------  -----------------  -----------------
         N           -0.075275103686     0.072554790713    -0.072901013839    14.003074004430
         C            1.507065596314     0.075785290713    -0.147265613839    12.000000000000
         C           -0.315865403686    -0.189852709287     1.470665386161    12.000000000000
         C           -0.499182403686    -1.194142709287    -0.758488613839    12.000000000000
         C           -0.621855403686     1.240583290713    -0.496961613839    12.000000000000
         H            1.869016596314     0.933435290713     0.419939386161     1.007825032230
         H            1.958484596314    -0.842243709287     0.229213386161     1.007825032230
         H            1.735322596314     0.200985290713    -1.205809613839     1.007825032230
         H           -1.398859403686    -0.255721709287     1.575914386161     1.007825032230
         H            0.153787596314    -1.105228709287     1.830952386161     1.007825032230
         H            0.064324596314     0.670450290713     2.021688386161     1.007825032230
         H           -1.580343403686    -1.249965709287    -0.630942613839     1.007825032230
         H           -0.250852403686    -1.056235709287    -1.810917613839     1.007825032230
         H           -0.027696403686    -2.099470709287    -0.375898613839     1.007825032230
         H           -1.701788403686     1.160403290713    -0.372024613839     1.007825032230
         H           -0.238603403686     2.086578290713     0.073742386161     1.007825032230
         H           -0.372305403686     1.354133290713    -1.552008613839     1.007825032230

  Basis Set: AUG-CC-PVTZ
    Blend: AUG-CC-PVTZ
  Basis Set: (AUG-CC-PVTZ AUX)
    Blend: AUG-CC-PVTZ-JKFIT
	 Reference Energy          =    -212.7347960309170958 [Eh]
	 Singles Energy            =      -0.0000000000000000 [Eh]
	 Same-Spin Energy          =      -0.2180459223187755 [Eh]
	 Opposite-Spin Energy      =      -0.8172028618728868 [Eh]
	 Correlation Energy        =      -1.0352487841916622 [Eh]
	 Total Energy              =    -213.7700448151087471 [Eh]

	 ================> DF-SCS-MP2 Energies <==================
	-----------------------------------------------------------
	 SCS Same-Spin Scale       =       0.3333333333333333 [-]
	 SCS Opposite-Spin Scale   =       1.2000000000000000 [-]
	 SCS Same-Spin Energy      =      -0.0726819741062585 [Eh]
	 SCS Opposite-Spin Energy  =      -0.9806434342474641 [Eh]
	 SCS Correlation Energy    =      -1.0533254083537227 [Eh]
	 SCS Total Energy          =    -213.7881214392708102 [Eh]
	-----------------------------------------------------------

  Dipole Moment: [D]
     X:     0.2321      Y:    -0.2267      Z:     0.2243     Total:     0.3944

*** Psi4 exiting successfully. Buy a developer a beer!
