                               Psi4 1.4a3.dev225

  ==> Input File <==

--------------------------------------------------------------------------
#psi4
#
memory 32 gb

molecule  {
1 1
  N        0.0000000     0.0000000     0.0000000
  C        1.4895250     0.0926920    -0.1642530
  C       -0.3334060    -0.1729460     1.4536780
  C       -0.5167230    -1.1772360    -0.7754760
  C       -0.6393960     1.2574900    -0.5139490
  H        1.8514760     0.9503420     0.4029520
  H        1.9409440    -0.8253370     0.2122260
  H        1.7177820     0.2178920    -1.2227970
  H       -1.4164000    -0.2388150     1.5589270
  H        0.1362470    -1.0883220     1.8139650
  H        0.0467840     0.6873570     2.0047010
  H       -1.5978840    -1.2330590    -0.6479300
  H       -0.2683930    -1.0393290    -1.8279050
  H       -0.0365866    -2.0991742    -0.3858666
  H       -1.7193290     1.1773100    -0.3890120
  H       -0.2561440     2.1034850     0.0567550
  H       -0.3898460     1.3710400    -1.5689960
units angstrom
no_reorient  #important for SAPT in psi4, default
symmetry c1  #important for SAPT in psi4, default
}

set PROPERTIES_ORIGIN ["COM"]
properties('MP2/aug-cc-pvtz', properties = ['dipole'])
--------------------------------------------------------------------------

    Molecular point group: c1
  Charge       = 1
  Multiplicity = 1
  Basis Set: AUG-CC-PVTZ
    Blend: AUG-CC-PVTZ
  Basis Set: (AUG-CC-PVTZ AUX)
    Blend: AUG-CC-PVTZ-JKFIT

    Orbital Energies [Eh]
    ---------------------

    Doubly Occupied:

       1A    -15.870522     2A    -11.456006     3A    -11.454012
       4A    -11.453884     5A    -11.453870     6A     -1.508340
       7A     -1.172101     8A     -1.172031     9A     -1.170511
      10A     -1.021273    11A     -0.869484    12A     -0.869466
      13A     -0.868175    14A     -0.780433    15A     -0.779301
      16A     -0.731441    17A     -0.731397    18A     -0.729615
      19A     -0.719939    20A     -0.719912    21A     -0.718839

  @DF-RHF Final Energy:  -212.76313614093610

   => Energetics <=

    Nuclear Repulsion Energy =            213.9024312701792780
    One-Electron Energy =                -700.8300293840654831
    Two-Electron Energy =                 274.1644619729501642
    Total Energy =                       -212.7631361409360693
  Basis Set: (AUG-CC-PVTZ AUX)
    Blend: AUG-CC-PVTZ-RI
    Molecular point group: c1

    Geometry (in Angstrom), charge = 1, multiplicity = 1:

       Center              X                  Y                   Z               Mass
    ------------   -----------------  -----------------  -----------------  -----------------
         N           -0.000117657836     0.000225922522    -0.000095473899    14.003074004430
         C            1.489407342164     0.092917922522    -0.164348473899    12.000000000000
         C           -0.333523657836    -0.172720077478     1.453582526101    12.000000000000
         C           -0.516840657836    -1.177010077478    -0.775571473899    12.000000000000
         C           -0.639513657836     1.257715922522    -0.514044473899    12.000000000000
         H            1.851358342164     0.950567922522     0.402856526101     1.007825032230
         H            1.940826342164    -0.825111077478     0.212130526101     1.007825032230
         H            1.717664342164     0.218117922522    -1.222892473899     1.007825032230
         H           -1.416517657836    -0.238589077478     1.558831526101     1.007825032230
         H            0.136129342164    -1.088096077478     1.813869526101     1.007825032230
         H            0.046666342164     0.687582922522     2.004605526101     1.007825032230
         H           -1.598001657836    -1.232833077478    -0.648025473899     1.007825032230
         H           -0.268510657836    -1.039103077478    -1.828000473899     1.007825032230
         H           -0.036704257836    -2.098948277478    -0.385962073899     1.007825032230
         H           -1.719446657836     1.177535922522    -0.389107473899     1.007825032230
         H           -0.256261657836     2.103710922522     0.056659526101     1.007825032230
         H           -0.389963657836     1.371265922522    -1.569091473899     1.007825032230

  Basis Set: AUG-CC-PVTZ
    Blend: AUG-CC-PVTZ
  Basis Set: (AUG-CC-PVTZ AUX)
    Blend: AUG-CC-PVTZ-JKFIT
	 Reference Energy          =    -212.7631361409360977 [Eh]
	 Singles Energy            =      -0.0000000000000000 [Eh]
	 Same-Spin Energy          =      -0.2168781589581625 [Eh]
	 Opposite-Spin Energy      =      -0.8149650377487401 [Eh]
	 Correlation Energy        =      -1.0318431967069026 [Eh]
	 Total Energy              =    -213.7949793376430137 [Eh]

	 ================> DF-SCS-MP2 Energies <==================
	-----------------------------------------------------------
	 SCS Same-Spin Scale       =       0.3333333333333333 [-]
	 SCS Opposite-Spin Scale   =       1.2000000000000000 [-]
	 SCS Same-Spin Energy      =      -0.0722927196527208 [Eh]
	 SCS Opposite-Spin Energy  =      -0.9779580452984881 [Eh]
	 SCS Correlation Energy    =      -1.0502507649512089 [Eh]
	 SCS Total Energy          =    -213.8133869058873131 [Eh]
	-----------------------------------------------------------

  Dipole Moment: [D]
     X:    -0.0006      Y:     0.0002      Z:    -0.0006     Total:     0.0009

*** Psi4 exiting successfully. Buy a developer a beer!
