                               Psi4 1.4a3.dev225

  ==> Input File <==

--------------------------------------------------------------------------
#psi4
#
memory 32 gb

molecule  {
1 1
  N        0.0000000     0.0000000     0.0000000
  C        1.4895250     0.0926920    -0.1642530
  C       -0.3334060    -0.1729460     1.4536780
  C       -0.5167230    -1.1772360    -0.7754760
  C       -0.6393960     1.2574900    -0.5139490
  H        1.8514760     0.9503420     0.4029520
  H        1.9409440    -0.8253370     0.2122260
  H        1.7177820     0.2178920    -1.2227970
  H       -1.4180130    -0.2213588     1.5515348
  H        0.1362470    -1.0883220     1.8139650
  H        0.0467840     0.6873570     2.0047010
  H       -1.5978840    -1.2330590    -0.6479300
  H       -0.2683930    -1.0393290    -1.8279050
  H       -0.0452370    -2.0825640    -0.3928860
  H       -1.7193290     1.1773100    -0.3890120
  H       -0.2561440     2.1034850     0.0567550
  H       -0.3898460     1.3710400    -1.5689960
units angstrom
no_reorient  #important for SAPT in psi4, default
symmetry c1  #important for SAPT in psi4, default
}

set PROPERTIES_ORIGIN ["COM"]
properties('MP2/aug-cc-pvtz', properties = ['dipole'])
--------------------------------------------------------------------------

    Molecular point group: c1
  Charge       = 1
  Multiplicity = 1
  Basis Set: AUG-CC-PVTZ
    Blend: AUG-CC-PVTZ
  Basis Set: (AUG-CC-PVTZ AUX)
    Blend: AUG-CC-PVTZ-JKFIT

    Orbital Energies [Eh]
    ---------------------

    Doubly Occupied:

       1A    -15.870275     2A    -11.454018     3A    -11.453965
       4A    -11.453885     5A    -11.453858     6A     -1.508376
       7A     -1.172218     8A     -1.172040     9A     -1.172001
      10A     -1.021766    11A     -0.869804    12A     -0.869470
      13A     -0.868991    14A     -0.781004    15A     -0.780032
      16A     -0.732157    17A     -0.731413    18A     -0.730885
      19A     -0.720230    20A     -0.719871    21A     -0.719405

  @DF-RHF Final Energy:  -212.76365748735293

   => Energetics <=

    Nuclear Repulsion Energy =            214.0032624794349090
    One-Electron Energy =                -701.0225091209164248
    Two-Electron Energy =                 274.2555891541285860
    Total Energy =                       -212.7636574873529298
  Basis Set: (AUG-CC-PVTZ AUX)
    Blend: AUG-CC-PVTZ-RI
    Molecular point group: c1

    Geometry (in Angstrom), charge = 1, multiplicity = 1:

       Center              X                  Y                   Z               Mass
    ------------   -----------------  -----------------  -----------------  -----------------
         N            0.000021939111    -0.000237429335     0.000100544513    14.003074004430
         C            1.489546939111     0.092454570665    -0.164152455487    12.000000000000
         C           -0.333384060889    -0.173183429335     1.453778544513    12.000000000000
         C           -0.516701060889    -1.177473429335    -0.775375455487    12.000000000000
         C           -0.639374060889     1.257252570665    -0.513848455487    12.000000000000
         H            1.851497939111     0.950104570665     0.403052544513     1.007825032230
         H            1.940965939111    -0.825574429335     0.212326544513     1.007825032230
         H            1.717803939111     0.217654570665    -1.222696455487     1.007825032230
         H           -1.417991060889    -0.221596229335     1.551635344513     1.007825032230
         H            0.136268939111    -1.088559429335     1.814065544513     1.007825032230
         H            0.046805939111     0.687119570665     2.004801544513     1.007825032230
         H           -1.597862060889    -1.233296429335    -0.647829455487     1.007825032230
         H           -0.268371060889    -1.039566429335    -1.827804455487     1.007825032230
         H           -0.045215060889    -2.082801429335    -0.392785455487     1.007825032230
         H           -1.719307060889     1.177072570665    -0.388911455487     1.007825032230
         H           -0.256122060889     2.103247570665     0.056855544513     1.007825032230
         H           -0.389824060889     1.370802570665    -1.568895455487     1.007825032230

  Basis Set: AUG-CC-PVTZ
    Blend: AUG-CC-PVTZ
  Basis Set: (AUG-CC-PVTZ AUX)
    Blend: AUG-CC-PVTZ-JKFIT
	 Reference Energy          =    -212.7636574873529298 [Eh]
	 Singles Energy            =      -0.0000000000000000 [Eh]
	 Same-Spin Energy          =      -0.2168586537002454 [Eh]
	 Opposite-Spin Energy      =      -0.8148279664944655 [Eh]
	 Correlation Energy        =      -1.0316866201947110 [Eh]
	 Total Energy              =    -213.7953441075476348 [Eh]

	 ================> DF-SCS-MP2 Energies <==================
	-----------------------------------------------------------
	 SCS Same-Spin Scale       =       0.3333333333333333 [-]
	 SCS Opposite-Spin Scale   =       1.2000000000000000 [-]
	 SCS Same-Spin Energy      =      -0.0722862179000818 [Eh]
	 SCS Opposite-Spin Energy  =      -0.9777935597933586 [Eh]
	 SCS Correlation Energy    =      -1.0500797776934403 [Eh]
	 SCS Total Energy          =    -213.8137372650463703 [Eh]
	-----------------------------------------------------------

  Dipole Moment: [D]
     X:     0.0016      Y:     0.0071      Z:    -0.0008     Total:     0.0073

*** Psi4 exiting successfully. Buy a developer a beer!
