                               Psi4 1.4a3.dev225

  ==> Input File <==

--------------------------------------------------------------------------
#psi4
#
memory 32 gb

molecule  {
1 1
  N        0.0000000     0.0000000     0.0000000
  C        1.4895250     0.0926920    -0.1642530
  C       -0.3334060    -0.1729460     1.4536780
  C       -0.5167230    -1.1772360    -0.7754760
  C       -0.6393960     1.2574900    -0.5139490
  H        1.8514760     0.9503420     0.4029520
  H        1.8956811    -0.7989366     0.3135842
  H        1.7177820     0.2178920    -1.2227970
  H       -1.4164000    -0.2388150     1.5589270
  H        0.1362470    -1.0883220     1.8139650
  H        0.0467840     0.6873570     2.0047010
  H       -1.5978840    -1.2330590    -0.6479300
  H       -0.2683930    -1.0393290    -1.8279050
  H       -0.0452370    -2.0825640    -0.3928860
  H       -1.7193290     1.1773100    -0.3890120
  H       -0.2561440     2.1034850     0.0567550
  H       -0.3898460     1.3710400    -1.5689960
units angstrom
no_reorient  #important for SAPT in psi4, default
symmetry c1  #important for SAPT in psi4, default
}

set PROPERTIES_ORIGIN ["COM"]
properties('MP2/aug-cc-pvtz', properties = ['dipole'])
--------------------------------------------------------------------------

    Molecular point group: c1
  Charge       = 1
  Multiplicity = 1
  Basis Set: AUG-CC-PVTZ
    Blend: AUG-CC-PVTZ
  Basis Set: (AUG-CC-PVTZ AUX)
    Blend: AUG-CC-PVTZ-JKFIT

    Orbital Energies [Eh]
    ---------------------

    Doubly Occupied:

       1A    -15.869616     2A    -11.454523     3A    -11.454237
       4A    -11.453731     5A    -11.453557     6A     -1.508448
       7A     -1.173128     8A     -1.171973     9A     -1.171727
      10A     -1.021287    11A     -0.871751    12A     -0.869626
      13A     -0.866852    14A     -0.784194    15A     -0.778209
      16A     -0.735850    17A     -0.731465    18A     -0.728722
      19A     -0.721352    20A     -0.719864    21A     -0.716190

  @DF-RHF Final Energy:  -212.76231834275157

   => Energetics <=

    Nuclear Repulsion Energy =            214.0845605401007674
    One-Electron Energy =                -701.1811513116520018
    Two-Electron Energy =                 274.3342724287996361
    Total Energy =                       -212.7623183427515983
  Basis Set: (AUG-CC-PVTZ AUX)
    Blend: AUG-CC-PVTZ-RI
    Molecular point group: c1

    Geometry (in Angstrom), charge = 1, multiplicity = 1:

       Center              X                  Y                   Z               Mass
    ------------   -----------------  -----------------  -----------------  -----------------
         N            0.000615640301    -0.000359083272    -0.001378616766    14.003074004430
         C            1.490140640301     0.092332916728    -0.165631616766    12.000000000000
         C           -0.332790359699    -0.173305083272     1.452299383234    12.000000000000
         C           -0.516107359699    -1.177595083272    -0.776854616766    12.000000000000
         C           -0.638780359699     1.257130916728    -0.515327616766    12.000000000000
         H            1.852091640301     0.949982916728     0.401573383234     1.007825032230
         H            1.896296740301    -0.799295683272     0.312205583234     1.007825032230
         H            1.718397640301     0.217532916728    -1.224175616766     1.007825032230
         H           -1.415784359699    -0.239174083272     1.557548383234     1.007825032230
         H            0.136862640301    -1.088681083272     1.812586383234     1.007825032230
         H            0.047399640301     0.686997916728     2.003322383234     1.007825032230
         H           -1.597268359699    -1.233418083272    -0.649308616766     1.007825032230
         H           -0.267777359699    -1.039688083272    -1.829283616766     1.007825032230
         H           -0.044621359699    -2.082923083272    -0.394264616766     1.007825032230
         H           -1.718713359699     1.176950916728    -0.390390616766     1.007825032230
         H           -0.255528359699     2.103125916728     0.055376383234     1.007825032230
         H           -0.389230359699     1.370680916728    -1.570374616766     1.007825032230

  Basis Set: AUG-CC-PVTZ
    Blend: AUG-CC-PVTZ
  Basis Set: (AUG-CC-PVTZ AUX)
    Blend: AUG-CC-PVTZ-JKFIT
	 Reference Energy          =    -212.7623183427515698 [Eh]
	 Singles Energy            =      -0.0000000000000000 [Eh]
	 Same-Spin Energy          =      -0.2169637386209374 [Eh]
	 Opposite-Spin Energy      =      -0.8150118210369067 [Eh]
	 Correlation Energy        =      -1.0319755596578442 [Eh]
	 Total Energy              =    -213.7942939024094073 [Eh]

	 ================> DF-SCS-MP2 Energies <==================
	-----------------------------------------------------------
	 SCS Same-Spin Scale       =       0.3333333333333333 [-]
	 SCS Opposite-Spin Scale   =       1.2000000000000000 [-]
	 SCS Same-Spin Energy      =      -0.0723212462069791 [Eh]
	 SCS Opposite-Spin Energy  =      -0.9780141852442881 [Eh]
	 SCS Correlation Energy    =      -1.0503354314512672 [Eh]
	 SCS Total Energy          =    -213.8126537742028290 [Eh]
	-----------------------------------------------------------

  Dipole Moment: [D]
     X:    -0.0101      Y:     0.0261      Z:     0.0327     Total:     0.0431

*** Psi4 exiting successfully. Buy a developer a beer!
