                               Psi4 1.4a3.dev225

  ==> Input File <==

--------------------------------------------------------------------------
#psi4
#
memory 32 gb

molecule  {
1 1
  N        0.0000000     0.0000000     0.0000000
  C        1.4895250     0.0926920    -0.1642530
  C       -0.3334060    -0.1729460     1.4536780
  C       -0.5167230    -1.1772360    -0.7754760
  C       -0.6393960     1.2574900    -0.5139490
  H        1.8514760     0.9503420     0.4029520
  H        1.9409440    -0.8253370     0.2122260
  H        1.7177820     0.2178920    -1.2227970
  H       -1.4164000    -0.2388150     1.5589270
  H        0.1362470    -1.0883220     1.8139650
  H        0.0467840     0.6873570     2.0047010
  H       -1.5978840    -1.2330590    -0.6479300
  H       -0.2683930    -1.0393290    -1.8279050
  H       -0.0019849    -2.1656149    -0.3577888
  H       -1.7193290     1.1773100    -0.3890120
  H       -0.2561440     2.1034850     0.0567550
  H       -0.3898460     1.3710400    -1.5689960
units angstrom
no_reorient  #important for SAPT in psi4, default
symmetry c1  #important for SAPT in psi4, default
}

set PROPERTIES_ORIGIN ["COM"]
properties('MP2/aug-cc-pvtz', properties = ['dipole'])
--------------------------------------------------------------------------

    Molecular point group: c1
  Charge       = 1
  Multiplicity = 1
  Basis Set: AUG-CC-PVTZ
    Blend: AUG-CC-PVTZ
  Basis Set: (AUG-CC-PVTZ AUX)
    Blend: AUG-CC-PVTZ-JKFIT

    Orbital Energies [Eh]
    ---------------------

    Doubly Occupied:

       1A    -15.871033     2A    -11.464003     3A    -11.454446
       4A    -11.453734     5A    -11.453721     6A     -1.508322
       7A     -1.172294     8A     -1.171929     9A     -1.165401
      10A     -1.019201    11A     -0.869700    12A     -0.869597
      13A     -0.863931    14A     -0.780529    15A     -0.775734
      16A     -0.731646    17A     -0.731378    18A     -0.725583
      19A     -0.720251    20A     -0.720105    21A     -0.710057

  @DF-RHF Final Energy:  -212.75678365010322

   => Energetics <=

    Nuclear Repulsion Energy =            213.5783493501724593
    One-Electron Energy =                -700.2050738976899993
    Two-Electron Energy =                 273.8699408974143239
    Total Energy =                       -212.7567836501032161
  Basis Set: (AUG-CC-PVTZ AUX)
    Blend: AUG-CC-PVTZ-RI
    Molecular point group: c1

    Geometry (in Angstrom), charge = 1, multiplicity = 1:

       Center              X                  Y                   Z               Mass
    ------------   -----------------  -----------------  -----------------  -----------------
         N           -0.000588290540     0.001129611251    -0.000477372214    14.003074004430
         C            1.488936709460     0.093821611251    -0.164730372214    12.000000000000
         C           -0.333994290540    -0.171816388749     1.453200627786    12.000000000000
         C           -0.517311290540    -1.176106388749    -0.775953372214    12.000000000000
         C           -0.639984290540     1.258619611251    -0.514426372214    12.000000000000
         H            1.850887709460     0.951471611251     0.402474627786     1.007825032230
         H            1.940355709460    -0.824207388749     0.211748627786     1.007825032230
         H            1.717193709460     0.219021611251    -1.223274372214     1.007825032230
         H           -1.416988290540    -0.237685388749     1.558449627786     1.007825032230
         H            0.135658709460    -1.087192388749     1.813487627786     1.007825032230
         H            0.046195709460     0.688486611251     2.004223627786     1.007825032230
         H           -1.598472290540    -1.231929388749    -0.648407372214     1.007825032230
         H           -0.268981290540    -1.038199388749    -1.828382372214     1.007825032230
         H           -0.002573190540    -2.164485288749    -0.358266172214     1.007825032230
         H           -1.719917290540     1.178439611251    -0.389489372214     1.007825032230
         H           -0.256732290540     2.104614611251     0.056277627786     1.007825032230
         H           -0.390434290540     1.372169611251    -1.569473372214     1.007825032230

  Basis Set: AUG-CC-PVTZ
    Blend: AUG-CC-PVTZ
  Basis Set: (AUG-CC-PVTZ AUX)
    Blend: AUG-CC-PVTZ-JKFIT
	 Reference Energy          =    -212.7567836501032161 [Eh]
	 Singles Energy            =      -0.0000000000000000 [Eh]
	 Same-Spin Energy          =      -0.2170131744343468 [Eh]
	 Opposite-Spin Energy      =      -0.8156915263444131 [Eh]
	 Correlation Energy        =      -1.0327047007787598 [Eh]
	 Total Energy              =    -213.7894883508819817 [Eh]

	 ================> DF-SCS-MP2 Energies <==================
	-----------------------------------------------------------
	 SCS Same-Spin Scale       =       0.3333333333333333 [-]
	 SCS Opposite-Spin Scale   =       1.2000000000000000 [-]
	 SCS Same-Spin Energy      =      -0.0723377248114489 [Eh]
	 SCS Opposite-Spin Energy  =      -0.9788298316132957 [Eh]
	 SCS Correlation Energy    =      -1.0511675564247447 [Eh]
	 SCS Total Energy          =    -213.8079512065279744 [Eh]
	-----------------------------------------------------------

  Dipole Moment: [D]
     X:    -0.0032      Y:     0.0026      Z:    -0.0031     Total:     0.0052

*** Psi4 exiting successfully. Buy a developer a beer!
