                               Psi4 1.4a3.dev225

  ==> Input File <==

--------------------------------------------------------------------------
#psi4
#
memory 32 gb

molecule  {
1 1
  N        0.0061966    -0.0476350     0.0209516
  C        1.4895250     0.0926920    -0.1642530
  C       -0.3334060    -0.1729460     1.4536780
  C       -0.5167230    -1.1772360    -0.7754760
  C       -0.6393960     1.2574900    -0.5139490
  H        1.8514760     0.9503420     0.4029520
  H        1.9409440    -0.8253370     0.2122260
  H        1.7177820     0.2178920    -1.2227970
  H       -1.4164000    -0.2388150     1.5589270
  H        0.1362470    -1.0883220     1.8139650
  H        0.0467840     0.6873570     2.0047010
  H       -1.5978840    -1.2330590    -0.6479300
  H       -0.2683930    -1.0393290    -1.8279050
  H       -0.0452370    -2.0825640    -0.3928860
  H       -1.7193290     1.1773100    -0.3890120
  H       -0.2561440     2.1034850     0.0567550
  H       -0.3898460     1.3710400    -1.5689960
units angstrom
no_reorient  #important for SAPT in psi4, default
symmetry c1  #important for SAPT in psi4, default
}

set PROPERTIES_ORIGIN ["COM"]
properties('MP2/aug-cc-pvtz', properties = ['dipole'])
--------------------------------------------------------------------------

    Molecular point group: c1
  Charge       = 1
  Multiplicity = 1
  Basis Set: AUG-CC-PVTZ
    Blend: AUG-CC-PVTZ
  Basis Set: (AUG-CC-PVTZ AUX)
    Blend: AUG-CC-PVTZ-JKFIT

    Orbital Energies [Eh]
    ---------------------

    Doubly Occupied:

       1A    -15.870155     2A    -11.458085     3A    -11.454002
       4A    -11.451942     5A    -11.451927     6A     -1.508875
       7A     -1.177329     8A     -1.173915     9A     -1.165386
      10A     -1.021559    11A     -0.871922    12A     -0.869046
      13A     -0.867923    14A     -0.780814    15A     -0.780614
      16A     -0.731946    17A     -0.731513    18A     -0.731434
      19A     -0.731019    20A     -0.723447    21A     -0.702532

  @DF-RHF Final Energy:  -212.76081615952981

   => Energetics <=

    Nuclear Repulsion Energy =            213.9871507359595739
    One-Electron Energy =                -700.9851588827006026
    Two-Electron Energy =                 274.2371919872112471
    Total Energy =                       -212.7608161595297815
  Basis Set: (AUG-CC-PVTZ AUX)
    Blend: AUG-CC-PVTZ-RI
    Molecular point group: c1

    Geometry (in Angstrom), charge = 1, multiplicity = 1:

       Center              X                  Y                   Z               Mass
    ------------   -----------------  -----------------  -----------------  -----------------
         N            0.005025547483    -0.038632791264     0.016992102224    14.003074004430
         C            1.488353947483     0.101694208736    -0.168212497776    12.000000000000
         C           -0.334577052517    -0.163943791264     1.449718502224    12.000000000000
         C           -0.517894052517    -1.168233791264    -0.779435497776    12.000000000000
         C           -0.640567052517     1.266492208736    -0.517908497776    12.000000000000
         H            1.850304947483     0.959344208736     0.398992502224     1.007825032230
         H            1.939772947483    -0.816334791264     0.208266502224     1.007825032230
         H            1.716610947483     0.226894208736    -1.226756497776     1.007825032230
         H           -1.417571052517    -0.229812791264     1.554967502224     1.007825032230
         H            0.135075947483    -1.079319791264     1.810005502224     1.007825032230
         H            0.045612947483     0.696359208736     2.000741502224     1.007825032230
         H           -1.599055052517    -1.224056791264    -0.651889497776     1.007825032230
         H           -0.269564052517    -1.030326791264    -1.831864497776     1.007825032230
         H           -0.046408052517    -2.073561791264    -0.396845497776     1.007825032230
         H           -1.720500052517     1.186312208736    -0.392971497776     1.007825032230
         H           -0.257315052517     2.112487208736     0.052795502224     1.007825032230
         H           -0.391017052517     1.380042208736    -1.572955497776     1.007825032230

  Basis Set: AUG-CC-PVTZ
    Blend: AUG-CC-PVTZ
  Basis Set: (AUG-CC-PVTZ AUX)
    Blend: AUG-CC-PVTZ-JKFIT
	 Reference Energy          =    -212.7608161595298100 [Eh]
	 Singles Energy            =      -0.0000000000000000 [Eh]
	 Same-Spin Energy          =      -0.2169725129417086 [Eh]
	 Opposite-Spin Energy      =      -0.8150674062673444 [Eh]
	 Correlation Energy        =      -1.0320399192090530 [Eh]
	 Total Energy              =    -213.7928560787388506 [Eh]

	 ================> DF-SCS-MP2 Energies <==================
	-----------------------------------------------------------
	 SCS Same-Spin Scale       =       0.3333333333333333 [-]
	 SCS Opposite-Spin Scale   =       1.2000000000000000 [-]
	 SCS Same-Spin Energy      =      -0.0723241709805695 [Eh]
	 SCS Opposite-Spin Energy  =      -0.9780808875208132 [Eh]
	 SCS Correlation Energy    =      -1.0504050585013827 [Eh]
	 SCS Total Energy          =    -213.8112212180311928 [Eh]
	-----------------------------------------------------------

  Dipole Moment: [D]
     X:    -0.0156      Y:     0.1221      Z:    -0.0537     Total:     0.1343

*** Psi4 exiting successfully. Buy a developer a beer!
