                               Psi4 1.4a3.dev225

  ==> Input File <==

--------------------------------------------------------------------------
#psi4
#
memory 32 gb

molecule  {
1 1
  N        0.0000000     0.0000000     0.0000000
  C        1.4895250     0.0926920    -0.1642530
  C       -0.3334060    -0.1729460     1.4536780
  C       -0.4239068    -1.2666974    -0.6855880
  C       -0.6393960     1.2574900    -0.5139490
  H        1.8514760     0.9503420     0.4029520
  H        1.9409440    -0.8253370     0.2122260
  H        1.7177820     0.2178920    -1.2227970
  H       -1.4164000    -0.2388150     1.5589270
  H        0.1362470    -1.0883220     1.8139650
  H        0.0467840     0.6873570     2.0047010
  H       -1.5978840    -1.2330590    -0.6479300
  H       -0.2683930    -1.0393290    -1.8279050
  H       -0.0452370    -2.0825640    -0.3928860
  H       -1.7193290     1.1773100    -0.3890120
  H       -0.2561440     2.1034850     0.0567550
  H       -0.3898460     1.3710400    -1.5689960
units angstrom
no_reorient  #important for SAPT in psi4, default
symmetry c1  #important for SAPT in psi4, default
}

set PROPERTIES_ORIGIN ["COM"]
properties('MP2/aug-cc-pvtz', properties = ['dipole'])
--------------------------------------------------------------------------

    Molecular point group: c1
  Charge       = 1
  Multiplicity = 1
  Basis Set: AUG-CC-PVTZ
    Blend: AUG-CC-PVTZ
  Basis Set: (AUG-CC-PVTZ AUX)
    Blend: AUG-CC-PVTZ-JKFIT

    Orbital Energies [Eh]
    ---------------------

    Doubly Occupied:

       1A    -15.871961     2A    -11.457366     3A    -11.457296
       4A    -11.453285     5A    -11.453272     6A     -1.509570
       7A     -1.182172     8A     -1.172518     9A     -1.165904
      10A     -1.026571    11A     -0.887898    12A     -0.867357
      13A     -0.864218    14A     -0.789862    15A     -0.775952
      16A     -0.755069    17A     -0.732085    18A     -0.726013
      19A     -0.724675    20A     -0.708321    21A     -0.688495

  @DF-RHF Final Energy:  -212.72942017460238

   => Energetics <=

    Nuclear Repulsion Energy =            214.0667859093982770
    One-Electron Energy =                -701.0526923568908160
    Two-Electron Energy =                 274.2564862728901858
    Total Energy =                       -212.7294201746023532
  Basis Set: (AUG-CC-PVTZ AUX)
    Blend: AUG-CC-PVTZ-RI
    Molecular point group: c1

    Geometry (in Angstrom), charge = 1, multiplicity = 1:

       Center              X                  Y                   Z               Mass
    ------------   -----------------  -----------------  -----------------  -----------------
         N           -0.015031577324     0.014488267690    -0.014557355531    14.003074004430
         C            1.474493422676     0.107180267690    -0.178810355531    12.000000000000
         C           -0.348437577324    -0.158457732310     1.439120644469    12.000000000000
         C           -0.438938377324    -1.252209132310    -0.700145355531    12.000000000000
         C           -0.654427577324     1.271978267690    -0.528506355531    12.000000000000
         H            1.836444422676     0.964830267690     0.388394644469     1.007825032230
         H            1.925912422676    -0.810848732310     0.197668644469     1.007825032230
         H            1.702750422676     0.232380267690    -1.237354355531     1.007825032230
         H           -1.431431577324    -0.224326732310     1.544369644469     1.007825032230
         H            0.121215422676    -1.073833732310     1.799407644469     1.007825032230
         H            0.031752422676     0.701845267690     1.990143644469     1.007825032230
         H           -1.612915577324    -1.218570732310    -0.662487355531     1.007825032230
         H           -0.283424577324    -1.024840732310    -1.842462355531     1.007825032230
         H           -0.060268577324    -2.068075732310    -0.407443355531     1.007825032230
         H           -1.734360577324     1.191798267690    -0.403569355531     1.007825032230
         H           -0.271175577324     2.117973267690     0.042197644469     1.007825032230
         H           -0.404877577324     1.385528267690    -1.583553355531     1.007825032230

  Basis Set: AUG-CC-PVTZ
    Blend: AUG-CC-PVTZ
  Basis Set: (AUG-CC-PVTZ AUX)
    Blend: AUG-CC-PVTZ-JKFIT
	 Reference Energy          =    -212.7294201746023816 [Eh]
	 Singles Energy            =      -0.0000000000000000 [Eh]
	 Same-Spin Energy          =      -0.2174437918876868 [Eh]
	 Opposite-Spin Energy      =      -0.8164874208022919 [Eh]
	 Correlation Energy        =      -1.0339312126899787 [Eh]
	 Total Energy              =    -213.7633513872923743 [Eh]

	 ================> DF-SCS-MP2 Energies <==================
	-----------------------------------------------------------
	 SCS Same-Spin Scale       =       0.3333333333333333 [-]
	 SCS Opposite-Spin Scale   =       1.2000000000000000 [-]
	 SCS Same-Spin Energy      =      -0.0724812639625623 [Eh]
	 SCS Opposite-Spin Energy  =      -0.9797849049627502 [Eh]
	 SCS Correlation Energy    =      -1.0522661689253123 [Eh]
	 SCS Total Energy          =    -213.7816863435276957 [Eh]
	-----------------------------------------------------------

  Dipole Moment: [D]
     X:    -0.0424      Y:     0.0993      Z:    -0.0315     Total:     0.1124

*** Psi4 exiting successfully. Buy a developer a beer!
