                               Psi4 1.4a3.dev225

  ==> Input File <==

--------------------------------------------------------------------------
#psi4
#
memory 32 gb

molecule  {
1 1
  N        0.0000000     0.0000000     0.0000000
  C        1.4895250     0.0926920    -0.1642530
  C       -0.3445091    -0.1787054     1.5020882
  C       -0.5167230    -1.1772360    -0.7754760
  C       -0.6393960     1.2574900    -0.5139490
  H        1.8514760     0.9503420     0.4029520
  H        1.9409440    -0.8253370     0.2122260
  H        1.7177820     0.2178920    -1.2227970
  H       -1.4164000    -0.2388150     1.5589270
  H        0.1362470    -1.0883220     1.8139650
  H        0.0467840     0.6873570     2.0047010
  H       -1.5978840    -1.2330590    -0.6479300
  H       -0.2683930    -1.0393290    -1.8279050
  H       -0.0452370    -2.0825640    -0.3928860
  H       -1.7193290     1.1773100    -0.3890120
  H       -0.2561440     2.1034850     0.0567550
  H       -0.3898460     1.3710400    -1.5689960
units angstrom
no_reorient  #important for SAPT in psi4, default
symmetry c1  #important for SAPT in psi4, default
}

set PROPERTIES_ORIGIN ["COM"]
properties('MP2/aug-cc-pvtz', properties = ['dipole'])
--------------------------------------------------------------------------

    Molecular point group: c1
  Charge       = 1
  Multiplicity = 1
  Basis Set: AUG-CC-PVTZ
    Blend: AUG-CC-PVTZ
  Basis Set: (AUG-CC-PVTZ AUX)
    Blend: AUG-CC-PVTZ-JKFIT

    Orbital Energies [Eh]
    ---------------------

    Doubly Occupied:

       1A    -15.867629     2A    -11.456055     3A    -11.452494
       4A    -11.452494     5A    -11.452474     6A     -1.498653
       7A     -1.171166     8A     -1.169544     9A     -1.169544
      10A     -1.021134    11A     -0.866711    12A     -0.866711
      13A     -0.864744    14A     -0.782508    15A     -0.782508
      16A     -0.737602    17A     -0.737602    18A     -0.730093
      19A     -0.720123    20A     -0.720123    21A     -0.708290

  @DF-RHF Final Energy:  -212.76179851980893

   => Energetics <=

    Nuclear Repulsion Energy =            213.1312914659869193
    One-Electron Energy =                -699.3297770117532082
    Two-Electron Energy =                 273.4366870259573830
    Total Energy =                       -212.7617985198089059
  Basis Set: (AUG-CC-PVTZ AUX)
    Blend: AUG-CC-PVTZ-RI
    Molecular point group: c1

    Geometry (in Angstrom), charge = 1, multiplicity = 1:

       Center              X                  Y                   Z               Mass
    ------------   -----------------  -----------------  -----------------  -----------------
         N            0.001798146295     0.000932734441    -0.007840028622    14.003074004430
         C            1.491323146295     0.093624734441    -0.172093028622    12.000000000000
         C           -0.342710953705    -0.177772665559     1.494248171378    12.000000000000
         C           -0.514924853705    -1.176303265559    -0.783316028622    12.000000000000
         C           -0.637597853705     1.258422734441    -0.521789028622    12.000000000000
         H            1.853274146295     0.951274734441     0.395111971378     1.007825032230
         H            1.942742146295    -0.824404265559     0.204385971378     1.007825032230
         H            1.719580146295     0.218824734441    -1.230637028622     1.007825032230
         H           -1.414601853705    -0.237882265559     1.551086971378     1.007825032230
         H            0.138045146295    -1.087389265559     1.806124971378     1.007825032230
         H            0.048582146295     0.688289734441     1.996860971378     1.007825032230
         H           -1.596085853705    -1.232126265559    -0.655770028622     1.007825032230
         H           -0.266594853705    -1.038396265559    -1.835745028622     1.007825032230
         H           -0.043438853705    -2.081631265559    -0.400726028622     1.007825032230
         H           -1.717530853705     1.178242734441    -0.396852028622     1.007825032230
         H           -0.254345853705     2.104417734441     0.048914971378     1.007825032230
         H           -0.388047853705     1.371972734441    -1.576836028622     1.007825032230

  Basis Set: AUG-CC-PVTZ
    Blend: AUG-CC-PVTZ
  Basis Set: (AUG-CC-PVTZ AUX)
    Blend: AUG-CC-PVTZ-JKFIT
	 Reference Energy          =    -212.7617985198089343 [Eh]
	 Singles Energy            =      -0.0000000000000000 [Eh]
	 Same-Spin Energy          =      -0.2165670534619934 [Eh]
	 Opposite-Spin Energy      =      -0.8149361186107140 [Eh]
	 Correlation Energy        =      -1.0315031720727075 [Eh]
	 Total Energy              =    -213.7933016918816520 [Eh]

	 ================> DF-SCS-MP2 Energies <==================
	-----------------------------------------------------------
	 SCS Same-Spin Scale       =       0.3333333333333333 [-]
	 SCS Opposite-Spin Scale   =       1.2000000000000000 [-]
	 SCS Same-Spin Energy      =      -0.0721890178206645 [Eh]
	 SCS Opposite-Spin Energy  =      -0.9779233423328568 [Eh]
	 SCS Correlation Energy    =      -1.0501123601535214 [Eh]
	 SCS Total Energy          =    -213.8119108799624541 [Eh]
	-----------------------------------------------------------

  Dipole Moment: [D]
     X:    -0.0148      Y:    -0.0077      Z:     0.0647     Total:     0.0668

*** Psi4 exiting successfully. Buy a developer a beer!
