                               Psi4 1.4a3.dev225

  ==> Input File <==

--------------------------------------------------------------------------
#psi4
#
memory 32 gb

molecule  {
1 1
  N        0.0297290    -0.0327393     0.0281208
  C        1.4895250     0.0926920    -0.1642530
  C       -0.3334060    -0.1729460     1.4536780
  C       -0.5167230    -1.1772360    -0.7754760
  C       -0.6393960     1.2574900    -0.5139490
  H        1.8514760     0.9503420     0.4029520
  H        1.9409440    -0.8253370     0.2122260
  H        1.7177820     0.2178920    -1.2227970
  H       -1.4164000    -0.2388150     1.5589270
  H        0.1362470    -1.0883220     1.8139650
  H        0.0467840     0.6873570     2.0047010
  H       -1.5978840    -1.2330590    -0.6479300
  H       -0.2683930    -1.0393290    -1.8279050
  H       -0.0452370    -2.0825640    -0.3928860
  H       -1.7193290     1.1773100    -0.3890120
  H       -0.2561440     2.1034850     0.0567550
  H       -0.3898460     1.3710400    -1.5689960
units angstrom
no_reorient  #important for SAPT in psi4, default
symmetry c1  #important for SAPT in psi4, default
}

set PROPERTIES_ORIGIN ["COM"]
properties('MP2/aug-cc-pvtz', properties = ['dipole'])
--------------------------------------------------------------------------

    Molecular point group: c1
  Charge       = 1
  Multiplicity = 1
  Basis Set: AUG-CC-PVTZ
    Blend: AUG-CC-PVTZ
  Basis Set: (AUG-CC-PVTZ AUX)
    Blend: AUG-CC-PVTZ-JKFIT

    Orbital Energies [Eh]
    ---------------------

    Doubly Occupied:

       1A    -15.870155     2A    -11.458085     3A    -11.454002
       4A    -11.451942     5A    -11.451928     6A     -1.508875
       7A     -1.177329     8A     -1.173915     9A     -1.165386
      10A     -1.021559    11A     -0.871922    12A     -0.869046
      13A     -0.867923    14A     -0.780814    15A     -0.780614
      16A     -0.731947    17A     -0.731513    18A     -0.731434
      19A     -0.731018    20A     -0.723447    21A     -0.702532

  @DF-RHF Final Energy:  -212.76081618848076

   => Energetics <=

    Nuclear Repulsion Energy =            213.9871498327553354
    One-Electron Energy =                -700.9851572223740277
    Two-Electron Energy =                 274.2371912011379322
    Total Energy =                       -212.7608161884807600
  Basis Set: (AUG-CC-PVTZ AUX)
    Blend: AUG-CC-PVTZ-RI
    Molecular point group: c1

    Geometry (in Angstrom), charge = 1, multiplicity = 1:

       Center              X                  Y                   Z               Mass
    ------------   -----------------  -----------------  -----------------  -----------------
         N            0.024110722189    -0.026552126441     0.022806444769    14.003074004430
         C            1.483906722189     0.098879173559    -0.169567355231    12.000000000000
         C           -0.339024277811    -0.166758826441     1.448363644769    12.000000000000
         C           -0.522341277811    -1.171048826441    -0.780790355231    12.000000000000
         C           -0.645014277811     1.263677173559    -0.519263355231    12.000000000000
         H            1.845857722189     0.956529173559     0.397637644769     1.007825032230
         H            1.935325722189    -0.819149826441     0.206911644769     1.007825032230
         H            1.712163722189     0.224079173559    -1.228111355231     1.007825032230
         H           -1.422018277811    -0.232627826441     1.553612644769     1.007825032230
         H            0.130628722189    -1.082134826441     1.808650644769     1.007825032230
         H            0.041165722189     0.693544173559     1.999386644769     1.007825032230
         H           -1.603502277811    -1.226871826441    -0.653244355231     1.007825032230
         H           -0.274011277811    -1.033141826441    -1.833219355231     1.007825032230
         H           -0.050855277811    -2.076376826441    -0.398200355231     1.007825032230
         H           -1.724947277811     1.183497173559    -0.394326355231     1.007825032230
         H           -0.261762277811     2.109672173559     0.051440644769     1.007825032230
         H           -0.395464277811     1.377227173559    -1.574310355231     1.007825032230

  Basis Set: AUG-CC-PVTZ
    Blend: AUG-CC-PVTZ
  Basis Set: (AUG-CC-PVTZ AUX)
    Blend: AUG-CC-PVTZ-JKFIT
	 Reference Energy          =    -212.7608161884807600 [Eh]
	 Singles Energy            =      -0.0000000000000000 [Eh]
	 Same-Spin Energy          =      -0.2169725122179248 [Eh]
	 Opposite-Spin Energy      =      -0.8150674054678357 [Eh]
	 Correlation Energy        =      -1.0320399176857604 [Eh]
	 Total Energy              =    -213.7928561061665107 [Eh]

	 ================> DF-SCS-MP2 Energies <==================
	-----------------------------------------------------------
	 SCS Same-Spin Scale       =       0.3333333333333333 [-]
	 SCS Opposite-Spin Scale   =       1.2000000000000000 [-]
	 SCS Same-Spin Energy      =      -0.0723241707393083 [Eh]
	 SCS Opposite-Spin Energy  =      -0.9780808865614028 [Eh]
	 SCS Correlation Energy    =      -1.0504050573007111 [Eh]
	 SCS Total Energy          =    -213.8112212457814678 [Eh]
	-----------------------------------------------------------

  Dipole Moment: [D]
     X:    -0.0763      Y:     0.0837      Z:    -0.0722     Total:     0.1343

*** Psi4 exiting successfully. Buy a developer a beer!
