                               Psi4 1.4a3.dev225

  ==> Input File <==

--------------------------------------------------------------------------
#psi4
#
memory 32 gb

molecule  {
1 1
  N        0.0000000     0.0000000     0.0000000
  C        1.4895250     0.0926920    -0.1642530
  C       -0.2770636    -0.2612984     1.4523114
  C       -0.5167230    -1.1772360    -0.7754760
  C       -0.6393960     1.2574900    -0.5139490
  H        1.8514760     0.9503420     0.4029520
  H        1.9409440    -0.8253370     0.2122260
  H        1.7177820     0.2178920    -1.2227970
  H       -1.4164000    -0.2388150     1.5589270
  H        0.1362470    -1.0883220     1.8139650
  H        0.0467840     0.6873570     2.0047010
  H       -1.5978840    -1.2330590    -0.6479300
  H       -0.2683930    -1.0393290    -1.8279050
  H       -0.0452370    -2.0825640    -0.3928860
  H       -1.7193290     1.1773100    -0.3890120
  H       -0.2561440     2.1034850     0.0567550
  H       -0.3898460     1.3710400    -1.5689960
units angstrom
no_reorient  #important for SAPT in psi4, default
symmetry c1  #important for SAPT in psi4, default
}

set PROPERTIES_ORIGIN ["COM"]
properties('MP2/aug-cc-pvtz', properties = ['dipole'])
--------------------------------------------------------------------------

    Molecular point group: c1
  Charge       = 1
  Multiplicity = 1
  Basis Set: AUG-CC-PVTZ
    Blend: AUG-CC-PVTZ
  Basis Set: (AUG-CC-PVTZ AUX)
    Blend: AUG-CC-PVTZ-JKFIT

    Orbital Energies [Eh]
    ---------------------

    Doubly Occupied:

       1A    -15.871090     2A    -11.455935     3A    -11.455458
       4A    -11.453377     5A    -11.453364     6A     -1.508906
       7A     -1.178279     8A     -1.172213     9A     -1.167558
      10A     -1.023787    11A     -0.880186    12A     -0.867714
      13A     -0.865419    14A     -0.787073    15A     -0.776647
      16A     -0.748696    17A     -0.731705    18A     -0.725052
      19A     -0.725001    20A     -0.712681    21A     -0.701680

  @DF-RHF Final Energy:  -212.74909850796988

   => Energetics <=

    Nuclear Repulsion Energy =            214.0215228599539898
    One-Electron Energy =                -701.0176013966068922
    Two-Electron Energy =                 274.2469800286830832
    Total Energy =                       -212.7490985079698476
  Basis Set: (AUG-CC-PVTZ AUX)
    Blend: AUG-CC-PVTZ-RI
    Molecular point group: c1

    Geometry (in Angstrom), charge = 1, multiplicity = 1:

       Center              X                  Y                   Z               Mass
    ------------   -----------------  -----------------  -----------------  -----------------
         N           -0.009124647876     0.014308665215     0.000221320778    14.003074004430
         C            1.480400352124     0.107000665215    -0.164031679222    12.000000000000
         C           -0.286188247876    -0.246989734785     1.452532720778    12.000000000000
         C           -0.525847647876    -1.162927334785    -0.775254679222    12.000000000000
         C           -0.648520647876     1.271798665215    -0.513727679222    12.000000000000
         H            1.842351352124     0.964650665215     0.403173320778     1.007825032230
         H            1.931819352124    -0.811028334785     0.212447320778     1.007825032230
         H            1.708657352124     0.232200665215    -1.222575679222     1.007825032230
         H           -1.425524647876    -0.224506334785     1.559148320778     1.007825032230
         H            0.127122352124    -1.074013334785     1.814186320778     1.007825032230
         H            0.037659352124     0.701665665215     2.004922320778     1.007825032230
         H           -1.607008647876    -1.218750334785    -0.647708679222     1.007825032230
         H           -0.277517647876    -1.025020334785    -1.827683679222     1.007825032230
         H           -0.054361647876    -2.068255334785    -0.392664679222     1.007825032230
         H           -1.728453647876     1.191618665215    -0.388790679222     1.007825032230
         H           -0.265268647876     2.117793665215     0.056976320778     1.007825032230
         H           -0.398970647876     1.385348665215    -1.568774679222     1.007825032230

  Basis Set: AUG-CC-PVTZ
    Blend: AUG-CC-PVTZ
  Basis Set: (AUG-CC-PVTZ AUX)
    Blend: AUG-CC-PVTZ-JKFIT
	 Reference Energy          =    -212.7490985079698760 [Eh]
	 Singles Energy            =      -0.0000000000000000 [Eh]
	 Same-Spin Energy          =      -0.2171107044742921 [Eh]
	 Opposite-Spin Energy      =      -0.8155429853648213 [Eh]
	 Correlation Energy        =      -1.0326536898391134 [Eh]
	 Total Energy              =    -213.7817521978089985 [Eh]

	 ================> DF-SCS-MP2 Energies <==================
	-----------------------------------------------------------
	 SCS Same-Spin Scale       =       0.3333333333333333 [-]
	 SCS Opposite-Spin Scale   =       1.2000000000000000 [-]
	 SCS Same-Spin Energy      =      -0.0723702348247640 [Eh]
	 SCS Opposite-Spin Energy  =      -0.9786515824377855 [Eh]
	 SCS Correlation Energy    =      -1.0510218172625496 [Eh]
	 SCS Total Energy          =    -213.8001203252324274 [Eh]
	-----------------------------------------------------------

  Dipole Moment: [D]
     X:    -0.0283      Y:     0.0549      Z:    -0.0210     Total:     0.0653

*** Psi4 exiting successfully. Buy a developer a beer!
