                               Psi4 1.4a3.dev225

  ==> Input File <==

--------------------------------------------------------------------------
#psi4
#
memory 32 gb

molecule  {
1 1
  N        0.0000000     0.0000000     0.0000000
  C        1.4895250     0.0926920    -0.1642530
  C       -0.3334060    -0.1729460     1.4536780
  C       -0.5464522    -1.1444967    -0.8035967
  C       -0.6393960     1.2574900    -0.5139490
  H        1.8514760     0.9503420     0.4029520
  H        1.9409440    -0.8253370     0.2122260
  H        1.7177820     0.2178920    -1.2227970
  H       -1.4164000    -0.2388150     1.5589270
  H        0.1362470    -1.0883220     1.8139650
  H        0.0467840     0.6873570     2.0047010
  H       -1.5978840    -1.2330590    -0.6479300
  H       -0.2683930    -1.0393290    -1.8279050
  H       -0.0452370    -2.0825640    -0.3928860
  H       -1.7193290     1.1773100    -0.3890120
  H       -0.2561440     2.1034850     0.0567550
  H       -0.3898460     1.3710400    -1.5689960
units angstrom
no_reorient  #important for SAPT in psi4, default
symmetry c1  #important for SAPT in psi4, default
}

set PROPERTIES_ORIGIN ["COM"]
properties('MP2/aug-cc-pvtz', properties = ['dipole'])
--------------------------------------------------------------------------

    Molecular point group: c1
  Charge       = 1
  Multiplicity = 1
  Basis Set: AUG-CC-PVTZ
    Blend: AUG-CC-PVTZ
  Basis Set: (AUG-CC-PVTZ AUX)
    Blend: AUG-CC-PVTZ-JKFIT

    Orbital Energies [Eh]
    ---------------------

    Doubly Occupied:

       1A    -15.870570     2A    -11.454357     3A    -11.454347
       4A    -11.454313     5A    -11.453271     6A     -1.508504
       7A     -1.174760     8A     -1.172193     9A     -1.169627
      10A     -1.022223    11A     -0.872400    12A     -0.870703
      13A     -0.866333    14A     -0.783960    15A     -0.777895
      16A     -0.739191    17A     -0.731470    18A     -0.727164
      19A     -0.722774    20A     -0.722037    21A     -0.708898

  @DF-RHF Final Energy:  -212.76054488403747

   => Energetics <=

    Nuclear Repulsion Energy =            213.9951267877107171
    One-Electron Energy =                -700.9973652017229142
    Two-Electron Energy =                 274.2416935299747252
    Total Energy =                       -212.7605448840374720
  Basis Set: (AUG-CC-PVTZ AUX)
    Blend: AUG-CC-PVTZ-RI
    Molecular point group: c1

    Geometry (in Angstrom), charge = 1, multiplicity = 1:

       Center              X                  Y                   Z               Mass
    ------------   -----------------  -----------------  -----------------  -----------------
         N            0.004814641933    -0.005302127425     0.004554145466    14.003074004430
         C            1.494339641933     0.087389872575    -0.159698854534    12.000000000000
         C           -0.328591358067    -0.178248127425     1.458232145466    12.000000000000
         C           -0.541637558067    -1.149798827425    -0.799042554534    12.000000000000
         C           -0.634581358067     1.252187872575    -0.509394854534    12.000000000000
         H            1.856290641933     0.945039872575     0.407506145466     1.007825032230
         H            1.945758641933    -0.830639127425     0.216780145466     1.007825032230
         H            1.722596641933     0.212589872575    -1.218242854534     1.007825032230
         H           -1.411585358067    -0.244117127425     1.563481145466     1.007825032230
         H            0.141061641933    -1.093624127425     1.818519145466     1.007825032230
         H            0.051598641933     0.682054872575     2.009255145466     1.007825032230
         H           -1.593069358067    -1.238361127425    -0.643375854534     1.007825032230
         H           -0.263578358067    -1.044631127425    -1.823350854534     1.007825032230
         H           -0.040422358067    -2.087866127425    -0.388331854534     1.007825032230
         H           -1.714514358067     1.172007872575    -0.384457854534     1.007825032230
         H           -0.251329358067     2.098182872575     0.061309145466     1.007825032230
         H           -0.385031358067     1.365737872575    -1.564441854534     1.007825032230

  Basis Set: AUG-CC-PVTZ
    Blend: AUG-CC-PVTZ
  Basis Set: (AUG-CC-PVTZ AUX)
    Blend: AUG-CC-PVTZ-JKFIT
	 Reference Energy          =    -212.7605448840374720 [Eh]
	 Singles Energy            =      -0.0000000000000000 [Eh]
	 Same-Spin Energy          =      -0.2169121757103019 [Eh]
	 Opposite-Spin Energy      =      -0.8149834164527323 [Eh]
	 Correlation Energy        =      -1.0318955921630342 [Eh]
	 Total Energy              =    -213.7924404762005111 [Eh]

	 ================> DF-SCS-MP2 Energies <==================
	-----------------------------------------------------------
	 SCS Same-Spin Scale       =       0.3333333333333333 [-]
	 SCS Opposite-Spin Scale   =       1.2000000000000000 [-]
	 SCS Same-Spin Energy      =      -0.0723040585701006 [Eh]
	 SCS Opposite-Spin Energy  =      -0.9779800997432787 [Eh]
	 SCS Correlation Energy    =      -1.0502841583133793 [Eh]
	 SCS Total Energy          =    -213.8108290423508606 [Eh]
	-----------------------------------------------------------

  Dipole Moment: [D]
     X:     0.0142      Y:    -0.0098      Z:     0.0144     Total:     0.0224

*** Psi4 exiting successfully. Buy a developer a beer!
