                               Psi4 1.4a3.dev225

  ==> Input File <==

--------------------------------------------------------------------------
#psi4
#
memory 32 gb

molecule  {
1 1
  N        0.0000000     0.0000000     0.0000000
  C        1.4895250     0.0926920    -0.1642530
  C       -0.3334060    -0.1729460     1.4536780
  C       -0.5167230    -1.1772360    -0.7754760
  C       -0.6393960     1.2574900    -0.5139490
  H        1.8514760     0.9503420     0.4029520
  H        1.9409440    -0.8253370     0.2122260
  H        1.7177820     0.2178920    -1.2227970
  H       -1.3965302    -0.2376065     1.5569960
  H        0.1362470    -1.0883220     1.8139650
  H        0.0467840     0.6873570     2.0047010
  H       -1.5978840    -1.2330590    -0.6479300
  H       -0.2683930    -1.0393290    -1.8279050
  H       -0.0452370    -2.0825640    -0.3928860
  H       -1.7193290     1.1773100    -0.3890120
  H       -0.2561440     2.1034850     0.0567550
  H       -0.3898460     1.3710400    -1.5689960
units angstrom
no_reorient  #important for SAPT in psi4, default
symmetry c1  #important for SAPT in psi4, default
}

set PROPERTIES_ORIGIN ["COM"]
properties('MP2/aug-cc-pvtz', properties = ['dipole'])
--------------------------------------------------------------------------

    Molecular point group: c1
  Charge       = 1
  Multiplicity = 1
  Basis Set: AUG-CC-PVTZ
    Blend: AUG-CC-PVTZ
  Basis Set: (AUG-CC-PVTZ AUX)
    Blend: AUG-CC-PVTZ-JKFIT

    Orbital Energies [Eh]
    ---------------------

    Doubly Occupied:

       1A    -15.870305     2A    -11.453963     3A    -11.453950
       4A    -11.453826     5A    -11.451795     6A     -1.508409
       7A     -1.173730     8A     -1.172090     9A     -1.172022
      10A     -1.022514    11A     -0.870799    12A     -0.869423
      13A     -0.869405    14A     -0.781635    15A     -0.780413
      16A     -0.733354    17A     -0.731416    18A     -0.731376
      19A     -0.720578    20A     -0.719841    21A     -0.719816

  @DF-RHF Final Energy:  -212.76376509344655

   => Energetics <=

    Nuclear Repulsion Energy =            214.0760622385747354
    One-Electron Energy =                -701.1583375011033468
    Two-Electron Energy =                 274.3185101690820034
    Total Energy =                       -212.7637650934465796
  Basis Set: (AUG-CC-PVTZ AUX)
    Blend: AUG-CC-PVTZ-RI
    Molecular point group: c1

    Geometry (in Angstrom), charge = 1, multiplicity = 1:

       Center              X                  Y                   Z               Mass
    ------------   -----------------  -----------------  -----------------  -----------------
         N           -0.000270257753    -0.000016437332     0.000026264367    14.003074004430
         C            1.489254742247     0.092675562668    -0.164226735633    12.000000000000
         C           -0.333676257753    -0.172962437332     1.453704264367    12.000000000000
         C           -0.516993257753    -1.177252437332    -0.775449735633    12.000000000000
         C           -0.639666257753     1.257473562668    -0.513922735633    12.000000000000
         H            1.851205742247     0.950325562668     0.402978264367     1.007825032230
         H            1.940673742247    -0.825353437332     0.212252264367     1.007825032230
         H            1.717511742247     0.217875562668    -1.222770735633     1.007825032230
         H           -1.396800457753    -0.237622937332     1.557022264367     1.007825032230
         H            0.135976742247    -1.088338437332     1.813991264367     1.007825032230
         H            0.046513742247     0.687340562668     2.004727264367     1.007825032230
         H           -1.598154257753    -1.233075437332    -0.647903735633     1.007825032230
         H           -0.268663257753    -1.039345437332    -1.827878735633     1.007825032230
         H           -0.045507257753    -2.082580437332    -0.392859735633     1.007825032230
         H           -1.719599257753     1.177293562668    -0.388985735633     1.007825032230
         H           -0.256414257753     2.103468562668     0.056781264367     1.007825032230
         H           -0.390116257753     1.371023562668    -1.568969735633     1.007825032230

  Basis Set: AUG-CC-PVTZ
    Blend: AUG-CC-PVTZ
  Basis Set: (AUG-CC-PVTZ AUX)
    Blend: AUG-CC-PVTZ-JKFIT
	 Reference Energy          =    -212.7637650934465512 [Eh]
	 Singles Energy            =      -0.0000000000000000 [Eh]
	 Same-Spin Energy          =      -0.2168202618063652 [Eh]
	 Opposite-Spin Energy      =      -0.8146607577281529 [Eh]
	 Correlation Energy        =      -1.0314810195345181 [Eh]
	 Total Energy              =    -213.7952461129810615 [Eh]

	 ================> DF-SCS-MP2 Energies <==================
	-----------------------------------------------------------
	 SCS Same-Spin Scale       =       0.3333333333333333 [-]
	 SCS Opposite-Spin Scale   =       1.2000000000000000 [-]
	 SCS Same-Spin Energy      =      -0.0722734206021217 [Eh]
	 SCS Opposite-Spin Energy  =      -0.9775929092737835 [Eh]
	 SCS Correlation Energy    =      -1.0498663298759052 [Eh]
	 SCS Total Energy          =    -213.8136314233224482 [Eh]
	-----------------------------------------------------------

  Dipole Moment: [D]
     X:    -0.0005      Y:     0.0000      Z:    -0.0007     Total:     0.0008

*** Psi4 exiting successfully. Buy a developer a beer!
