                               Psi4 1.4a3.dev225

  ==> Input File <==

--------------------------------------------------------------------------
#psi4
#
memory 32 gb

molecule  {
1 1
  N        0.0000000     0.0000000     0.0000000
  C        1.4895250     0.0926920    -0.1642530
  C       -0.3334060    -0.1729460     1.4536780
  C       -0.5167230    -1.1772360    -0.7754760
  C       -0.6393960     1.2574900    -0.5139490
  H        1.8514760     0.9503420     0.4029520
  H        1.8581215    -0.6569050     0.1431529
  H        1.7177820     0.2178920    -1.2227970
  H       -1.4164000    -0.2388150     1.5589270
  H        0.1362470    -1.0883220     1.8139650
  H        0.0467840     0.6873570     2.0047010
  H       -1.5978840    -1.2330590    -0.6479300
  H       -0.2683930    -1.0393290    -1.8279050
  H       -0.0452370    -2.0825640    -0.3928860
  H       -1.7193290     1.1773100    -0.3890120
  H       -0.2561440     2.1034850     0.0567550
  H       -0.3898460     1.3710400    -1.5689960
units angstrom
no_reorient  #important for SAPT in psi4, default
symmetry c1  #important for SAPT in psi4, default
}

set PROPERTIES_ORIGIN ["COM"]
properties('MP2/aug-cc-pvtz', properties = ['dipole'])
--------------------------------------------------------------------------

    Molecular point group: c1
  Charge       = 1
  Multiplicity = 1
  Basis Set: AUG-CC-PVTZ
    Blend: AUG-CC-PVTZ
  Basis Set: (AUG-CC-PVTZ AUX)
    Blend: AUG-CC-PVTZ-JKFIT

    Orbital Energies [Eh]
    ---------------------

    Doubly Occupied:

       1A    -15.869701     2A    -11.454340     3A    -11.454327
       4A    -11.453281     5A    -11.432148     6A     -1.509299
       7A     -1.195438     8A     -1.172412     9A     -1.171810
      10A     -1.029868    11A     -0.887074    12A     -0.869398
      13A     -0.869300    14A     -0.795459    15A     -0.780552
      16A     -0.747565    17A     -0.731590    18A     -0.731411
      19A     -0.722369    20A     -0.719766    21A     -0.719562

  @DF-RHF Final Energy:  -212.72898637827106

   => Energetics <=

    Nuclear Repulsion Energy =            214.9823677209866730
    One-Electron Energy =                -702.7893719613030044
    Two-Electron Energy =                 275.0780178620452716
    Total Energy =                       -212.7289863782710881
  Basis Set: (AUG-CC-PVTZ AUX)
    Blend: AUG-CC-PVTZ-RI
    Molecular point group: c1

    Geometry (in Angstrom), charge = 1, multiplicity = 1:

       Center              X                  Y                   Z               Mass
    ------------   -----------------  -----------------  -----------------  -----------------
         N            0.001126504684    -0.002290916562     0.000939493141    14.003074004430
         C            1.490651504684     0.090401083438    -0.163313506859    12.000000000000
         C           -0.332279495316    -0.175236916562     1.454617493141    12.000000000000
         C           -0.515596495316    -1.179526916562    -0.774536506859    12.000000000000
         C           -0.638269495316     1.255199083438    -0.513009506859    12.000000000000
         H            1.852602504684     0.948051083438     0.403891493141     1.007825032230
         H            1.859248004684    -0.659195916562     0.144092393141     1.007825032230
         H            1.718908504684     0.215601083438    -1.221857506859     1.007825032230
         H           -1.415273495316    -0.241105916562     1.559866493141     1.007825032230
         H            0.137373504684    -1.090612916562     1.814904493141     1.007825032230
         H            0.047910504684     0.685066083438     2.005640493141     1.007825032230
         H           -1.596757495316    -1.235349916562    -0.646990506859     1.007825032230
         H           -0.267266495316    -1.041619916562    -1.826965506859     1.007825032230
         H           -0.044110495316    -2.084854916562    -0.391946506859     1.007825032230
         H           -1.718202495316     1.175019083438    -0.388072506859     1.007825032230
         H           -0.255017495316     2.101194083438     0.057694493141     1.007825032230
         H           -0.388719495316     1.368749083438    -1.568056506859     1.007825032230

  Basis Set: AUG-CC-PVTZ
    Blend: AUG-CC-PVTZ
  Basis Set: (AUG-CC-PVTZ AUX)
    Blend: AUG-CC-PVTZ-JKFIT
	 Reference Energy          =    -212.7289863782710597 [Eh]
	 Singles Energy            =      -0.0000000000000000 [Eh]
	 Same-Spin Energy          =      -0.2167098076127374 [Eh]
	 Opposite-Spin Energy      =      -0.8139996966080122 [Eh]
	 Correlation Energy        =      -1.0307095042207495 [Eh]
	 Total Energy              =    -213.7596958824917976 [Eh]

	 ================> DF-SCS-MP2 Energies <==================
	-----------------------------------------------------------
	 SCS Same-Spin Scale       =       0.3333333333333333 [-]
	 SCS Opposite-Spin Scale   =       1.2000000000000000 [-]
	 SCS Same-Spin Energy      =      -0.0722366025375791 [Eh]
	 SCS Opposite-Spin Energy  =      -0.9767996359296146 [Eh]
	 SCS Correlation Energy    =      -1.0490362384671936 [Eh]
	 SCS Total Energy          =    -213.7780226167382409 [Eh]
	-----------------------------------------------------------

  Dipole Moment: [D]
     X:    -0.0129      Y:     0.0011      Z:     0.0005     Total:     0.0129

*** Psi4 exiting successfully. Buy a developer a beer!
