                               Psi4 1.4a3.dev225

  ==> Input File <==

--------------------------------------------------------------------------
#psi4
#
memory 32 gb

molecule  {
1 1
  N        0.0000000     0.0000000     0.0000000
  C        1.4895250     0.0926920    -0.1642530
  C       -0.3334060    -0.1729460     1.4536780
  C       -0.5167230    -1.1772360    -0.7754760
  C       -0.6393960     1.2574900    -0.5139490
  H        1.8514760     0.9503420     0.4029520
  H        1.9409440    -0.8253370     0.2122260
  H        1.6968427     0.2064067    -1.1256907
  H       -1.4164000    -0.2388150     1.5589270
  H        0.1362470    -1.0883220     1.8139650
  H        0.0467840     0.6873570     2.0047010
  H       -1.5978840    -1.2330590    -0.6479300
  H       -0.2683930    -1.0393290    -1.8279050
  H       -0.0452370    -2.0825640    -0.3928860
  H       -1.7193290     1.1773100    -0.3890120
  H       -0.2561440     2.1034850     0.0567550
  H       -0.3898460     1.3710400    -1.5689960
units angstrom
no_reorient  #important for SAPT in psi4, default
symmetry c1  #important for SAPT in psi4, default
}

set PROPERTIES_ORIGIN ["COM"]
properties('MP2/aug-cc-pvtz', properties = ['dipole'])
--------------------------------------------------------------------------

    Molecular point group: c1
  Charge       = 1
  Multiplicity = 1
  Basis Set: AUG-CC-PVTZ
    Blend: AUG-CC-PVTZ
  Basis Set: (AUG-CC-PVTZ AUX)
    Blend: AUG-CC-PVTZ-JKFIT

    Orbital Energies [Eh]
    ---------------------

    Doubly Occupied:

       1A    -15.869956     2A    -11.454127     3A    -11.454114
       4A    -11.453524     5A    -11.443070     6A     -1.508679
       7A     -1.181778     8A     -1.172224     9A     -1.171898
      10A     -1.025431    11A     -0.877151    12A     -0.869379
      13A     -0.869307    14A     -0.787335    15A     -0.780428
      16A     -0.740869    17A     -0.731475    18A     -0.731324
      19A     -0.721843    20A     -0.719757    21A     -0.719638

  @DF-RHF Final Energy:  -212.75762812714504

   => Energetics <=

    Nuclear Repulsion Energy =            214.4507674293917034
    One-Electron Energy =                -701.8501775083752818
    Two-Electron Energy =                 274.6417819518385386
    Total Energy =                       -212.7576281271450398
  Basis Set: (AUG-CC-PVTZ AUX)
    Blend: AUG-CC-PVTZ-RI
    Molecular point group: c1

    Geometry (in Angstrom), charge = 1, multiplicity = 1:

       Center              X                  Y                   Z               Mass
    ------------   -----------------  -----------------  -----------------  -----------------
         N            0.000284804486     0.000156216538    -0.001320784833    14.003074004430
         C            1.489809804486     0.092848216538    -0.165573784833    12.000000000000
         C           -0.333121195514    -0.172789783462     1.452357215167    12.000000000000
         C           -0.516438195514    -1.177079783462    -0.776796784833    12.000000000000
         C           -0.639111195514     1.257646216538    -0.515269784833    12.000000000000
         H            1.851760804486     0.950498216538     0.401631215167     1.007825032230
         H            1.941228804486    -0.825180783462     0.210905215167     1.007825032230
         H            1.697127504486     0.206562916538    -1.127011484833     1.007825032230
         H           -1.416115195514    -0.238658783462     1.557606215167     1.007825032230
         H            0.136531804486    -1.088165783462     1.812644215167     1.007825032230
         H            0.047068804486     0.687513216538     2.003380215167     1.007825032230
         H           -1.597599195514    -1.232902783462    -0.649250784833     1.007825032230
         H           -0.268108195514    -1.039172783462    -1.829225784833     1.007825032230
         H           -0.044952195514    -2.082407783462    -0.394206784833     1.007825032230
         H           -1.719044195514     1.177466216538    -0.390332784833     1.007825032230
         H           -0.255859195514     2.103641216538     0.055434215167     1.007825032230
         H           -0.389561195514     1.371196216538    -1.570316784833     1.007825032230

  Basis Set: AUG-CC-PVTZ
    Blend: AUG-CC-PVTZ
  Basis Set: (AUG-CC-PVTZ AUX)
    Blend: AUG-CC-PVTZ-JKFIT
	 Reference Energy          =    -212.7576281271450398 [Eh]
	 Singles Energy            =      -0.0000000000000000 [Eh]
	 Same-Spin Energy          =      -0.2167351562309855 [Eh]
	 Opposite-Spin Energy      =      -0.8142069199969000 [Eh]
	 Correlation Energy        =      -1.0309420762278854 [Eh]
	 Total Energy              =    -213.7885702033729274 [Eh]

	 ================> DF-SCS-MP2 Energies <==================
	-----------------------------------------------------------
	 SCS Same-Spin Scale       =       0.3333333333333333 [-]
	 SCS Opposite-Spin Scale   =       1.2000000000000000 [-]
	 SCS Same-Spin Energy      =      -0.0722450520769952 [Eh]
	 SCS Opposite-Spin Energy  =      -0.9770483039962800 [Eh]
	 SCS Correlation Energy    =      -1.0492933560732751 [Eh]
	 SCS Total Energy          =    -213.8069214832183036 [Eh]
	-----------------------------------------------------------

  Dipole Moment: [D]
     X:    -0.0044      Y:    -0.0001      Z:    -0.0010     Total:     0.0045

*** Psi4 exiting successfully. Buy a developer a beer!
