                               Psi4 1.4a3.dev225

  ==> Input File <==

--------------------------------------------------------------------------
#psi4
#
memory 32 gb

molecule  {
1 1
  N        0.0000000     0.0000000     0.0000000
  C        1.4895250     0.0926920    -0.1642530
  C       -0.3334060    -0.1729460     1.4536780
  C       -0.6038778    -1.0748765    -0.8568677
  C       -0.6393960     1.2574900    -0.5139490
  H        1.8514760     0.9503420     0.4029520
  H        1.9409440    -0.8253370     0.2122260
  H        1.7177820     0.2178920    -1.2227970
  H       -1.4164000    -0.2388150     1.5589270
  H        0.1362470    -1.0883220     1.8139650
  H        0.0467840     0.6873570     2.0047010
  H       -1.5978840    -1.2330590    -0.6479300
  H       -0.2683930    -1.0393290    -1.8279050
  H       -0.0452370    -2.0825640    -0.3928860
  H       -1.7193290     1.1773100    -0.3890120
  H       -0.2561440     2.1034850     0.0567550
  H       -0.3898460     1.3710400    -1.5689960
units angstrom
no_reorient  #important for SAPT in psi4, default
symmetry c1  #important for SAPT in psi4, default
}

set PROPERTIES_ORIGIN ["COM"]
properties('MP2/aug-cc-pvtz', properties = ['dipole'])
--------------------------------------------------------------------------

    Molecular point group: c1
  Charge       = 1
  Multiplicity = 1
  Basis Set: AUG-CC-PVTZ
    Blend: AUG-CC-PVTZ
  Basis Set: (AUG-CC-PVTZ AUX)
    Blend: AUG-CC-PVTZ-JKFIT

    Orbital Energies [Eh]
    ---------------------

    Doubly Occupied:

       1A    -15.871768     2A    -11.457577     3A    -11.455487
       4A    -11.455474     5A    -11.452719     6A     -1.509578
       7A     -1.180722     8A     -1.172817     9A     -1.165839
      10A     -1.024340    11A     -0.880280    12A     -0.873693
      13A     -0.863078    14A     -0.794118    15A     -0.775220
      16A     -0.751086    17A     -0.731983    18A     -0.728241
      19A     -0.724444    20A     -0.723766    21A     -0.675601

  @DF-RHF Final Energy:  -212.73832275702634

   => Energetics <=

    Nuclear Repulsion Energy =            214.0413085016199943
    One-Electron Energy =                -701.0236009924893779
    Two-Electron Energy =                 274.2439697338430733
    Total Energy =                       -212.7383227570263102
  Basis Set: (AUG-CC-PVTZ AUX)
    Blend: AUG-CC-PVTZ-RI
    Molecular point group: c1

    Geometry (in Angstrom), charge = 1, multiplicity = 1:

       Center              X                  Y                   Z               Mass
    ------------   -----------------  -----------------  -----------------  -----------------
         N            0.014114713976    -0.016577114114     0.013181380320    14.003074004430
         C            1.503639713976     0.076114885886    -0.151071619680    12.000000000000
         C           -0.319291286024    -0.189523114114     1.466859380320    12.000000000000
         C           -0.589763086024    -1.091453614114    -0.843686319680    12.000000000000
         C           -0.625281286024     1.240912885886    -0.500767619680    12.000000000000
         H            1.865590713976     0.933764885886     0.416133380320     1.007825032230
         H            1.955058713976    -0.841914114114     0.225407380320     1.007825032230
         H            1.731896713976     0.201314885886    -1.209615619680     1.007825032230
         H           -1.402285286024    -0.255392114114     1.572108380320     1.007825032230
         H            0.150361713976    -1.104899114114     1.827146380320     1.007825032230
         H            0.060898713976     0.670779885886     2.017882380320     1.007825032230
         H           -1.583769286024    -1.249636114114    -0.634748619680     1.007825032230
         H           -0.254278286024    -1.055906114114    -1.814723619680     1.007825032230
         H           -0.031122286024    -2.099141114114    -0.379704619680     1.007825032230
         H           -1.705214286024     1.160732885886    -0.375830619680     1.007825032230
         H           -0.242029286024     2.086907885886     0.069936380320     1.007825032230
         H           -0.375731286024     1.354462885886    -1.555814619680     1.007825032230

  Basis Set: AUG-CC-PVTZ
    Blend: AUG-CC-PVTZ
  Basis Set: (AUG-CC-PVTZ AUX)
    Blend: AUG-CC-PVTZ-JKFIT
	 Reference Energy          =    -212.7383227570263386 [Eh]
	 Singles Energy            =      -0.0000000000000000 [Eh]
	 Same-Spin Energy          =      -0.2174163992526353 [Eh]
	 Opposite-Spin Energy      =      -0.8163340356989321 [Eh]
	 Correlation Energy        =      -1.0337504349515676 [Eh]
	 Total Energy              =    -213.7720731919779098 [Eh]

	 ================> DF-SCS-MP2 Energies <==================
	-----------------------------------------------------------
	 SCS Same-Spin Scale       =       0.3333333333333333 [-]
	 SCS Opposite-Spin Scale   =       1.2000000000000000 [-]
	 SCS Same-Spin Energy      =      -0.0724721330842118 [Eh]
	 SCS Opposite-Spin Energy  =      -0.9796008428387185 [Eh]
	 SCS Correlation Energy    =      -1.0520729759229304 [Eh]
	 SCS Total Energy          =    -213.7903957329492641 [Eh]
	-----------------------------------------------------------

  Dipole Moment: [D]
     X:     0.0426      Y:    -0.0020      Z:     0.0476     Total:     0.0639

*** Psi4 exiting successfully. Buy a developer a beer!
