                               Psi4 1.4a3.dev225

  ==> Input File <==

--------------------------------------------------------------------------
#psi4
#
memory 32 gb

molecule  {
0 1
 Br       -1.6633780    -0.0273310    -0.0496210
  F        2.9439380    -0.7700360    -0.2693270
  C        1.1074600     0.7335270    -0.1744240
  C        0.2144820    -0.3370580     0.4250130
  C        2.5575550     0.4947520     0.1939200
  H        1.0042740     0.7310640    -1.2634220
  H        0.8026450     1.7231540     0.1832310
  H        0.4673990    -1.3258550     0.0471260
  H        0.2514770    -0.3395600     1.5153880
  H        3.2431248     1.2733648    -0.2886088
  H        2.7068340     0.5114440     1.2788360
units angstrom
no_reorient  #important for SAPT in psi4, default
symmetry c1  #important for SAPT in psi4, default
}

set PROPERTIES_ORIGIN ["COM"]
properties('MP2/aug-cc-pvtz', properties = ['dipole'])
--------------------------------------------------------------------------

    Molecular point group: c1
  Charge       = 0
  Multiplicity = 1
  Basis Set: AUG-CC-PVTZ
    Blend: AUG-CC-PVTZ
  Basis Set: (AUG-CC-PVTZ AUX)
    Blend: AUG-CC-PVTZ-JKFIT

    Orbital Energies [Eh]
    ---------------------

    Doubly Occupied:

       1A   -490.012542     2A    -65.152432     3A    -58.507695
       4A    -58.506368     5A    -58.506362     6A    -26.288256
       7A    -11.330734     8A    -11.297947     9A    -11.254064
      10A     -9.825129    11A     -7.436469    12A     -7.430104
      13A     -7.430055    14A     -3.179974    15A     -3.176693
      16A     -3.176660    17A     -3.168444    18A     -3.168443
      19A     -1.594698    20A     -1.109868    21A     -1.019331
      22A     -0.910220    23A     -0.831473    24A     -0.715297
      25A     -0.704051    26A     -0.671064    27A     -0.642917
      28A     -0.580209    29A     -0.553572    30A     -0.536991
      31A     -0.510521    32A     -0.477607    33A     -0.402748
      34A     -0.402034

  @DF-RHF Final Energy: -2789.07857920172410

   => Energetics <=

    Nuclear Repulsion Energy =            314.7077376800773436
    One-Electron Energy =               -4506.5506863753671496
    Two-Electron Energy =                1402.7643694935659369
    Total Energy =                      -2789.0785792017240965
  Basis Set: (AUG-CC-PVTZ AUX)
    Blend: AUG-CC-PVTZ-RI
    Molecular point group: c1

    Geometry (in Angstrom), charge = 0, multiplicity = 1:

       Center              X                  Y                   Z               Mass
    ------------   -----------------  -----------------  -----------------  -----------------
         BR          -1.518734310159    -0.002339024984    -0.033798262040    78.918337600000
         F            3.088581689841    -0.745044024984    -0.253504262040    18.998403162730
         C            1.252103689841     0.758518975016    -0.158601262040    12.000000000000
         C            0.359125689841    -0.312066024984     0.440835737960    12.000000000000
         C            2.702198689841     0.519743975016     0.209742737960    12.000000000000
         H            1.148917689841     0.756055975016    -1.247599262040     1.007825032230
         H            0.947288689841     1.748145975016     0.199053737960     1.007825032230
         H            0.612042689841    -1.300863024984     0.062948737960     1.007825032230
         H            0.396120689841    -0.314568024984     1.531210737960     1.007825032230
         H            3.387768489841     1.298356775016    -0.272786062040     1.007825032230
         H            2.851477689841     0.536435975016     1.294658737960     1.007825032230

  Basis Set: AUG-CC-PVTZ
    Blend: AUG-CC-PVTZ
  Basis Set: (AUG-CC-PVTZ AUX)
    Blend: AUG-CC-PVTZ-JKFIT
	 Reference Energy          =   -2789.0785792017240965 [Eh]
	 Singles Energy            =      -0.0000000000000000 [Eh]
	 Same-Spin Energy          =      -0.2846566098863463 [Eh]
	 Opposite-Spin Energy      =      -0.8621330414203747 [Eh]
	 Correlation Energy        =      -1.1467896513067211 [Eh]
	 Total Energy              =   -2790.2253688530308864 [Eh]

	 ================> DF-SCS-MP2 Energies <==================
	-----------------------------------------------------------
	 SCS Same-Spin Scale       =       0.3333333333333333 [-]
	 SCS Opposite-Spin Scale   =       1.2000000000000000 [-]
	 SCS Same-Spin Energy      =      -0.0948855366287821 [Eh]
	 SCS Opposite-Spin Energy  =      -1.0345596497044496 [Eh]
	 SCS Correlation Energy    =      -1.1294451863332318 [Eh]
	 SCS Total Energy          =   -2790.2080243880573107 [Eh]
	-----------------------------------------------------------

  Dipole Moment: [D]
     X:     1.3275      Y:     1.4399      Z:     0.9205     Total:     2.1640

*** Psi4 exiting successfully. Buy a developer a beer!
