                               Psi4 1.4a3.dev225

  ==> Input File <==

--------------------------------------------------------------------------
#psi4
#
memory 32 gb

molecule  {
0 1
 Br       -1.6633780    -0.0273310    -0.0496210
  F        2.9439380    -0.7700360    -0.2693270
  C        1.1074600     0.7335270    -0.1744240
  C        0.2144820    -0.3370580     0.4250130
  C        2.5299814     0.5850116     0.2269789
  H        1.0042740     0.7310640    -1.2634220
  H        0.8026450     1.7231540     0.1832310
  H        0.4673990    -1.3258550     0.0471260
  H        0.2514770    -0.3395600     1.5153880
  H        3.2131650     1.2393390    -0.2675220
  H        2.7068340     0.5114440     1.2788360
units angstrom
no_reorient  #important for SAPT in psi4, default
symmetry c1  #important for SAPT in psi4, default
}

set PROPERTIES_ORIGIN ["COM"]
properties('MP2/aug-cc-pvtz', properties = ['dipole'])
--------------------------------------------------------------------------

    Molecular point group: c1
  Charge       = 0
  Multiplicity = 1
  Basis Set: AUG-CC-PVTZ
    Blend: AUG-CC-PVTZ
  Basis Set: (AUG-CC-PVTZ AUX)
    Blend: AUG-CC-PVTZ-JKFIT

    Orbital Energies [Eh]
    ---------------------

    Doubly Occupied:

       1A   -490.014037     2A    -65.153917     3A    -58.509184
       4A    -58.507851     5A    -58.507843     6A    -26.262994
       7A    -11.326863     8A    -11.299682     9A    -11.257009
      10A     -9.826605    11A     -7.437961    12A     -7.431571
      13A     -7.431513    14A     -3.181477    15A     -3.178185
      16A     -3.178141    17A     -3.169891    18A     -3.169890
      19A     -1.548104    20A     -1.116218    21A     -1.027639
      22A     -0.916106    23A     -0.833396    24A     -0.701932
      25A     -0.687057    26A     -0.648826    27A     -0.628611
      28A     -0.580402    29A     -0.560273    30A     -0.537344
      31A     -0.525300    32A     -0.484775    33A     -0.404745
      34A     -0.403452

  @DF-RHF Final Energy: -2789.07152212582423

   => Energetics <=

    Nuclear Repulsion Energy =            314.1073523278671473
    One-Electron Energy =               -4505.4601618413244069
    Two-Electron Energy =                1402.2812873876328013
    Total Energy =                      -2789.0715221258242309
  Basis Set: (AUG-CC-PVTZ AUX)
    Blend: AUG-CC-PVTZ-RI
    Molecular point group: c1

    Geometry (in Angstrom), charge = 0, multiplicity = 1:

       Center              X                  Y                   Z               Mass
    ------------   -----------------  -----------------  -----------------  -----------------
         BR          -1.516154516543    -0.009832562343    -0.036784455117    78.918337600000
         F            3.091161483457    -0.752537562343    -0.256490455117    18.998403162730
         C            1.254683483457     0.751025437657    -0.161587455117    12.000000000000
         C            0.361705483457    -0.319559562343     0.437849544883    12.000000000000
         C            2.677204883457     0.602510037657     0.239815444883    12.000000000000
         H            1.151497483457     0.748562437657    -1.250585455117     1.007825032230
         H            0.949868483457     1.740652437657     0.196067544883     1.007825032230
         H            0.614622483457    -1.308356562343     0.059962544883     1.007825032230
         H            0.398700483457    -0.322061562343     1.528224544883     1.007825032230
         H            3.360388483457     1.256837437657    -0.254685455117     1.007825032230
         H            2.854057483457     0.528942437657     1.291672544883     1.007825032230

  Basis Set: AUG-CC-PVTZ
    Blend: AUG-CC-PVTZ
  Basis Set: (AUG-CC-PVTZ AUX)
    Blend: AUG-CC-PVTZ-JKFIT
	 Reference Energy          =   -2789.0715221258242309 [Eh]
	 Singles Energy            =      -0.0000000000000000 [Eh]
	 Same-Spin Energy          =      -0.2851052223931815 [Eh]
	 Opposite-Spin Energy      =      -0.8638009650264268 [Eh]
	 Correlation Energy        =      -1.1489061874196083 [Eh]
	 Total Energy              =   -2790.2204283132437013 [Eh]

	 ================> DF-SCS-MP2 Energies <==================
	-----------------------------------------------------------
	 SCS Same-Spin Scale       =       0.3333333333333333 [-]
	 SCS Opposite-Spin Scale   =       1.2000000000000000 [-]
	 SCS Same-Spin Energy      =      -0.0950350741310605 [Eh]
	 SCS Opposite-Spin Energy  =      -1.0365611580317120 [Eh]
	 SCS Correlation Energy    =      -1.1315962321627724 [Eh]
	 SCS Total Energy          =   -2790.2031183579870230 [Eh]
	-----------------------------------------------------------

  Dipole Moment: [D]
     X:     1.1399      Y:     1.8247      Z:     1.0478     Total:     2.3931

*** Psi4 exiting successfully. Buy a developer a beer!
