                               Psi4 1.4a3.dev225

  ==> Input File <==

--------------------------------------------------------------------------
#psi4
#
memory 32 gb

molecule  {
0 1
 Br       -1.6633780    -0.0273310    -0.0496210
  F        2.9439380    -0.7700360    -0.2693270
  C        1.1074600     0.7335270    -0.1744240
  C        0.1934294    -0.3253108     0.4140462
  C        2.5575550     0.4947520     0.1939200
  H        1.0042740     0.7310640    -1.2634220
  H        0.8026450     1.7231540     0.1832310
  H        0.4673990    -1.3258550     0.0471260
  H        0.2514770    -0.3395600     1.5153880
  H        3.2131650     1.2393390    -0.2675220
  H        2.7068340     0.5114440     1.2788360
units angstrom
no_reorient  #important for SAPT in psi4, default
symmetry c1  #important for SAPT in psi4, default
}

set PROPERTIES_ORIGIN ["COM"]
properties('MP2/aug-cc-pvtz', properties = ['dipole'])
--------------------------------------------------------------------------

    Molecular point group: c1
  Charge       = 0
  Multiplicity = 1
  Basis Set: AUG-CC-PVTZ
    Blend: AUG-CC-PVTZ
  Basis Set: (AUG-CC-PVTZ AUX)
    Blend: AUG-CC-PVTZ-JKFIT

    Orbital Energies [Eh]
    ---------------------

    Doubly Occupied:

       1A   -490.014239     2A    -65.154204     3A    -58.509462
       4A    -58.508136     5A    -58.508127     6A    -26.286607
       7A    -11.324589     8A    -11.297021     9A    -11.252768
      10A     -9.827035    11A     -7.438451    12A     -7.432004
      13A     -7.431945    14A     -3.181995    15A     -3.178635
      16A     -3.178592    17A     -3.170306    18A     -3.170305
      19A     -1.593290    20A     -1.110418    21A     -1.023271
      22A     -0.912540    23A     -0.828684    24A     -0.713723
      25A     -0.707245    26A     -0.670907    27A     -0.639301
      28A     -0.578269    29A     -0.556247    30A     -0.534845
      31A     -0.511532    32A     -0.483193    33A     -0.403451
      34A     -0.402235

  @DF-RHF Final Energy: -2789.08017202577230

   => Energetics <=

    Nuclear Repulsion Energy =            315.5002291401644356
    One-Electron Energy =               -4508.0936624415953702
    Two-Electron Energy =                1403.5132612756588060
    Total Energy =                      -2789.0801720257722991
  Basis Set: (AUG-CC-PVTZ AUX)
    Blend: AUG-CC-PVTZ-RI
    Molecular point group: c1

    Geometry (in Angstrom), charge = 0, multiplicity = 1:

       Center              X                  Y                   Z               Mass
    ------------   -----------------  -----------------  -----------------  -----------------
         BR          -1.516713604400    -0.003101182272    -0.033009844742    78.918337600000
         F            3.090602395600    -0.745806182272    -0.252715844742    18.998403162730
         C            1.254124395600     0.757756817728    -0.157812844742    12.000000000000
         C            0.340093795600    -0.301080982272     0.430657355258    12.000000000000
         C            2.704219395600     0.518981817728     0.210531155258    12.000000000000
         H            1.150938395600     0.755293817728    -1.246810844742     1.007825032230
         H            0.949309395600     1.747383817728     0.199842155258     1.007825032230
         H            0.614063395600    -1.301625182272     0.063737155258     1.007825032230
         H            0.398141395600    -0.315330182272     1.531999155258     1.007825032230
         H            3.359829395600     1.263568817728    -0.250910844742     1.007825032230
         H            2.853498395600     0.535673817728     1.295447155258     1.007825032230

  Basis Set: AUG-CC-PVTZ
    Blend: AUG-CC-PVTZ
  Basis Set: (AUG-CC-PVTZ AUX)
    Blend: AUG-CC-PVTZ-JKFIT
	 Reference Energy          =   -2789.0801720257722991 [Eh]
	 Singles Energy            =      -0.0000000000000000 [Eh]
	 Same-Spin Energy          =      -0.2848467099171420 [Eh]
	 Opposite-Spin Energy      =      -0.8620625125654895 [Eh]
	 Correlation Energy        =      -1.1469092224826314 [Eh]
	 Total Energy              =   -2790.2270812482547626 [Eh]

	 ================> DF-SCS-MP2 Energies <==================
	-----------------------------------------------------------
	 SCS Same-Spin Scale       =       0.3333333333333333 [-]
	 SCS Opposite-Spin Scale   =       1.2000000000000000 [-]
	 SCS Same-Spin Energy      =      -0.0949489033057140 [Eh]
	 SCS Opposite-Spin Energy  =      -1.0344750150785873 [Eh]
	 SCS Correlation Energy    =      -1.1294239183843013 [Eh]
	 SCS Total Energy          =   -2790.2095959441567175 [Eh]
	-----------------------------------------------------------

  Dipole Moment: [D]
     X:     1.2769      Y:     1.4675      Z:     0.9034     Total:     2.1448

*** Psi4 exiting successfully. Buy a developer a beer!
