                               Psi4 1.4a3.dev225

  ==> Input File <==

--------------------------------------------------------------------------
#psi4
#
memory 32 gb

molecule  {
0 1
 Br       -1.6633780    -0.0273310    -0.0496210
  F        2.9439380    -0.7700360    -0.2693270
  C        1.1074600     0.7335270    -0.1744240
  C        0.3013473    -0.3807514     0.4670217
  C        2.5575550     0.4947520     0.1939200
  H        1.0042740     0.7310640    -1.2634220
  H        0.8026450     1.7231540     0.1832310
  H        0.4673990    -1.3258550     0.0471260
  H        0.2514770    -0.3395600     1.5153880
  H        3.2131650     1.2393390    -0.2675220
  H        2.7068340     0.5114440     1.2788360
units angstrom
no_reorient  #important for SAPT in psi4, default
symmetry c1  #important for SAPT in psi4, default
}

set PROPERTIES_ORIGIN ["COM"]
properties('MP2/aug-cc-pvtz', properties = ['dipole'])
--------------------------------------------------------------------------

    Molecular point group: c1
  Charge       = 0
  Multiplicity = 1
  Basis Set: AUG-CC-PVTZ
    Blend: AUG-CC-PVTZ
  Basis Set: (AUG-CC-PVTZ AUX)
    Blend: AUG-CC-PVTZ-JKFIT

    Orbital Energies [Eh]
    ---------------------

    Doubly Occupied:

       1A   -490.003112     2A    -65.142830     3A    -58.498076
       4A    -58.496787     5A    -58.496784     6A    -26.290514
       7A    -11.326777     8A    -11.302970     9A    -11.258149
      10A     -9.815157    11A     -7.426180    12A     -7.420204
      13A     -7.420193    14A     -3.169501    15A     -3.166546
      16A     -3.166538    17A     -3.158751    18A     -3.158750
      19A     -1.597420    20A     -1.111098    21A     -1.010368
      22A     -0.915828    23A     -0.843140    24A     -0.720321
      25A     -0.712429    26A     -0.672987    27A     -0.660708
      28A     -0.591090    29A     -0.552145    30A     -0.547508
      31A     -0.519478    32A     -0.454447    33A     -0.398422
      34A     -0.396407

  @DF-RHF Final Energy: -2789.07470449019502

   => Energetics <=

    Nuclear Repulsion Energy =            312.9112035572583181
    One-Electron Energy =               -4503.1285811272346109
    Two-Electron Energy =                1401.1426730797816163
    Total Energy =                      -2789.0747044901950176
  Basis Set: (AUG-CC-PVTZ AUX)
    Blend: AUG-CC-PVTZ-RI
    Molecular point group: c1

    Geometry (in Angstrom), charge = 0, multiplicity = 1:

       Center              X                  Y                   Z               Mass
    ------------   -----------------  -----------------  -----------------  -----------------
         BR          -1.525966109754     0.001652101923    -0.037551779837    78.918337600000
         F            3.081349890246    -0.741052898077    -0.257257779837    18.998403162730
         C            1.244871890246     0.762510101923    -0.162354779837    12.000000000000
         C            0.438759190246    -0.351768298077     0.479090920163    12.000000000000
         C            2.694966890246     0.523735101923     0.205989220163    12.000000000000
         H            1.141685890246     0.760047101923    -1.251352779837     1.007825032230
         H            0.940056890246     1.752137101923     0.195300220163     1.007825032230
         H            0.604810890246    -1.296871898077     0.059195220163     1.007825032230
         H            0.388888890246    -0.310576898077     1.527457220163     1.007825032230
         H            3.350576890246     1.268322101923    -0.255452779837     1.007825032230
         H            2.844245890246     0.540427101923     1.290905220163     1.007825032230

  Basis Set: AUG-CC-PVTZ
    Blend: AUG-CC-PVTZ
  Basis Set: (AUG-CC-PVTZ AUX)
    Blend: AUG-CC-PVTZ-JKFIT
	 Reference Energy          =   -2789.0747044901950176 [Eh]
	 Singles Energy            =      -0.0000000000000000 [Eh]
	 Same-Spin Energy          =      -0.2838561081844491 [Eh]
	 Opposite-Spin Energy      =      -0.8607567720927838 [Eh]
	 Correlation Energy        =      -1.1446128802772328 [Eh]
	 Total Energy              =   -2790.2193173704722540 [Eh]

	 ================> DF-SCS-MP2 Energies <==================
	-----------------------------------------------------------
	 SCS Same-Spin Scale       =       0.3333333333333333 [-]
	 SCS Opposite-Spin Scale   =       1.2000000000000000 [-]
	 SCS Same-Spin Energy      =      -0.0946187027281497 [Eh]
	 SCS Opposite-Spin Energy  =      -1.0329081265113405 [Eh]
	 SCS Correlation Energy    =      -1.1275268292394902 [Eh]
	 SCS Total Energy          =   -2790.2022313194343042 [Eh]
	-----------------------------------------------------------

  Dipole Moment: [D]
     X:     1.6814      Y:     1.4633      Z:     0.9685     Total:     2.4303

*** Psi4 exiting successfully. Buy a developer a beer!
