                               Psi4 1.4a3.dev225

  ==> Input File <==

--------------------------------------------------------------------------
#psi4
#
memory 32 gb

molecule  {
0 1
 Br       -1.6633780    -0.0273310    -0.0496210
  F        2.9439380    -0.7700360    -0.2693270
  C        1.1074600     0.7335270    -0.1744240
  C        0.2573968    -0.3595706     0.4463955
  C        2.5575550     0.4947520     0.1939200
  H        1.0042740     0.7310640    -1.2634220
  H        0.8026450     1.7231540     0.1832310
  H        0.4673990    -1.3258550     0.0471260
  H        0.2514770    -0.3395600     1.5153880
  H        3.2131650     1.2393390    -0.2675220
  H        2.7068340     0.5114440     1.2788360
units angstrom
no_reorient  #important for SAPT in psi4, default
symmetry c1  #important for SAPT in psi4, default
}

set PROPERTIES_ORIGIN ["COM"]
properties('MP2/aug-cc-pvtz', properties = ['dipole'])
--------------------------------------------------------------------------

    Molecular point group: c1
  Charge       = 0
  Multiplicity = 1
  Basis Set: AUG-CC-PVTZ
    Blend: AUG-CC-PVTZ
  Basis Set: (AUG-CC-PVTZ AUX)
    Blend: AUG-CC-PVTZ-JKFIT

    Orbital Energies [Eh]
    ---------------------

    Doubly Occupied:

       1A   -490.007912     2A    -65.147697     3A    -58.502956
       4A    -58.501643     5A    -58.501640     6A    -26.288736
       7A    -11.325653     8A    -11.299752     9A    -11.255691
      10A     -9.820181    11A     -7.431360    12A     -7.425188
      13A     -7.425160    14A     -3.174775    15A     -3.171658
      16A     -3.171644    17A     -3.163627    18A     -3.163626
      19A     -1.595536    20A     -1.109943    21A     -1.015276
      22A     -0.914546    23A     -0.837620    24A     -0.717225
      25A     -0.710011    26A     -0.671981    27A     -0.651742
      28A     -0.585573    29A     -0.552016    30A     -0.543874
      31A     -0.516220    32A     -0.466451    33A     -0.400786
      34A     -0.399548

  @DF-RHF Final Energy: -2789.07950394189311

   => Energetics <=

    Nuclear Repulsion Energy =            313.9095418210534945
    One-Electron Energy =               -4505.0435922376373128
    Two-Electron Energy =                1402.0545464746908237
    Total Energy =                      -2789.0795039418926535
  Basis Set: (AUG-CC-PVTZ AUX)
    Blend: AUG-CC-PVTZ-RI
    Molecular point group: c1

    Geometry (in Angstrom), charge = 0, multiplicity = 1:

       Center              X                  Y                   Z               Mass
    ------------   -----------------  -----------------  -----------------  -----------------
         BR          -1.522197946766    -0.000163866192    -0.035783361197    78.918337600000
         F            3.085118053234    -0.742868866192    -0.255489361197    18.998403162730
         C            1.248640053234     0.760694133808    -0.160586361197    12.000000000000
         C            0.398576853234    -0.332403466192     0.460233138803    12.000000000000
         C            2.698735053234     0.521919133808     0.207757638803    12.000000000000
         H            1.145454053234     0.758231133808    -1.249584361197     1.007825032230
         H            0.943825053234     1.750321133808     0.197068638803     1.007825032230
         H            0.608579053234    -1.298687866192     0.060963638803     1.007825032230
         H            0.392657053234    -0.312392866192     1.529225638803     1.007825032230
         H            3.354345053234     1.266506133808    -0.253684361197     1.007825032230
         H            2.848014053234     0.538611133808     1.292673638803     1.007825032230

  Basis Set: AUG-CC-PVTZ
    Blend: AUG-CC-PVTZ
  Basis Set: (AUG-CC-PVTZ AUX)
    Blend: AUG-CC-PVTZ-JKFIT
	 Reference Energy          =   -2789.0795039418931083 [Eh]
	 Singles Energy            =      -0.0000000000000000 [Eh]
	 Same-Spin Energy          =      -0.2841687057417117 [Eh]
	 Opposite-Spin Energy      =      -0.8611392686076077 [Eh]
	 Correlation Energy        =      -1.1453079743493193 [Eh]
	 Total Energy              =   -2790.2248119162422881 [Eh]

	 ================> DF-SCS-MP2 Energies <==================
	-----------------------------------------------------------
	 SCS Same-Spin Scale       =       0.3333333333333333 [-]
	 SCS Opposite-Spin Scale   =       1.2000000000000000 [-]
	 SCS Same-Spin Energy      =      -0.0947229019139039 [Eh]
	 SCS Opposite-Spin Energy  =      -1.0333671223291292 [Eh]
	 SCS Correlation Energy    =      -1.1280900242430332 [Eh]
	 SCS Total Energy          =   -2790.2075939661363009 [Eh]
	-----------------------------------------------------------

  Dipole Moment: [D]
     X:     1.5126      Y:     1.4645      Z:     0.9428     Total:     2.3069

*** Psi4 exiting successfully. Buy a developer a beer!
