                               Psi4 1.4a3.dev225

  ==> Input File <==

--------------------------------------------------------------------------
#psi4
#
memory 32 gb

molecule  {
0 1
 Br       -1.6633780    -0.0273310    -0.0496210
  F        2.9439380    -0.7700360    -0.2693270
  C        1.1563105     0.6569957    -0.2289769
  C        0.2144820    -0.3370580     0.4250130
  C        2.5575550     0.4947520     0.1939200
  H        1.0042740     0.7310640    -1.2634220
  H        0.8026450     1.7231540     0.1832310
  H        0.4673990    -1.3258550     0.0471260
  H        0.2514770    -0.3395600     1.5153880
  H        3.2131650     1.2393390    -0.2675220
  H        2.7068340     0.5114440     1.2788360
units angstrom
no_reorient  #important for SAPT in psi4, default
symmetry c1  #important for SAPT in psi4, default
}

set PROPERTIES_ORIGIN ["COM"]
properties('MP2/aug-cc-pvtz', properties = ['dipole'])
--------------------------------------------------------------------------

    Molecular point group: c1
  Charge       = 0
  Multiplicity = 1
  Basis Set: AUG-CC-PVTZ
    Blend: AUG-CC-PVTZ
  Basis Set: (AUG-CC-PVTZ AUX)
    Blend: AUG-CC-PVTZ-JKFIT

    Orbital Energies [Eh]
    ---------------------

    Doubly Occupied:

       1A   -490.013825     2A    -65.153667     3A    -58.508941
       4A    -58.507603     5A    -58.507592     6A    -26.283873
       7A    -11.323790     8A    -11.297766     9A    -11.255870
      10A     -9.826319    11A     -7.437683    12A     -7.431279
      13A     -7.431211    14A     -3.181213    15A     -3.177916
      16A     -3.177860    17A     -3.169585    18A     -3.169583
      19A     -1.593457    20A     -1.112371    21A     -1.025180
      22A     -0.915272    23A     -0.830759    24A     -0.713625
      25A     -0.710639    26A     -0.674282    27A     -0.639760
      28A     -0.585881    29A     -0.559000    30A     -0.522143
      31A     -0.508096    32A     -0.480843    33A     -0.404490
      34A     -0.402149

  @DF-RHF Final Energy: -2789.06917702015380

   => Energetics <=

    Nuclear Repulsion Energy =            315.2921787609491844
    One-Electron Energy =               -4507.6556603563667522
    Two-Electron Energy =                1403.2943045752640501
    Total Energy =                      -2789.0691770201533473
  Basis Set: (AUG-CC-PVTZ AUX)
    Blend: AUG-CC-PVTZ-RI
    Molecular point group: c1

    Geometry (in Angstrom), charge = 0, multiplicity = 1:

       Center              X                  Y                   Z               Mass
    ------------   -----------------  -----------------  -----------------  -----------------
         BR          -1.522706853036     0.004467509242    -0.029272924142    78.918337600000
         F            3.084609146964    -0.738237490758    -0.248978924142    18.998403162730
         C            1.296981646964     0.688794209242    -0.208628824142    12.000000000000
         C            0.355153146964    -0.305259490758     0.445361075858    12.000000000000
         C            2.698226146964     0.526550509242     0.214268075858    12.000000000000
         H            1.144945146964     0.762862509242    -1.243073924142     1.007825032230
         H            0.943316146964     1.754952509242     0.203579075858     1.007825032230
         H            0.608070146964    -1.294056490758     0.067474075858     1.007825032230
         H            0.392148146964    -0.307761490758     1.535736075858     1.007825032230
         H            3.353836146964     1.271137509242    -0.247173924142     1.007825032230
         H            2.847505146964     0.543242509242     1.299184075858     1.007825032230

  Basis Set: AUG-CC-PVTZ
    Blend: AUG-CC-PVTZ
  Basis Set: (AUG-CC-PVTZ AUX)
    Blend: AUG-CC-PVTZ-JKFIT
	 Reference Energy          =   -2789.0691770201538020 [Eh]
	 Singles Energy            =      -0.0000000000000000 [Eh]
	 Same-Spin Energy          =      -0.2850388631790882 [Eh]
	 Opposite-Spin Energy      =      -0.8624968198625929 [Eh]
	 Correlation Energy        =      -1.1475356830416810 [Eh]
	 Total Energy              =   -2790.2167127031952987 [Eh]

	 ================> DF-SCS-MP2 Energies <==================
	-----------------------------------------------------------
	 SCS Same-Spin Scale       =       0.3333333333333333 [-]
	 SCS Opposite-Spin Scale   =       1.2000000000000000 [-]
	 SCS Same-Spin Energy      =      -0.0950129543930294 [Eh]
	 SCS Opposite-Spin Energy  =      -1.0349961838351114 [Eh]
	 SCS Correlation Energy    =      -1.1300091382281408 [Eh]
	 SCS Total Energy          =   -2790.1991861583819627 [Eh]
	-----------------------------------------------------------

  Dipole Moment: [D]
     X:     1.3211      Y:     1.4266      Z:     0.8975     Total:     2.1415

*** Psi4 exiting successfully. Buy a developer a beer!
