                               Psi4 1.4a3.dev225

  ==> Input File <==

--------------------------------------------------------------------------
#psi4
#
memory 32 gb

molecule  {
0 1
 Br       -1.6633780    -0.0273310    -0.0496210
  F        2.9439380    -0.7700360    -0.2693270
  C        1.0542590     0.8048425    -0.1169507
  C        0.2144820    -0.3370580     0.4250130
  C        2.5575550     0.4947520     0.1939200
  H        1.0042740     0.7310640    -1.2634220
  H        0.8026450     1.7231540     0.1832310
  H        0.4673990    -1.3258550     0.0471260
  H        0.2514770    -0.3395600     1.5153880
  H        3.2131650     1.2393390    -0.2675220
  H        2.7068340     0.5114440     1.2788360
units angstrom
no_reorient  #important for SAPT in psi4, default
symmetry c1  #important for SAPT in psi4, default
}

set PROPERTIES_ORIGIN ["COM"]
properties('MP2/aug-cc-pvtz', properties = ['dipole'])
--------------------------------------------------------------------------

    Molecular point group: c1
  Charge       = 0
  Multiplicity = 1
  Basis Set: AUG-CC-PVTZ
    Blend: AUG-CC-PVTZ
  Basis Set: (AUG-CC-PVTZ AUX)
    Blend: AUG-CC-PVTZ-JKFIT

    Orbital Energies [Eh]
    ---------------------

    Doubly Occupied:

       1A   -490.010892     2A    -65.150839     3A    -58.506088
       4A    -58.504773     5A    -58.504770     6A    -26.290854
       7A    -11.327137     8A    -11.299090     9A    -11.254408
      10A     -9.823587    11A     -7.434904    12A     -7.428580
      13A     -7.428542    14A     -3.178381    15A     -3.175124
      16A     -3.175100    17A     -3.166951    18A     -3.166950
      19A     -1.595270    20A     -1.108678    21A     -1.016071
      22A     -0.912055    23A     -0.838579    24A     -0.715489
      25A     -0.707106    26A     -0.671017    27A     -0.644935
      28A     -0.590016    29A     -0.555596    30A     -0.550042
      31A     -0.500953    32A     -0.468898    33A     -0.401557
      34A     -0.400354

  @DF-RHF Final Energy: -2789.06732472140675

   => Energetics <=

    Nuclear Repulsion Energy =            314.6565137575107087
    One-Electron Energy =               -4506.4405027199891265
    Two-Electron Energy =                1402.7166642410716122
    Total Energy =                      -2789.0673247214067487
  Basis Set: (AUG-CC-PVTZ AUX)
    Blend: AUG-CC-PVTZ-RI
    Molecular point group: c1

    Geometry (in Angstrom), charge = 0, multiplicity = 1:

       Center              X                  Y                   Z               Mass
    ------------   -----------------  -----------------  -----------------  -----------------
         BR          -1.513957312412    -0.008208361106    -0.038877660847    78.918337600000
         F            3.093358687588    -0.750913361106    -0.258583660847    18.998403162730
         C            1.203679687588     0.823965138894    -0.106207360847    12.000000000000
         C            0.363902687588    -0.317935361106     0.435756339153    12.000000000000
         C            2.706975687588     0.513874638894     0.204663339153    12.000000000000
         H            1.153694687588     0.750186638894    -1.252678660847     1.007825032230
         H            0.952065687588     1.742276638894     0.193974339153     1.007825032230
         H            0.616819687588    -1.306732361106     0.057869339153     1.007825032230
         H            0.400897687588    -0.320437361106     1.526131339153     1.007825032230
         H            3.362585687588     1.258461638894    -0.256778660847     1.007825032230
         H            2.856254687588     0.530566638894     1.289579339153     1.007825032230

  Basis Set: AUG-CC-PVTZ
    Blend: AUG-CC-PVTZ
  Basis Set: (AUG-CC-PVTZ AUX)
    Blend: AUG-CC-PVTZ-JKFIT
	 Reference Energy          =   -2789.0673247214067487 [Eh]
	 Singles Energy            =      -0.0000000000000000 [Eh]
	 Same-Spin Energy          =      -0.2846607719868992 [Eh]
	 Opposite-Spin Energy      =      -0.8623373679674138 [Eh]
	 Correlation Energy        =      -1.1469981399543130 [Eh]
	 Total Energy              =   -2790.2143228613608699 [Eh]

	 ================> DF-SCS-MP2 Energies <==================
	-----------------------------------------------------------
	 SCS Same-Spin Scale       =       0.3333333333333333 [-]
	 SCS Opposite-Spin Scale   =       1.2000000000000000 [-]
	 SCS Same-Spin Energy      =      -0.0948869239956331 [Eh]
	 SCS Opposite-Spin Energy  =      -1.0348048415608966 [Eh]
	 SCS Correlation Energy    =      -1.1296917655565297 [Eh]
	 SCS Total Energy          =   -2790.1970164869630935 [Eh]
	-----------------------------------------------------------

  Dipole Moment: [D]
     X:     1.3923      Y:     1.4687      Z:     0.9417     Total:     2.2321

*** Psi4 exiting successfully. Buy a developer a beer!
