                               Psi4 1.4a3.dev225

  ==> Input File <==

--------------------------------------------------------------------------
#psi4
#
memory 32 gb

molecule  {
0 1
 Br       -1.6633780    -0.0273310    -0.0496210
  F        2.8988420    -0.7763237    -0.2871912
  C        1.1074600     0.7335270    -0.1744240
  C        0.2144820    -0.3370580     0.4250130
  C        2.5575550     0.4947520     0.1939200
  H        1.0042740     0.7310640    -1.2634220
  H        0.8026450     1.7231540     0.1832310
  H        0.4673990    -1.3258550     0.0471260
  H        0.2514770    -0.3395600     1.5153880
  H        3.2131650     1.2393390    -0.2675220
  H        2.7068340     0.5114440     1.2788360
units angstrom
no_reorient  #important for SAPT in psi4, default
symmetry c1  #important for SAPT in psi4, default
}

set PROPERTIES_ORIGIN ["COM"]
properties('MP2/aug-cc-pvtz', properties = ['dipole'])
--------------------------------------------------------------------------

    Molecular point group: c1
  Charge       = 0
  Multiplicity = 1
  Basis Set: AUG-CC-PVTZ
    Blend: AUG-CC-PVTZ
  Basis Set: (AUG-CC-PVTZ AUX)
    Blend: AUG-CC-PVTZ-JKFIT

    Orbital Energies [Eh]
    ---------------------

    Doubly Occupied:

       1A   -490.011740     2A    -65.151635     3A    -58.506895
       4A    -58.505572     5A    -58.505565     6A    -26.287547
       7A    -11.325200     8A    -11.296942     9A    -11.252476
      10A     -9.824334    11A     -7.435668    12A     -7.429315
      13A     -7.429266    14A     -3.179169    15A     -3.175894
      16A     -3.175860    17A     -3.167661    18A     -3.167660
      19A     -1.594625    20A     -1.109197    21A     -1.020252
      22A     -0.913133    23A     -0.830957    24A     -0.715803
      25A     -0.708815    26A     -0.671131    27A     -0.642819
      28A     -0.580028    29A     -0.553574    30A     -0.536832
      31A     -0.513856    32A     -0.477427    33A     -0.402055
      34A     -0.401275

  @DF-RHF Final Energy: -2789.08037568824739

   => Energetics <=

    Nuclear Repulsion Energy =            315.6213050248038030
    One-Electron Energy =               -4508.4030044184337385
    Two-Electron Energy =                1403.7013237053829471
    Total Energy =                      -2789.0803756882473863
  Basis Set: (AUG-CC-PVTZ AUX)
    Blend: AUG-CC-PVTZ-RI
    Molecular point group: c1

    Geometry (in Angstrom), charge = 0, multiplicity = 1:

       Center              X                  Y                   Z               Mass
    ------------   -----------------  -----------------  -----------------  -----------------
         BR          -1.512397336481    -0.001240537859    -0.031525247755    78.918337600000
         F            3.049822663519    -0.750233237859    -0.269095447755    18.998403162730
         C            1.258440663519     0.759617462141    -0.156328247755    12.000000000000
         C            0.365462663519    -0.310967537859     0.443108752245    12.000000000000
         C            2.708535663519     0.520842462141     0.212015752245    12.000000000000
         H            1.155254663519     0.757154462141    -1.245326247755     1.007825032230
         H            0.953625663519     1.749244462141     0.201326752245     1.007825032230
         H            0.618379663519    -1.299764537859     0.065221752245     1.007825032230
         H            0.402457663519    -0.313469537859     1.533483752245     1.007825032230
         H            3.364145663519     1.265429462141    -0.249426247755     1.007825032230
         H            2.857814663519     0.537534462141     1.296931752245     1.007825032230

  Basis Set: AUG-CC-PVTZ
    Blend: AUG-CC-PVTZ
  Basis Set: (AUG-CC-PVTZ AUX)
    Blend: AUG-CC-PVTZ-JKFIT
	 Reference Energy          =   -2789.0803756882473863 [Eh]
	 Singles Energy            =      -0.0000000000000000 [Eh]
	 Same-Spin Energy          =      -0.2846613209566382 [Eh]
	 Opposite-Spin Energy      =      -0.8617944771472741 [Eh]
	 Correlation Energy        =      -1.1464557981039123 [Eh]
	 Total Energy              =   -2790.2268314863513297 [Eh]

	 ================> DF-SCS-MP2 Energies <==================
	-----------------------------------------------------------
	 SCS Same-Spin Scale       =       0.3333333333333333 [-]
	 SCS Opposite-Spin Scale   =       1.2000000000000000 [-]
	 SCS Same-Spin Energy      =      -0.0948871069855460 [Eh]
	 SCS Opposite-Spin Energy  =      -1.0341533725767289 [Eh]
	 SCS Correlation Energy    =      -1.1290404795622750 [Eh]
	 SCS Total Energy          =   -2790.2094161678096498 [Eh]
	-----------------------------------------------------------

  Dipole Moment: [D]
     X:     1.4368      Y:     1.4680      Z:     0.9393     Total:     2.2587

*** Psi4 exiting successfully. Buy a developer a beer!
