                               Psi4 1.4a3.dev225

  ==> Input File <==

--------------------------------------------------------------------------
#psi4
#
memory 32 gb

molecule  {
0 1
 Br       -1.6633780    -0.0273310    -0.0496210
  F        2.9439380    -0.7700360    -0.2693270
  C        1.1074600     0.7335270    -0.1744240
  C        0.2144820    -0.3370580     0.4250130
  C        2.4618442     0.5105119     0.1696081
  H        1.0042740     0.7310640    -1.2634220
  H        0.8026450     1.7231540     0.1832310
  H        0.4673990    -1.3258550     0.0471260
  H        0.2514770    -0.3395600     1.5153880
  H        3.2131650     1.2393390    -0.2675220
  H        2.7068340     0.5114440     1.2788360
units angstrom
no_reorient  #important for SAPT in psi4, default
symmetry c1  #important for SAPT in psi4, default
}

set PROPERTIES_ORIGIN ["COM"]
properties('MP2/aug-cc-pvtz', properties = ['dipole'])
--------------------------------------------------------------------------

    Molecular point group: c1
  Charge       = 0
  Multiplicity = 1
  Basis Set: AUG-CC-PVTZ
    Blend: AUG-CC-PVTZ
  Basis Set: (AUG-CC-PVTZ AUX)
    Blend: AUG-CC-PVTZ-JKFIT

    Orbital Energies [Eh]
    ---------------------

    Doubly Occupied:

       1A   -490.014115     2A    -65.154005     3A    -58.509269
       4A    -58.507939     5A    -58.507934     6A    -26.278706
       7A    -11.328529     8A    -11.300187     9A    -11.252584
      10A     -9.826699    11A     -7.438046    12A     -7.431670
      13A     -7.431625    14A     -3.181555    15A     -3.178265
      16A     -3.178237    17A     -3.170006    18A     -3.170005
      19A     -1.576968    20A     -1.126941    21A     -1.031230
      22A     -0.908416    23A     -0.832151    24A     -0.710539
      25A     -0.697422    26A     -0.666919    27A     -0.638093
      28A     -0.583397    29A     -0.568625    30A     -0.538947
      31A     -0.499550    32A     -0.485180    33A     -0.404710
      34A     -0.403756

  @DF-RHF Final Energy: -2789.06810076916645

   => Energetics <=

    Nuclear Repulsion Energy =            316.1576960764233490
    One-Electron Energy =               -4509.3871541367525424
    Two-Electron Energy =                1404.1613572911626306
    Total Energy =                      -2789.0681007691664490
  Basis Set: (AUG-CC-PVTZ AUX)
    Blend: AUG-CC-PVTZ-RI
    Molecular point group: c1

    Geometry (in Angstrom), charge = 0, multiplicity = 1:

       Center              X                  Y                   Z               Mass
    ------------   -----------------  -----------------  -----------------  -----------------
         BR          -1.510312670030    -0.003445217211    -0.031865682289    78.918337600000
         F            3.097003329970    -0.746150217211    -0.251571682289    18.998403162730
         C            1.260525329970     0.757412782789    -0.156668682289    12.000000000000
         C            0.367547329970    -0.313172217211     0.442768317711    12.000000000000
         C            2.614909529970     0.534397682789     0.187363417711    12.000000000000
         H            1.157339329970     0.754949782789    -1.245666682289     1.007825032230
         H            0.955710329970     1.747039782789     0.200986317711     1.007825032230
         H            0.620464329970    -1.301969217211     0.064881317711     1.007825032230
         H            0.404542329970    -0.315674217211     1.533143317711     1.007825032230
         H            3.366230329970     1.263224782789    -0.249766682289     1.007825032230
         H            2.859899329970     0.535329782789     1.296591317711     1.007825032230

  Basis Set: AUG-CC-PVTZ
    Blend: AUG-CC-PVTZ
  Basis Set: (AUG-CC-PVTZ AUX)
    Blend: AUG-CC-PVTZ-JKFIT
	 Reference Energy          =   -2789.0681007691664490 [Eh]
	 Singles Energy            =      -0.0000000000000000 [Eh]
	 Same-Spin Energy          =      -0.2858568620059062 [Eh]
	 Opposite-Spin Energy      =      -0.8637176208511924 [Eh]
	 Correlation Energy        =      -1.1495744828570986 [Eh]
	 Total Energy              =   -2790.2176752520235823 [Eh]

	 ================> DF-SCS-MP2 Energies <==================
	-----------------------------------------------------------
	 SCS Same-Spin Scale       =       0.3333333333333333 [-]
	 SCS Opposite-Spin Scale   =       1.2000000000000000 [-]
	 SCS Same-Spin Energy      =      -0.0952856206686354 [Eh]
	 SCS Opposite-Spin Energy  =      -1.0364611450214309 [Eh]
	 SCS Correlation Energy    =      -1.1317467656900664 [Eh]
	 SCS Total Energy          =   -2790.1998475348564170 [Eh]
	-----------------------------------------------------------

  Dipole Moment: [D]
     X:     1.0714      Y:     1.5846      Z:     0.8971     Total:     2.1127

*** Psi4 exiting successfully. Buy a developer a beer!
