                               Psi4 1.4a3.dev225

  ==> Input File <==

--------------------------------------------------------------------------
#psi4
#
memory 32 gb

molecule  {
0 1
 Br       -1.6633780    -0.0273310    -0.0496210
  F        2.9439380    -0.7700360    -0.2693270
  C        1.1074600     0.7335270    -0.1744240
  C        0.2144820    -0.3370580     0.4250130
  C        2.5520403     0.5128039     0.2005318
  H        1.0042740     0.7310640    -1.2634220
  H        0.8026450     1.7231540     0.1832310
  H        0.4673990    -1.3258550     0.0471260
  H        0.2514770    -0.3395600     1.5153880
  H        3.2131650     1.2393390    -0.2675220
  H        2.7068340     0.5114440     1.2788360
units angstrom
no_reorient  #important for SAPT in psi4, default
symmetry c1  #important for SAPT in psi4, default
}

set PROPERTIES_ORIGIN ["COM"]
properties('MP2/aug-cc-pvtz', properties = ['dipole'])
--------------------------------------------------------------------------

    Molecular point group: c1
  Charge       = 0
  Multiplicity = 1
  Basis Set: AUG-CC-PVTZ
    Blend: AUG-CC-PVTZ
  Basis Set: (AUG-CC-PVTZ AUX)
    Blend: AUG-CC-PVTZ-JKFIT

    Orbital Energies [Eh]
    ---------------------

    Doubly Occupied:

       1A   -490.012605     2A    -65.152496     3A    -58.507758
       4A    -58.506432     5A    -58.506425     6A    -26.282454
       7A    -11.324903     8A    -11.298036     9A    -11.254239
      10A     -9.825193    11A     -7.436533    12A     -7.430169
      13A     -7.430119    14A     -3.180038    15A     -3.176758
      16A     -3.176723    17A     -3.168508    18A     -3.168507
      19A     -1.584083    20A     -1.111132    21A     -1.021985
      22A     -0.913633    23A     -0.831825    24A     -0.710789
      25A     -0.703434    26A     -0.665261    27A     -0.641609
      28A     -0.581044    29A     -0.556173    30A     -0.538094
      31A     -0.515936    32A     -0.479554    33A     -0.402958
      34A     -0.402176

  @DF-RHF Final Energy: -2789.08015679786968

   => Energetics <=

    Nuclear Repulsion Energy =            314.7808099815667902
    One-Electron Energy =               -4506.7267747833284375
    Two-Electron Energy =                1402.8658080038924254
    Total Energy =                      -2789.0801567978696767
  Basis Set: (AUG-CC-PVTZ AUX)
    Blend: AUG-CC-PVTZ-RI
    Molecular point group: c1

    Geometry (in Angstrom), charge = 0, multiplicity = 1:

       Center              X                  Y                   Z               Mass
    ------------   -----------------  -----------------  -----------------  -----------------
         BR          -1.518045769897    -0.003641725319    -0.034516972759    78.918337600000
         F            3.089270230103    -0.746346725319    -0.254222972759    18.998403162730
         C            1.252792230103     0.757216274681    -0.159319972759    12.000000000000
         C            0.359814230103    -0.313368725319     0.440117027241    12.000000000000
         C            2.697372530103     0.536493174681     0.215635827241    12.000000000000
         H            1.149606230103     0.754753274681    -1.248317972759     1.007825032230
         H            0.947977230103     1.746843274681     0.198335027241     1.007825032230
         H            0.612731230103    -1.302165725319     0.062230027241     1.007825032230
         H            0.396809230103    -0.315870725319     1.530492027241     1.007825032230
         H            3.358497230103     1.263028274681    -0.252417972759     1.007825032230
         H            2.852166230103     0.535133274681     1.293940027241     1.007825032230

  Basis Set: AUG-CC-PVTZ
    Blend: AUG-CC-PVTZ
  Basis Set: (AUG-CC-PVTZ AUX)
    Blend: AUG-CC-PVTZ-JKFIT
	 Reference Energy          =   -2789.0801567978696767 [Eh]
	 Singles Energy            =      -0.0000000000000000 [Eh]
	 Same-Spin Energy          =      -0.2846681728367286 [Eh]
	 Opposite-Spin Energy      =      -0.8620929105193280 [Eh]
	 Correlation Energy        =      -1.1467610833560566 [Eh]
	 Total Energy              =   -2790.2269178812257451 [Eh]

	 ================> DF-SCS-MP2 Energies <==================
	-----------------------------------------------------------
	 SCS Same-Spin Scale       =       0.3333333333333333 [-]
	 SCS Opposite-Spin Scale   =       1.2000000000000000 [-]
	 SCS Same-Spin Energy      =      -0.0948893909455762 [Eh]
	 SCS Opposite-Spin Energy  =      -1.0345114926231935 [Eh]
	 SCS Correlation Energy    =      -1.1294008835687697 [Eh]
	 SCS Total Energy          =   -2790.2095576814385822 [Eh]
	-----------------------------------------------------------

  Dipole Moment: [D]
     X:     1.3107      Y:     1.5402      Z:     0.9442     Total:     2.2319

*** Psi4 exiting successfully. Buy a developer a beer!
