                               Psi4 1.4a3.dev225

  ==> Input File <==

--------------------------------------------------------------------------
#psi4
#
memory 32 gb

molecule  {
0 1
 Br       -1.6633780    -0.0273310    -0.0496210
  F        2.9439380    -0.7700360    -0.2693270
  C        1.1074600     0.7335270    -0.1744240
  C        0.0967934    -0.4781541     0.5040148
  C        2.5575550     0.4947520     0.1939200
  H        1.0042740     0.7310640    -1.2634220
  H        0.8026450     1.7231540     0.1832310
  H        0.4673990    -1.3258550     0.0471260
  H        0.2514770    -0.3395600     1.5153880
  H        3.2131650     1.2393390    -0.2675220
  H        2.7068340     0.5114440     1.2788360
units angstrom
no_reorient  #important for SAPT in psi4, default
symmetry c1  #important for SAPT in psi4, default
}

set PROPERTIES_ORIGIN ["COM"]
properties('MP2/aug-cc-pvtz', properties = ['dipole'])
--------------------------------------------------------------------------

    Molecular point group: c1
  Charge       = 0
  Multiplicity = 1
  Basis Set: AUG-CC-PVTZ
    Blend: AUG-CC-PVTZ
  Basis Set: (AUG-CC-PVTZ AUX)
    Blend: AUG-CC-PVTZ-JKFIT

    Orbital Energies [Eh]
    ---------------------

    Doubly Occupied:

       1A   -490.017883     2A    -65.157912     3A    -58.513181
       4A    -58.511838     5A    -58.511825     6A    -26.284024
       7A    -11.320971     8A    -11.292222     9A    -11.258003
      10A     -9.830929    11A     -7.442509    12A     -7.435842
      13A     -7.435800    14A     -3.186153    15A     -3.182610
      16A     -3.182590    17A     -3.174057    18A     -3.174056
      19A     -1.590609    20A     -1.094332    21A     -1.025372
      22A     -0.904393    23A     -0.837426    24A     -0.709960
      25A     -0.704380    26A     -0.662137    27A     -0.656588
      28A     -0.567026    29A     -0.549647    30A     -0.537768
      31A     -0.503917    32A     -0.488429    33A     -0.408909
      34A     -0.390333

  @DF-RHF Final Energy: -2789.05509378263878

   => Energetics <=

    Nuclear Repulsion Energy =            314.4806305597381879
    One-Electron Energy =               -4505.9841861377981331
    Two-Electron Energy =                1402.4484617954208261
    Total Energy =                      -2789.0550937826387781
  Basis Set: (AUG-CC-PVTZ AUX)
    Blend: AUG-CC-PVTZ-RI
    Molecular point group: c1

    Geometry (in Angstrom), charge = 0, multiplicity = 1:

       Center              X                  Y                   Z               Mass
    ------------   -----------------  -----------------  -----------------  -----------------
         BR          -1.508428369907     0.010003070606    -0.040723439551    78.918337600000
         F            3.098887630093    -0.732701929394    -0.260429439551    18.998403162730
         C            1.262409630093     0.770861070606    -0.165526439551    12.000000000000
         C            0.251743030093    -0.440820029394     0.512912360449    12.000000000000
         C            2.712504630093     0.532086070606     0.202817560449    12.000000000000
         H            1.159223630093     0.768398070606    -1.254524439551     1.007825032230
         H            0.957594630093     1.760488070606     0.192128560449     1.007825032230
         H            0.622348630093    -1.288520929394     0.056023560449     1.007825032230
         H            0.406426630093    -0.302225929394     1.524285560449     1.007825032230
         H            3.368114630093     1.276673070606    -0.258624439551     1.007825032230
         H            2.861783630093     0.548778070606     1.287733560449     1.007825032230

  Basis Set: AUG-CC-PVTZ
    Blend: AUG-CC-PVTZ
  Basis Set: (AUG-CC-PVTZ AUX)
    Blend: AUG-CC-PVTZ-JKFIT
	 Reference Energy          =   -2789.0550937826387781 [Eh]
	 Singles Energy            =      -0.0000000000000000 [Eh]
	 Same-Spin Energy          =      -0.2847838031410456 [Eh]
	 Opposite-Spin Energy      =      -0.8633943146132670 [Eh]
	 Correlation Energy        =      -1.1481781177543127 [Eh]
	 Total Energy              =   -2790.2032719003932471 [Eh]

	 ================> DF-SCS-MP2 Energies <==================
	-----------------------------------------------------------
	 SCS Same-Spin Scale       =       0.3333333333333333 [-]
	 SCS Opposite-Spin Scale   =       1.2000000000000000 [-]
	 SCS Same-Spin Energy      =      -0.0949279343803485 [Eh]
	 SCS Opposite-Spin Energy  =      -1.0360731775359204 [Eh]
	 SCS Correlation Energy    =      -1.1310011119162688 [Eh]
	 SCS Total Energy          =   -2790.1860948945550263 [Eh]
	-----------------------------------------------------------

  Dipole Moment: [D]
     X:     1.0728      Y:     1.4601      Z:     0.9000     Total:     2.0231

*** Psi4 exiting successfully. Buy a developer a beer!
