                               Psi4 1.4a3.dev225

  ==> Input File <==

--------------------------------------------------------------------------
#psi4
#
memory 32 gb

molecule  {
0 1
 Br       -1.6633780    -0.0273310    -0.0496210
  F        2.9439380    -0.7700360    -0.2693270
  C        1.1074600     0.7335270    -0.1744240
  C        0.2144820    -0.3370580     0.4250130
  C        2.5575550     0.4947520     0.1939200
  H        1.0042740     0.7310640    -1.2634220
  H        0.8026450     1.7231540     0.1832310
  H        0.4673990    -1.3258550     0.0471260
  H        0.2514770    -0.3395600     1.5153880
  H        3.2730846     1.3073907    -0.3096956
  H        2.7068340     0.5114440     1.2788360
units angstrom
no_reorient  #important for SAPT in psi4, default
symmetry c1  #important for SAPT in psi4, default
}

set PROPERTIES_ORIGIN ["COM"]
properties('MP2/aug-cc-pvtz', properties = ['dipole'])
--------------------------------------------------------------------------

    Molecular point group: c1
  Charge       = 0
  Multiplicity = 1
  Basis Set: AUG-CC-PVTZ
    Blend: AUG-CC-PVTZ
  Basis Set: (AUG-CC-PVTZ AUX)
    Blend: AUG-CC-PVTZ-JKFIT

    Orbital Energies [Eh]
    ---------------------

    Doubly Occupied:

       1A   -490.012874     2A    -65.152761     3A    -58.508025
       4A    -58.506696     5A    -58.506689     6A    -26.289383
       7A    -11.336425     8A    -11.298297     9A    -11.254560
      10A     -9.825455    11A     -7.436800    12A     -7.430425
      13A     -7.430377    14A     -3.180308    15A     -3.177022
      16A     -3.176988    17A     -3.168761    18A     -3.168760
      19A     -1.595537    20A     -1.109948    21A     -1.018459
      22A     -0.907804    23A     -0.831348    24A     -0.715985
      25A     -0.700655    26A     -0.670947    27A     -0.642622
      28A     -0.579997    29A     -0.552893    30A     -0.536101
      31A     -0.507503    32A     -0.477120    33A     -0.403008
      34A     -0.402271

  @DF-RHF Final Energy: -2789.07393103057666

   => Energetics <=

    Nuclear Repulsion Energy =            314.4710961150939283
    One-Electron Energy =               -4506.0644484222411847
    Two-Electron Energy =                1402.5194212765704833
    Total Energy =                      -2789.0739310305766594
  Basis Set: (AUG-CC-PVTZ AUX)
    Blend: AUG-CC-PVTZ-RI
    Molecular point group: c1

    Geometry (in Angstrom), charge = 0, multiplicity = 1:

       Center              X                  Y                   Z               Mass
    ------------   -----------------  -----------------  -----------------  -----------------
         BR          -1.518950039225    -0.002584032483    -0.033646424055    78.918337600000
         F            3.088365960775    -0.745289032483    -0.253352424055    18.998403162730
         C            1.251887960775     0.758273967517    -0.158449424055    12.000000000000
         C            0.358909960775    -0.312311032483     0.440987575945    12.000000000000
         C            2.701982960775     0.519498967517     0.209894575945    12.000000000000
         H            1.148701960775     0.755810967517    -1.247447424055     1.007825032230
         H            0.947072960775     1.747900967517     0.199205575945     1.007825032230
         H            0.611826960775    -1.301108032483     0.063100575945     1.007825032230
         H            0.395904960775    -0.314813032483     1.531362575945     1.007825032230
         H            3.417512560775     1.332137667517    -0.293721024055     1.007825032230
         H            2.851261960775     0.536190967517     1.294810575945     1.007825032230

  Basis Set: AUG-CC-PVTZ
    Blend: AUG-CC-PVTZ
  Basis Set: (AUG-CC-PVTZ AUX)
    Blend: AUG-CC-PVTZ-JKFIT
	 Reference Energy          =   -2789.0739310305766594 [Eh]
	 Singles Energy            =      -0.0000000000000000 [Eh]
	 Same-Spin Energy          =      -0.2847321963260562 [Eh]
	 Opposite-Spin Energy      =      -0.8626225927187545 [Eh]
	 Correlation Energy        =      -1.1473547890448108 [Eh]
	 Total Energy              =   -2790.2212858196212437 [Eh]

	 ================> DF-SCS-MP2 Energies <==================
	-----------------------------------------------------------
	 SCS Same-Spin Scale       =       0.3333333333333333 [-]
	 SCS Opposite-Spin Scale   =       1.2000000000000000 [-]
	 SCS Same-Spin Energy      =      -0.0949107321086854 [Eh]
	 SCS Opposite-Spin Energy  =      -1.0351471112625055 [Eh]
	 SCS Correlation Energy    =      -1.1300578433711908 [Eh]
	 SCS Total Energy          =   -2790.2039888739477647 [Eh]
	-----------------------------------------------------------

  Dipole Moment: [D]
     X:     1.2979      Y:     1.4099      Z:     0.9259     Total:     2.1283

*** Psi4 exiting successfully. Buy a developer a beer!
