                               Psi4 1.4a3.dev225

  ==> Input File <==

--------------------------------------------------------------------------
#psi4
#
memory 32 gb

molecule  {
0 1
 Br       -1.6633780    -0.0273310    -0.0496210
  F        2.9439380    -0.7700360    -0.2693270
  C        1.1074600     0.7335270    -0.1744240
  C        0.2144820    -0.3370580     0.4250130
  C        2.6054104     0.4868721     0.2060759
  H        1.0042740     0.7310640    -1.2634220
  H        0.8026450     1.7231540     0.1832310
  H        0.4673990    -1.3258550     0.0471260
  H        0.2514770    -0.3395600     1.5153880
  H        3.2131650     1.2393390    -0.2675220
  H        2.7068340     0.5114440     1.2788360
units angstrom
no_reorient  #important for SAPT in psi4, default
symmetry c1  #important for SAPT in psi4, default
}

set PROPERTIES_ORIGIN ["COM"]
properties('MP2/aug-cc-pvtz', properties = ['dipole'])
--------------------------------------------------------------------------

    Molecular point group: c1
  Charge       = 0
  Multiplicity = 1
  Basis Set: AUG-CC-PVTZ
    Blend: AUG-CC-PVTZ
  Basis Set: (AUG-CC-PVTZ AUX)
    Blend: AUG-CC-PVTZ-JKFIT

    Orbital Energies [Eh]
    ---------------------

    Doubly Occupied:

       1A   -490.011355     2A    -65.151252     3A    -58.506511
       4A    -58.505189     5A    -58.505182     6A    -26.291237
       7A    -11.323906     8A    -11.296537     9A    -11.253698
      10A     -9.823955    11A     -7.435286    12A     -7.428937
      13A     -7.428887    14A     -3.178785    15A     -3.175514
      16A     -3.175477    17A     -3.167286    18A     -3.167284
      19A     -1.601932    20A     -1.103717    21A     -1.015590
      22A     -0.915798    23A     -0.830769    24A     -0.719166
      25A     -0.712994    26A     -0.675568    27A     -0.644142
      28A     -0.579924    29A     -0.547605    30A     -0.536991
      31A     -0.518459    32A     -0.470826    33A     -0.401469
      34A     -0.400692

  @DF-RHF Final Energy: -2789.07934811575024

   => Energetics <=

    Nuclear Repulsion Energy =            314.3815152764462937
    One-Electron Energy =               -4505.9178894936740107
    Two-Electron Energy =                1402.4570261014773678
    Total Energy =                      -2789.0793481157502356
  Basis Set: (AUG-CC-PVTZ AUX)
    Blend: AUG-CC-PVTZ-RI
    Molecular point group: c1

    Geometry (in Angstrom), charge = 0, multiplicity = 1:

       Center              X                  Y                   Z               Mass
    ------------   -----------------  -----------------  -----------------  -----------------
         BR          -1.522621536624    -0.001418422990    -0.034992304608    78.918337600000
         F            3.084694463376    -0.744123422990    -0.254698304608    18.998403162730
         C            1.248216463376     0.759439577010    -0.159795304608    12.000000000000
         C            0.355238463376    -0.311145422990     0.439641695392    12.000000000000
         C            2.746166863376     0.512784677010     0.220704595392    12.000000000000
         H            1.145030463376     0.756976577010    -1.248793304608     1.007825032230
         H            0.943401463376     1.749066577010     0.197859695392     1.007825032230
         H            0.608155463376    -1.299942422990     0.061754695392     1.007825032230
         H            0.392233463376    -0.313647422990     1.530016695392     1.007825032230
         H            3.353921463376     1.265251577010    -0.252893304608     1.007825032230
         H            2.847590463376     0.537356577010     1.293464695392     1.007825032230

  Basis Set: AUG-CC-PVTZ
    Blend: AUG-CC-PVTZ
  Basis Set: (AUG-CC-PVTZ AUX)
    Blend: AUG-CC-PVTZ-JKFIT
	 Reference Energy          =   -2789.0793481157502356 [Eh]
	 Singles Energy            =      -0.0000000000000000 [Eh]
	 Same-Spin Energy          =      -0.2842860240695068 [Eh]
	 Opposite-Spin Energy      =      -0.8612756346130201 [Eh]
	 Correlation Energy        =      -1.1455616586825270 [Eh]
	 Total Energy              =   -2790.2249097744329447 [Eh]

	 ================> DF-SCS-MP2 Energies <==================
	-----------------------------------------------------------
	 SCS Same-Spin Scale       =       0.3333333333333333 [-]
	 SCS Opposite-Spin Scale   =       1.2000000000000000 [-]
	 SCS Same-Spin Energy      =      -0.0947620080231689 [Eh]
	 SCS Opposite-Spin Energy  =      -1.0335307615356242 [Eh]
	 SCS Correlation Energy    =      -1.1282927695587932 [Eh]
	 SCS Total Energy          =   -2790.2076408853090470 [Eh]
	-----------------------------------------------------------

  Dipole Moment: [D]
     X:     1.4842      Y:     1.4094      Z:     0.9242     Total:     2.2458

*** Psi4 exiting successfully. Buy a developer a beer!
