                               Psi4 1.4a3.dev225

  ==> Input File <==

--------------------------------------------------------------------------
#psi4
#
memory 32 gb

molecule  {
0 1
 Br       -1.6633780    -0.0273310    -0.0496210
  F        3.0326634    -0.7528473    -0.2319278
  C        1.1074600     0.7335270    -0.1744240
  C        0.2144820    -0.3370580     0.4250130
  C        2.5575550     0.4947520     0.1939200
  H        1.0042740     0.7310640    -1.2634220
  H        0.8026450     1.7231540     0.1832310
  H        0.4673990    -1.3258550     0.0471260
  H        0.2514770    -0.3395600     1.5153880
  H        3.2131650     1.2393390    -0.2675220
  H        2.7068340     0.5114440     1.2788360
units angstrom
no_reorient  #important for SAPT in psi4, default
symmetry c1  #important for SAPT in psi4, default
}

set PROPERTIES_ORIGIN ["COM"]
properties('MP2/aug-cc-pvtz', properties = ['dipole'])
--------------------------------------------------------------------------

    Molecular point group: c1
  Charge       = 0
  Multiplicity = 1
  Basis Set: AUG-CC-PVTZ
    Blend: AUG-CC-PVTZ
  Basis Set: (AUG-CC-PVTZ AUX)
    Blend: AUG-CC-PVTZ-JKFIT

    Orbital Energies [Eh]
    ---------------------

    Doubly Occupied:

       1A   -490.013208     2A    -65.153101     3A    -58.508363
       4A    -58.507036     5A    -58.507030     6A    -26.286568
       7A    -11.324180     8A    -11.298979     9A    -11.255945
      10A     -9.825800    11A     -7.437140    12A     -7.430773
      13A     -7.430727    14A     -3.180644    15A     -3.177363
      16A     -3.177331    17A     -3.169115    18A     -3.169114
      19A     -1.592863    20A     -1.111310    21A     -1.021136
      22A     -0.913371    23A     -0.833293    24A     -0.713568
      25A     -0.705918    26A     -0.671596    27A     -0.643965
      28A     -0.581640    29A     -0.556211    30A     -0.539538
      31A     -0.511314    32A     -0.478556    33A     -0.403405
      34A     -0.402856

  @DF-RHF Final Energy: -2789.08044797161619

   => Energetics <=

    Nuclear Repulsion Energy =            313.7104715289355568
    One-Electron Energy =               -4504.5159276596059499
    Two-Electron Energy =                1401.7250081590545960
    Total Energy =                      -2789.0804479716161950
  Basis Set: (AUG-CC-PVTZ AUX)
    Blend: AUG-CC-PVTZ-RI
    Molecular point group: c1

    Geometry (in Angstrom), charge = 0, multiplicity = 1:

       Center              X                  Y                   Z               Mass
    ------------   -----------------  -----------------  -----------------  -----------------
         BR          -1.530561996842    -0.004427179401    -0.039026595756    78.918337600000
         F            3.165479403158    -0.729943479401    -0.221333395756    18.998403162730
         C            1.240276003158     0.756430820599    -0.163829595756    12.000000000000
         C            0.347298003158    -0.314154179401     0.435607404244    12.000000000000
         C            2.690371003158     0.517655820599     0.204514404244    12.000000000000
         H            1.137090003158     0.753967820599    -1.252827595756     1.007825032230
         H            0.935461003158     1.746057820599     0.193825404244     1.007825032230
         H            0.600215003158    -1.302951179401     0.057720404244     1.007825032230
         H            0.384293003158    -0.316656179401     1.525982404244     1.007825032230
         H            3.345981003158     1.262242820599    -0.256927595756     1.007825032230
         H            2.839650003158     0.534347820599     1.289430404244     1.007825032230

  Basis Set: AUG-CC-PVTZ
    Blend: AUG-CC-PVTZ
  Basis Set: (AUG-CC-PVTZ AUX)
    Blend: AUG-CC-PVTZ-JKFIT
	 Reference Energy          =   -2789.0804479716161950 [Eh]
	 Singles Energy            =      -0.0000000000000000 [Eh]
	 Same-Spin Energy          =      -0.2845071879755067 [Eh]
	 Opposite-Spin Energy      =      -0.8616242154328840 [Eh]
	 Correlation Energy        =      -1.1461314034083907 [Eh]
	 Total Energy              =   -2790.2265793750248122 [Eh]

	 ================> DF-SCS-MP2 Energies <==================
	-----------------------------------------------------------
	 SCS Same-Spin Scale       =       0.3333333333333333 [-]
	 SCS Opposite-Spin Scale   =       1.2000000000000000 [-]
	 SCS Same-Spin Energy      =      -0.0948357293251689 [Eh]
	 SCS Opposite-Spin Energy  =      -1.0339490585194608 [Eh]
	 SCS Correlation Energy    =      -1.1287847878446298 [Eh]
	 SCS Total Energy          =   -2790.2092327594609742 [Eh]
	-----------------------------------------------------------

  Dipole Moment: [D]
     X:     1.1907      Y:     1.4535      Z:     0.8674     Total:     2.0695

*** Psi4 exiting successfully. Buy a developer a beer!
