                               Psi4 1.4a3.dev225

  ==> Input File <==

--------------------------------------------------------------------------
#psi4
#
memory 32 gb

molecule  {
0 1
 Br       -1.6633780    -0.0273310    -0.0496210
  F        2.9439380    -0.7700360    -0.2693270
  C        1.1074600     0.7335270    -0.1744240
  C        0.3462799    -0.4005747     0.4868664
  C        2.5575550     0.4947520     0.1939200
  H        1.0042740     0.7310640    -1.2634220
  H        0.8026450     1.7231540     0.1832310
  H        0.4673990    -1.3258550     0.0471260
  H        0.2514770    -0.3395600     1.5153880
  H        3.2131650     1.2393390    -0.2675220
  H        2.7068340     0.5114440     1.2788360
units angstrom
no_reorient  #important for SAPT in psi4, default
symmetry c1  #important for SAPT in psi4, default
}

set PROPERTIES_ORIGIN ["COM"]
properties('MP2/aug-cc-pvtz', properties = ['dipole'])
--------------------------------------------------------------------------

    Molecular point group: c1
  Charge       = 0
  Multiplicity = 1
  Basis Set: AUG-CC-PVTZ
    Blend: AUG-CC-PVTZ
  Basis Set: (AUG-CC-PVTZ AUX)
    Blend: AUG-CC-PVTZ-JKFIT

    Orbital Energies [Eh]
    ---------------------

    Doubly Occupied:

       1A   -489.997905     2A    -65.137592     3A    -58.492818
       4A    -58.491563     5A    -58.491556     6A    -26.292584
       7A    -11.328231     8A    -11.307248     9A    -11.260954
      10A     -9.809811    11A     -7.420678    12A     -7.414917
      13A     -7.414908    14A     -3.163902    15A     -3.161117
      16A     -3.161089    17A     -3.153576    18A     -3.153576
      19A     -1.599620    20A     -1.113194    21A     -1.005998
      22A     -0.916863    23A     -0.848275    24A     -0.724108
      25A     -0.715283    26A     -0.674296    27A     -0.669477
      28A     -0.596933    29A     -0.556776    30A     -0.546753
      31A     -0.522713    32A     -0.442298    33A     -0.395369
      34A     -0.392787

  @DF-RHF Final Energy: -2789.06712510961870

   => Energetics <=

    Nuclear Repulsion Energy =            311.9608591757593103
    One-Electron Energy =               -4501.3064298694189347
    Two-Electron Energy =                1400.2784455840405826
    Total Energy =                      -2789.0671251096187007
  Basis Set: (AUG-CC-PVTZ AUX)
    Blend: AUG-CC-PVTZ-RI
    Molecular point group: c1

    Geometry (in Angstrom), charge = 0, multiplicity = 1:

       Center              X                  Y                   Z               Mass
    ------------   -----------------  -----------------  -----------------  -----------------
         BR          -1.529818474580     0.003351682710    -0.039253195385    78.918337600000
         F            3.077497525420    -0.739353317290    -0.258959195385    18.998403162730
         C            1.241019525420     0.764209682710    -0.164056195385    12.000000000000
         C            0.479839425420    -0.369892017290     0.497234204615    12.000000000000
         C            2.691114525420     0.525434682710     0.204287804615    12.000000000000
         H            1.137833525420     0.761746682710    -1.253054195385     1.007825032230
         H            0.936204525420     1.753836682710     0.193598804615     1.007825032230
         H            0.600958525420    -1.295172317290     0.057493804615     1.007825032230
         H            0.385036525420    -0.308877317290     1.525755804615     1.007825032230
         H            3.346724525420     1.270021682710    -0.257154195385     1.007825032230
         H            2.840393525420     0.542126682710     1.289203804615     1.007825032230

  Basis Set: AUG-CC-PVTZ
    Blend: AUG-CC-PVTZ
  Basis Set: (AUG-CC-PVTZ AUX)
    Blend: AUG-CC-PVTZ-JKFIT
	 Reference Energy          =   -2789.0671251096187007 [Eh]
	 Singles Energy            =      -0.0000000000000000 [Eh]
	 Same-Spin Energy          =      -0.2836423236376830 [Eh]
	 Opposite-Spin Energy      =      -0.8605285824629161 [Eh]
	 Correlation Energy        =      -1.1441709061005991 [Eh]
	 Total Energy              =   -2790.2112960157191992 [Eh]

	 ================> DF-SCS-MP2 Energies <==================
	-----------------------------------------------------------
	 SCS Same-Spin Scale       =       0.3333333333333333 [-]
	 SCS Opposite-Spin Scale   =       1.2000000000000000 [-]
	 SCS Same-Spin Energy      =      -0.0945474412125610 [Eh]
	 SCS Opposite-Spin Energy  =      -1.0326342989554993 [Eh]
	 SCS Correlation Energy    =      -1.1271817401680604 [Eh]
	 SCS Total Energy          =   -2790.1943068497866989 [Eh]
	-----------------------------------------------------------

  Dipole Moment: [D]
     X:     1.8561      Y:     1.4627      Z:     0.9932     Total:     2.5634

*** Psi4 exiting successfully. Buy a developer a beer!
