                               Psi4 1.4a3.dev225

  ==> Input File <==

--------------------------------------------------------------------------
#psi4
#
memory 32 gb

molecule  {
0 1
 Br       -1.6633780    -0.0273310    -0.0496210
  F        2.8533302    -0.7810628    -0.3044693
  C        1.1074600     0.7335270    -0.1744240
  C        0.2144820    -0.3370580     0.4250130
  C        2.5575550     0.4947520     0.1939200
  H        1.0042740     0.7310640    -1.2634220
  H        0.8026450     1.7231540     0.1832310
  H        0.4673990    -1.3258550     0.0471260
  H        0.2514770    -0.3395600     1.5153880
  H        3.2131650     1.2393390    -0.2675220
  H        2.7068340     0.5114440     1.2788360
units angstrom
no_reorient  #important for SAPT in psi4, default
symmetry c1  #important for SAPT in psi4, default
}

set PROPERTIES_ORIGIN ["COM"]
properties('MP2/aug-cc-pvtz', properties = ['dipole'])
--------------------------------------------------------------------------

    Molecular point group: c1
  Charge       = 0
  Multiplicity = 1
  Basis Set: AUG-CC-PVTZ
    Blend: AUG-CC-PVTZ
  Basis Set: (AUG-CC-PVTZ AUX)
    Blend: AUG-CC-PVTZ-JKFIT

    Orbital Energies [Eh]
    ---------------------

    Doubly Occupied:

       1A   -490.011209     2A    -65.151104     3A    -58.506364
       4A    -58.505043     5A    -58.505035     6A    -26.287821
       7A    -11.325535     8A    -11.296203     9A    -11.251319
      10A     -9.823804    11A     -7.435135    12A     -7.428789
      13A     -7.428738    14A     -3.178635    15A     -3.175364
      16A     -3.175327    17A     -3.167136    18A     -3.167135
      19A     -1.595372    20A     -1.108437    21A     -1.019943
      22A     -0.913099    23A     -0.830169    24A     -0.717135
      25A     -0.709394    26A     -0.671153    27A     -0.642361
      28A     -0.579536    29A     -0.552416    30A     -0.535555
      31A     -0.514653    32A     -0.476893    33A     -0.401568
      34A     -0.400704

  @DF-RHF Final Energy: -2789.07929163986228

   => Energetics <=

    Nuclear Repulsion Energy =            316.3131183673442024
    One-Electron Energy =               -4509.8086541067368671
    Two-Electron Energy =                1404.4162440995310135
    Total Energy =                      -2789.0792916398618217
  Basis Set: (AUG-CC-PVTZ AUX)
    Blend: AUG-CC-PVTZ-RI
    Molecular point group: c1

    Geometry (in Angstrom), charge = 0, multiplicity = 1:

       Center              X                  Y                   Z               Mass
    ------------   -----------------  -----------------  -----------------  -----------------
         BR          -1.506219651975    -0.000597261508    -0.029179951576    78.918337600000
         F            3.010488548025    -0.754329061508    -0.284028251576    18.998403162730
         C            1.264618348025     0.760260738492    -0.153982951576    12.000000000000
         C            0.371640348025    -0.310324261508     0.445454048424    12.000000000000
         C            2.714713348025     0.521485738492     0.214361048424    12.000000000000
         H            1.161432348025     0.757797738492    -1.242980951576     1.007825032230
         H            0.959803348025     1.749887738492     0.203672048424     1.007825032230
         H            0.624557348025    -1.299121261508     0.067567048424     1.007825032230
         H            0.408635348025    -0.312826261508     1.535829048424     1.007825032230
         H            3.370323348025     1.266072738492    -0.247080951576     1.007825032230
         H            2.863992348025     0.538177738492     1.299277048424     1.007825032230

  Basis Set: AUG-CC-PVTZ
    Blend: AUG-CC-PVTZ
  Basis Set: (AUG-CC-PVTZ AUX)
    Blend: AUG-CC-PVTZ-JKFIT
	 Reference Energy          =   -2789.0792916398622765 [Eh]
	 Singles Energy            =      -0.0000000000000000 [Eh]
	 Same-Spin Energy          =      -0.2847521902355042 [Eh]
	 Opposite-Spin Energy      =      -0.8619209509259731 [Eh]
	 Correlation Energy        =      -1.1466731411614774 [Eh]
	 Total Energy              =   -2790.2259647810237766 [Eh]

	 ================> DF-SCS-MP2 Energies <==================
	-----------------------------------------------------------
	 SCS Same-Spin Scale       =       0.3333333333333333 [-]
	 SCS Opposite-Spin Scale   =       1.2000000000000000 [-]
	 SCS Same-Spin Energy      =      -0.0949173967451681 [Eh]
	 SCS Opposite-Spin Energy  =      -1.0343051411111677 [Eh]
	 SCS Correlation Energy    =      -1.1292225378563356 [Eh]
	 SCS Total Energy          =   -2790.2085141777188255 [Eh]
	-----------------------------------------------------------

  Dipole Moment: [D]
     X:     1.5226      Y:     1.4662      Z:     0.9605     Total:     2.3218

*** Psi4 exiting successfully. Buy a developer a beer!
