                               Psi4 1.4a3.dev225

  ==> Input File <==

--------------------------------------------------------------------------
#psi4
#
memory 32 gb

molecule  {
0 1
 Br       -1.6633780    -0.0273310    -0.0496210
  F        2.9439380    -0.7700360    -0.2693270
  C        1.0813876     0.7698590    -0.1460352
  C        0.2144820    -0.3370580     0.4250130
  C        2.5575550     0.4947520     0.1939200
  H        1.0042740     0.7310640    -1.2634220
  H        0.8026450     1.7231540     0.1832310
  H        0.4673990    -1.3258550     0.0471260
  H        0.2514770    -0.3395600     1.5153880
  H        3.2131650     1.2393390    -0.2675220
  H        2.7068340     0.5114440     1.2788360
units angstrom
no_reorient  #important for SAPT in psi4, default
symmetry c1  #important for SAPT in psi4, default
}

set PROPERTIES_ORIGIN ["COM"]
properties('MP2/aug-cc-pvtz', properties = ['dipole'])
--------------------------------------------------------------------------

    Molecular point group: c1
  Charge       = 0
  Multiplicity = 1
  Basis Set: AUG-CC-PVTZ
    Blend: AUG-CC-PVTZ
  Basis Set: (AUG-CC-PVTZ AUX)
    Blend: AUG-CC-PVTZ-JKFIT

    Orbital Energies [Eh]
    ---------------------

    Doubly Occupied:

       1A   -490.011542     2A    -65.151462     3A    -58.506717
       4A    -58.505398     5A    -58.505393     6A    -26.289041
       7A    -11.325868     8A    -11.298167     9A    -11.253661
      10A     -9.824186    11A     -7.435511    12A     -7.429171
      13A     -7.429130    14A     -3.179000    15A     -3.175732
      16A     -3.175707    17A     -3.167531    18A     -3.167530
      19A     -1.594541    20A     -1.109137    21A     -1.018254
      22A     -0.912505    23A     -0.834302    24A     -0.715224
      25A     -0.707426    26A     -0.670742    27A     -0.644331
      28A     -0.582155    29A     -0.553671    30A     -0.548594
      31A     -0.507200    32A     -0.473969    33A     -0.401772
      34A     -0.401387

  @DF-RHF Final Energy: -2789.07770711099920

   => Energetics <=

    Nuclear Repulsion Energy =            314.8005062616065857
    One-Electron Energy =               -4506.7445119361109391
    Two-Electron Energy =                1402.8662985635055520
    Total Energy =                      -2789.0777071109987446
  Basis Set: (AUG-CC-PVTZ AUX)
    Blend: AUG-CC-PVTZ-RI
    Molecular point group: c1

    Geometry (in Angstrom), charge = 0, multiplicity = 1:

       Center              X                  Y                   Z               Mass
    ------------   -----------------  -----------------  -----------------  -----------------
         BR          -1.516283224209    -0.005208997506    -0.036384056988    78.918337600000
         F            3.091032775791    -0.747913997506    -0.256090056988    18.998403162730
         C            1.228482375791     0.791981002494    -0.132798256988    12.000000000000
         C            0.361576775791    -0.314935997506     0.438249943012    12.000000000000
         C            2.704649775791     0.516874002494     0.207156943012    12.000000000000
         H            1.151368775791     0.753186002494    -1.250185056988     1.007825032230
         H            0.949739775791     1.745276002494     0.196467943012     1.007825032230
         H            0.614493775791    -1.303732997506     0.060362943012     1.007825032230
         H            0.398571775791    -0.317437997506     1.528624943012     1.007825032230
         H            3.360259775791     1.261461002494    -0.254285056988     1.007825032230
         H            2.853928775791     0.533566002494     1.292072943012     1.007825032230

  Basis Set: AUG-CC-PVTZ
    Blend: AUG-CC-PVTZ
  Basis Set: (AUG-CC-PVTZ AUX)
    Blend: AUG-CC-PVTZ-JKFIT
	 Reference Energy          =   -2789.0777071109991994 [Eh]
	 Singles Energy            =      -0.0000000000000000 [Eh]
	 Same-Spin Energy          =      -0.2845579861857107 [Eh]
	 Opposite-Spin Energy      =      -0.8618298663148758 [Eh]
	 Correlation Energy        =      -1.1463878525005864 [Eh]
	 Total Energy              =   -2790.2240949634997378 [Eh]

	 ================> DF-SCS-MP2 Energies <==================
	-----------------------------------------------------------
	 SCS Same-Spin Scale       =       0.3333333333333333 [-]
	 SCS Opposite-Spin Scale   =       1.2000000000000000 [-]
	 SCS Same-Spin Energy      =      -0.0948526620619036 [Eh]
	 SCS Opposite-Spin Energy  =      -1.0341958395778510 [Eh]
	 SCS Correlation Energy    =      -1.1290485016397545 [Eh]
	 SCS Total Energy          =   -2790.2067556126389718 [Eh]
	-----------------------------------------------------------

  Dipole Moment: [D]
     X:     1.3718      Y:     1.4721      Z:     0.9282     Total:     2.2160

*** Psi4 exiting successfully. Buy a developer a beer!
