                               Psi4 1.4a3.dev225

  ==> Input File <==

--------------------------------------------------------------------------
#psi4
#
memory 32 gb

molecule  {
0 1
 Br       -1.6633780    -0.0273310    -0.0496210
  F        2.9439380    -0.7700360    -0.2693270
  C        1.0945578     0.7518589    -0.1603187
  C        0.2144820    -0.3370580     0.4250130
  C        2.5575550     0.4947520     0.1939200
  H        1.0042740     0.7310640    -1.2634220
  H        0.8026450     1.7231540     0.1832310
  H        0.4673990    -1.3258550     0.0471260
  H        0.2514770    -0.3395600     1.5153880
  H        3.2131650     1.2393390    -0.2675220
  H        2.7068340     0.5114440     1.2788360
units angstrom
no_reorient  #important for SAPT in psi4, default
symmetry c1  #important for SAPT in psi4, default
}

set PROPERTIES_ORIGIN ["COM"]
properties('MP2/aug-cc-pvtz', properties = ['dipole'])
--------------------------------------------------------------------------

    Molecular point group: c1
  Charge       = 0
  Multiplicity = 1
  Basis Set: AUG-CC-PVTZ
    Blend: AUG-CC-PVTZ
  Basis Set: (AUG-CC-PVTZ AUX)
    Blend: AUG-CC-PVTZ-JKFIT

    Orbital Energies [Eh]
    ---------------------

    Doubly Occupied:

       1A   -490.011889     2A    -65.151796     3A    -58.507054
       4A    -58.505732     5A    -58.505727     6A    -26.288139
       7A    -11.325329     8A    -11.297859     9A    -11.253556
      10A     -9.824507    11A     -7.435838    12A     -7.429489
      13A     -7.429445    14A     -3.179334    15A     -3.176061
      16A     -3.176032    17A     -3.167842    18A     -3.167841
      19A     -1.594231    20A     -1.109493    21A     -1.019396
      22A     -0.912819    23A     -0.832821    24A     -0.715008
      25A     -0.707695    26A     -0.670877    27A     -0.643845
      28A     -0.580688    29A     -0.553871    30A     -0.544164
      31A     -0.510195    32A     -0.476070    33A     -0.402061
      34A     -0.401698

  @DF-RHF Final Energy: -2789.08015537898154

   => Energetics <=

    Nuclear Repulsion Energy =            314.8776096832781946
    One-Electron Energy =               -4506.8987245168191293
    Two-Electron Energy =                1402.9409594545595610
    Total Energy =                      -2789.0801553789815443
  Basis Set: (AUG-CC-PVTZ AUX)
    Blend: AUG-CC-PVTZ-RI
    Molecular point group: c1

    Geometry (in Angstrom), charge = 0, multiplicity = 1:

       Center              X                  Y                   Z               Mass
    ------------   -----------------  -----------------  -----------------  -----------------
         BR          -1.517412391345    -0.003665731545    -0.035159439383    78.918337600000
         F            3.089903608655    -0.746370731545    -0.254865439383    18.998403162730
         C            1.240523408655     0.775524168455    -0.145857139383    12.000000000000
         C            0.360447608655    -0.313392731545     0.439474560617    12.000000000000
         C            2.703520608655     0.518417268455     0.208381560617    12.000000000000
         H            1.150239608655     0.754729268455    -1.248960439383     1.007825032230
         H            0.948610608655     1.746819268455     0.197692560617     1.007825032230
         H            0.613364608655    -1.302189731545     0.061587560617     1.007825032230
         H            0.397442608655    -0.315894731545     1.529849560617     1.007825032230
         H            3.359130608655     1.263004268455    -0.253060439383     1.007825032230
         H            2.852799608655     0.535109268455     1.293297560617     1.007825032230

  Basis Set: AUG-CC-PVTZ
    Blend: AUG-CC-PVTZ
  Basis Set: (AUG-CC-PVTZ AUX)
    Blend: AUG-CC-PVTZ-JKFIT
	 Reference Energy          =   -2789.0801553789815443 [Eh]
	 Singles Energy            =      -0.0000000000000000 [Eh]
	 Same-Spin Energy          =      -0.2845578522390629 [Eh]
	 Opposite-Spin Energy      =      -0.8617209052888968 [Eh]
	 Correlation Energy        =      -1.1462787575279596 [Eh]
	 Total Energy              =   -2790.2264341365093969 [Eh]

	 ================> DF-SCS-MP2 Energies <==================
	-----------------------------------------------------------
	 SCS Same-Spin Scale       =       0.3333333333333333 [-]
	 SCS Opposite-Spin Scale   =       1.2000000000000000 [-]
	 SCS Same-Spin Energy      =      -0.0948526174130210 [Eh]
	 SCS Opposite-Spin Energy  =      -1.0340650863466760 [Eh]
	 SCS Correlation Energy    =      -1.1289177037596969 [Eh]
	 SCS Total Energy          =   -2790.2090730827412699 [Eh]
	-----------------------------------------------------------

  Dipole Moment: [D]
     X:     1.3621      Y:     1.4704      Z:     0.9222     Total:     2.2063

*** Psi4 exiting successfully. Buy a developer a beer!
