                               Psi4 1.4a3.dev225

  ==> Input File <==

--------------------------------------------------------------------------
#psi4
#
memory 32 gb

molecule  {
0 1
 Br       -1.6633780    -0.0273310    -0.0496210
  F        2.9439380    -0.7700360    -0.2693270
  C        1.1074600     0.7335270    -0.1744240
  C        0.2144820    -0.3370580     0.4250130
  C        2.5024077     0.6752713     0.2600378
  H        1.0042740     0.7310640    -1.2634220
  H        0.8026450     1.7231540     0.1832310
  H        0.4673990    -1.3258550     0.0471260
  H        0.2514770    -0.3395600     1.5153880
  H        3.2131650     1.2393390    -0.2675220
  H        2.7068340     0.5114440     1.2788360
units angstrom
no_reorient  #important for SAPT in psi4, default
symmetry c1  #important for SAPT in psi4, default
}

set PROPERTIES_ORIGIN ["COM"]
properties('MP2/aug-cc-pvtz', properties = ['dipole'])
--------------------------------------------------------------------------

    Molecular point group: c1
  Charge       = 0
  Multiplicity = 1
  Basis Set: AUG-CC-PVTZ
    Blend: AUG-CC-PVTZ
  Basis Set: (AUG-CC-PVTZ AUX)
    Blend: AUG-CC-PVTZ-JKFIT

    Orbital Energies [Eh]
    ---------------------

    Doubly Occupied:

       1A   -490.015856     2A    -65.155724     3A    -58.510997
       4A    -58.509656     5A    -58.509646     6A    -26.237660
       7A    -11.332889     8A    -11.301953     9A    -11.261411
      10A     -9.828402    11A     -7.439776    12A     -7.433358
      13A     -7.433290    14A     -3.183304    15A     -3.180000
      16A     -3.179945    17A     -3.171656    18A     -3.171655
      19A     -1.509239    20A     -1.123114    21A     -1.034345
      22A     -0.919889    23A     -0.837147    24A     -0.701812
      25A     -0.672890    26A     -0.644782    27A     -0.605690
      28A     -0.571338    29A     -0.557481    30A     -0.534950
      31A     -0.529383    32A     -0.488519    33A     -0.406929
      34A     -0.405016

  @DF-RHF Final Energy: -2789.05163168024956

   => Energetics <=

    Nuclear Repulsion Energy =            313.3075545022769006
    One-Electron Energy =               -4503.9189604839184540
    Two-Electron Energy =                1401.5597743013927357
    Total Energy =                      -2789.0516316802491019
  Basis Set: (AUG-CC-PVTZ AUX)
    Blend: AUG-CC-PVTZ-RI
    Molecular point group: c1

    Geometry (in Angstrom), charge = 0, multiplicity = 1:

       Center              X                  Y                   Z               Mass
    ------------   -----------------  -----------------  -----------------  -----------------
         BR          -1.513790443420    -0.017571115053    -0.039618810208    78.918337600000
         F            3.093525556580    -0.760276115053    -0.259324810208    18.998403162730
         C            1.257047556580     0.743286884947    -0.164421810208    12.000000000000
         C            0.364069556580    -0.327298115053     0.435015189792    12.000000000000
         C            2.651995256580     0.685031184947     0.270039989792    12.000000000000
         H            1.153861556580     0.740823884947    -1.253419810208     1.007825032230
         H            0.952232556580     1.732913884947     0.193233189792     1.007825032230
         H            0.616986556580    -1.316095115053     0.057128189792     1.007825032230
         H            0.401064556580    -0.329800115053     1.525390189792     1.007825032230
         H            3.362752556580     1.249098884947    -0.257519810208     1.007825032230
         H            2.856421556580     0.521203884947     1.288838189792     1.007825032230

  Basis Set: AUG-CC-PVTZ
    Blend: AUG-CC-PVTZ
  Basis Set: (AUG-CC-PVTZ AUX)
    Blend: AUG-CC-PVTZ-JKFIT
	 Reference Energy          =   -2789.0516316802495567 [Eh]
	 Singles Energy            =      -0.0000000000000000 [Eh]
	 Same-Spin Energy          =      -0.2858586376799050 [Eh]
	 Opposite-Spin Energy      =      -0.8660371387380073 [Eh]
	 Correlation Energy        =      -1.1518957764179123 [Eh]
	 Total Energy              =   -2790.2035274566674161 [Eh]

	 ================> DF-SCS-MP2 Energies <==================
	-----------------------------------------------------------
	 SCS Same-Spin Scale       =       0.3333333333333333 [-]
	 SCS Opposite-Spin Scale   =       1.2000000000000000 [-]
	 SCS Same-Spin Energy      =      -0.0952862125599683 [Eh]
	 SCS Opposite-Spin Energy  =      -1.0392445664856087 [Eh]
	 SCS Correlation Energy    =      -1.1345307790455770 [Eh]
	 SCS Total Energy          =   -2790.1861624592952467 [Eh]
	-----------------------------------------------------------

  Dipole Moment: [D]
     X:     0.9191      Y:     2.1631      Z:     1.1655     Total:     2.6234

*** Psi4 exiting successfully. Buy a developer a beer!
