                               Psi4 1.4a3.dev225

  ==> Input File <==

--------------------------------------------------------------------------
#psi4
#
memory 32 gb

molecule  {
0 1
 Br       -1.6633780    -0.0273310    -0.0496210
  F        2.9214454    -0.7733730    -0.2783310
  C        1.1074600     0.7335270    -0.1744240
  C        0.2144820    -0.3370580     0.4250130
  C        2.5575550     0.4947520     0.1939200
  H        1.0042740     0.7310640    -1.2634220
  H        0.8026450     1.7231540     0.1832310
  H        0.4673990    -1.3258550     0.0471260
  H        0.2514770    -0.3395600     1.5153880
  H        3.2131650     1.2393390    -0.2675220
  H        2.7068340     0.5114440     1.2788360
units angstrom
no_reorient  #important for SAPT in psi4, default
symmetry c1  #important for SAPT in psi4, default
}

set PROPERTIES_ORIGIN ["COM"]
properties('MP2/aug-cc-pvtz', properties = ['dipole'])
--------------------------------------------------------------------------

    Molecular point group: c1
  Charge       = 0
  Multiplicity = 1
  Basis Set: AUG-CC-PVTZ
    Blend: AUG-CC-PVTZ
  Basis Set: (AUG-CC-PVTZ AUX)
    Blend: AUG-CC-PVTZ-JKFIT

    Orbital Energies [Eh]
    ---------------------

    Doubly Occupied:

       1A   -490.011998     2A    -65.151892     3A    -58.507152
       4A    -58.505829     5A    -58.505822     6A    -26.287400
       7A    -11.325031     8A    -11.297300     9A    -11.253055
      10A     -9.824591    11A     -7.435926    12A     -7.429571
      13A     -7.429522    14A     -3.179428    15A     -3.176152
      16A     -3.176118    17A     -3.167916    18A     -3.167915
      19A     -1.594285    20A     -1.109566    21A     -1.020405
      22A     -0.913160    23A     -0.831351    24A     -0.715240
      25A     -0.708460    26A     -0.671160    27A     -0.643030
      28A     -0.580283    29A     -0.554104    30A     -0.537394
      31A     -0.513448    32A     -0.477664    33A     -0.402292
      34A     -0.401553

  @DF-RHF Final Energy: -2789.08071105334284

   => Energetics <=

    Nuclear Repulsion Energy =            315.2859191505194758
    One-Electron Energy =               -4507.7212340361438692
    Two-Electron Energy =                1403.3546038322813274
    Total Energy =                      -2789.0807110533432933
  Basis Set: (AUG-CC-PVTZ AUX)
    Blend: AUG-CC-PVTZ-RI
    Molecular point group: c1

    Geometry (in Angstrom), charge = 0, multiplicity = 1:

       Center              X                  Y                   Z               Mass
    ------------   -----------------  -----------------  -----------------  -----------------
         BR          -1.515465478677    -0.001641060222    -0.032727914322    78.918337600000
         F            3.069357921323    -0.747683060222    -0.261437914322    18.998403162730
         C            1.255372521323     0.759216939778    -0.157530914322    12.000000000000
         C            0.362394521323    -0.311368060222     0.441906085678    12.000000000000
         C            2.705467521323     0.520441939778     0.210813085678    12.000000000000
         H            1.152186521323     0.756753939778    -1.246528914322     1.007825032230
         H            0.950557521323     1.748843939778     0.200124085678     1.007825032230
         H            0.615311521323    -1.300165060222     0.064019085678     1.007825032230
         H            0.399389521323    -0.313870060222     1.532281085678     1.007825032230
         H            3.361077521323     1.265028939778    -0.250628914322     1.007825032230
         H            2.854746521323     0.537133939778     1.295729085678     1.007825032230

  Basis Set: AUG-CC-PVTZ
    Blend: AUG-CC-PVTZ
  Basis Set: (AUG-CC-PVTZ AUX)
    Blend: AUG-CC-PVTZ-JKFIT
	 Reference Energy          =   -2789.0807110533428386 [Eh]
	 Singles Energy            =      -0.0000000000000000 [Eh]
	 Same-Spin Energy          =      -0.2846236302975485 [Eh]
	 Opposite-Spin Energy      =      -0.8617449331239764 [Eh]
	 Correlation Energy        =      -1.1463685634215248 [Eh]
	 Total Energy              =   -2790.2270796167645130 [Eh]

	 ================> DF-SCS-MP2 Energies <==================
	-----------------------------------------------------------
	 SCS Same-Spin Scale       =       0.3333333333333333 [-]
	 SCS Opposite-Spin Scale   =       1.2000000000000000 [-]
	 SCS Same-Spin Energy      =      -0.0948745434325162 [Eh]
	 SCS Opposite-Spin Energy  =      -1.0340939197487715 [Eh]
	 SCS Correlation Energy    =      -1.1289684631812877 [Eh]
	 SCS Total Energy          =   -2790.2096795165239200 [Eh]
	-----------------------------------------------------------

  Dipole Moment: [D]
     X:     1.3946      Y:     1.4676      Z:     0.9281     Total:     2.2271

*** Psi4 exiting successfully. Buy a developer a beer!
