                               Psi4 1.4a3.dev225

  ==> Input File <==

--------------------------------------------------------------------------
#psi4
#
memory 32 gb

molecule  {
0 1
 Br       -1.6633780    -0.0273310    -0.0496210
  F        2.9439380    -0.7700360    -0.2693270
  C        1.1074600     0.7335270    -0.1744240
  C        0.2144820    -0.3370580     0.4250130
  C        2.5766972     0.4916000     0.1987824
  H        1.0042740     0.7310640    -1.2634220
  H        0.8026450     1.7231540     0.1832310
  H        0.4673990    -1.3258550     0.0471260
  H        0.2514770    -0.3395600     1.5153880
  H        3.2131650     1.2393390    -0.2675220
  H        2.7068340     0.5114440     1.2788360
units angstrom
no_reorient  #important for SAPT in psi4, default
symmetry c1  #important for SAPT in psi4, default
}

set PROPERTIES_ORIGIN ["COM"]
properties('MP2/aug-cc-pvtz', properties = ['dipole'])
--------------------------------------------------------------------------

    Molecular point group: c1
  Charge       = 0
  Multiplicity = 1
  Basis Set: AUG-CC-PVTZ
    Blend: AUG-CC-PVTZ
  Basis Set: (AUG-CC-PVTZ AUX)
    Blend: AUG-CC-PVTZ-JKFIT

    Orbital Energies [Eh]
    ---------------------

    Doubly Occupied:

       1A   -490.011890     2A    -65.151785     3A    -58.507045
       4A    -58.505722     5A    -58.505715     6A    -26.288859
       7A    -11.324397     8A    -11.297195     9A    -11.253698
      10A     -9.824486    11A     -7.435820    12A     -7.429466
      13A     -7.429417    14A     -3.179321    15A     -3.176046
      16A     -3.176011    17A     -3.167812    18A     -3.167811
      19A     -1.597196    20A     -1.107291    21A     -1.018526
      22A     -0.914234    23A     -0.831397    24A     -0.716315
      25A     -0.710137    26A     -0.672805    27A     -0.643714
      28A     -0.580229    29A     -0.551633    30A     -0.537596
      31A     -0.515425    32A     -0.475287    33A     -0.402091
      34A     -0.401399

  @DF-RHF Final Energy: -2789.08084656558549

   => Energetics <=

    Nuclear Repulsion Energy =            314.7257621548975521
    One-Electron Energy =               -4506.5976784109425353
    Two-Electron Energy =                1402.7910696904591532
    Total Energy =                      -2789.0808465655854889
  Basis Set: (AUG-CC-PVTZ AUX)
    Blend: AUG-CC-PVTZ-RI
    Molecular point group: c1

    Geometry (in Angstrom), charge = 0, multiplicity = 1:

       Center              X                  Y                   Z               Mass
    ------------   -----------------  -----------------  -----------------  -----------------
         BR          -1.520159766734    -0.001823776690    -0.034366985288    78.918337600000
         F            3.087156233266    -0.744528776690    -0.254072985288    18.998403162730
         C            1.250678233266     0.759034223310    -0.159169985288    12.000000000000
         C            0.357700233266    -0.311550776690     0.440267014712    12.000000000000
         C            2.719915433266     0.517107223310     0.214036414712    12.000000000000
         H            1.147492233266     0.756571223310    -1.248167985288     1.007825032230
         H            0.945863233266     1.748661223310     0.198485014712     1.007825032230
         H            0.610617233266    -1.300347776690     0.062380014712     1.007825032230
         H            0.394695233266    -0.314052776690     1.530642014712     1.007825032230
         H            3.356383233266     1.264846223310    -0.252267985288     1.007825032230
         H            2.850052233266     0.536951223310     1.294090014712     1.007825032230

  Basis Set: AUG-CC-PVTZ
    Blend: AUG-CC-PVTZ
  Basis Set: (AUG-CC-PVTZ AUX)
    Blend: AUG-CC-PVTZ-JKFIT
	 Reference Energy          =   -2789.0808465655854889 [Eh]
	 Singles Energy            =      -0.0000000000000000 [Eh]
	 Same-Spin Energy          =      -0.2844442114946693 [Eh]
	 Opposite-Spin Energy      =      -0.8614879816737445 [Eh]
	 Correlation Energy        =      -1.1459321931684139 [Eh]
	 Total Energy              =   -2790.2267787587538805 [Eh]

	 ================> DF-SCS-MP2 Energies <==================
	-----------------------------------------------------------
	 SCS Same-Spin Scale       =       0.3333333333333333 [-]
	 SCS Opposite-Spin Scale   =       1.2000000000000000 [-]
	 SCS Same-Spin Energy      =      -0.0948147371648898 [Eh]
	 SCS Opposite-Spin Energy  =      -1.0337855780084935 [Eh]
	 SCS Correlation Energy    =      -1.1286003151733832 [Eh]
	 SCS Total Energy          =   -2790.2094468807590602 [Eh]
	-----------------------------------------------------------

  Dipole Moment: [D]
     X:     1.4060      Y:     1.4434      Z:     0.9198     Total:     2.2151

*** Psi4 exiting successfully. Buy a developer a beer!
