                               Psi4 1.4a3.dev225

  ==> Input File <==

--------------------------------------------------------------------------
#psi4
#
memory 32 gb

molecule  {
0 1
 Br       -1.6633780    -0.0273310    -0.0496210
  F        2.9885633    -0.7622073    -0.2508984
  C        1.1074600     0.7335270    -0.1744240
  C        0.2144820    -0.3370580     0.4250130
  C        2.5575550     0.4947520     0.1939200
  H        1.0042740     0.7310640    -1.2634220
  H        0.8026450     1.7231540     0.1832310
  H        0.4673990    -1.3258550     0.0471260
  H        0.2514770    -0.3395600     1.5153880
  H        3.2131650     1.2393390    -0.2675220
  H        2.7068340     0.5114440     1.2788360
units angstrom
no_reorient  #important for SAPT in psi4, default
symmetry c1  #important for SAPT in psi4, default
}

set PROPERTIES_ORIGIN ["COM"]
properties('MP2/aug-cc-pvtz', properties = ['dipole'])
--------------------------------------------------------------------------

    Molecular point group: c1
  Charge       = 0
  Multiplicity = 1
  Basis Set: AUG-CC-PVTZ
    Blend: AUG-CC-PVTZ
  Basis Set: (AUG-CC-PVTZ AUX)
    Blend: AUG-CC-PVTZ-JKFIT

    Orbital Energies [Eh]
    ---------------------

    Doubly Occupied:

       1A   -490.012739     2A    -65.152632     3A    -58.507894
       4A    -58.506568     5A    -58.506562     6A    -26.286920
       7A    -11.324521     8A    -11.298329     9A    -11.254792
      10A     -9.825332    11A     -7.436670    12A     -7.430307
      13A     -7.430260    14A     -3.180173    15A     -3.176894
      16A     -3.176861    17A     -3.168650    18A     -3.168649
      19A     -1.593379    20A     -1.110634    21A     -1.020850
      22A     -0.913274    23A     -0.832523    24A     -0.714016
      25A     -0.707078    26A     -0.671373    27A     -0.643608
      28A     -0.581085    29A     -0.555479    30A     -0.538808
      31A     -0.512188    32A     -0.478256    33A     -0.402974
      34A     -0.402352

  @DF-RHF Final Energy: -2789.08093007339085

   => Energetics <=

    Nuclear Repulsion Energy =            314.3207157450166847
    One-Electron Energy =               -4505.7580264021198673
    Two-Electron Energy =                1402.3563805837120526
    Total Energy =                      -2789.0809300733908458
  Basis Set: (AUG-CC-PVTZ AUX)
    Blend: AUG-CC-PVTZ-RI
    Molecular point group: c1

    Geometry (in Angstrom), charge = 0, multiplicity = 1:

       Center              X                  Y                   Z               Mass
    ------------   -----------------  -----------------  -----------------  -----------------
         BR          -1.524575933788    -0.003156670940    -0.036451562870    78.918337600000
         F            3.127365366212    -0.738032970940    -0.237728962870    18.998403162730
         C            1.246262066212     0.757701329060    -0.161254562870    12.000000000000
         C            0.353284066212    -0.312883670940     0.438182437130    12.000000000000
         C            2.696357066212     0.518926329060     0.207089437130    12.000000000000
         H            1.143076066212     0.755238329060    -1.250252562870     1.007825032230
         H            0.941447066212     1.747328329060     0.196400437130     1.007825032230
         H            0.606201066212    -1.301680670940     0.060295437130     1.007825032230
         H            0.390279066212    -0.315385670940     1.528557437130     1.007825032230
         H            3.351967066212     1.263513329060    -0.254352562870     1.007825032230
         H            2.845636066212     0.535618329060     1.292005437130     1.007825032230

  Basis Set: AUG-CC-PVTZ
    Blend: AUG-CC-PVTZ
  Basis Set: (AUG-CC-PVTZ AUX)
    Blend: AUG-CC-PVTZ-JKFIT
	 Reference Energy          =   -2789.0809300733908458 [Eh]
	 Singles Energy            =      -0.0000000000000000 [Eh]
	 Same-Spin Energy          =      -0.2845398550720863 [Eh]
	 Opposite-Spin Energy      =      -0.8616479402823137 [Eh]
	 Correlation Energy        =      -1.1461877953544000 [Eh]
	 Total Energy              =   -2790.2271178687451538 [Eh]

	 ================> DF-SCS-MP2 Energies <==================
	-----------------------------------------------------------
	 SCS Same-Spin Scale       =       0.3333333333333333 [-]
	 SCS Opposite-Spin Scale   =       1.2000000000000000 [-]
	 SCS Same-Spin Energy      =      -0.0948466183573621 [Eh]
	 SCS Opposite-Spin Energy  =      -1.0339775283387764 [Eh]
	 SCS Correlation Energy    =      -1.1288241466961386 [Eh]
	 SCS Total Energy          =   -2790.2097542200867792 [Eh]
	-----------------------------------------------------------

  Dipole Moment: [D]
     X:     1.2708      Y:     1.4615      Z:     0.8926     Total:     2.1325

*** Psi4 exiting successfully. Buy a developer a beer!
