                               Psi4 1.4a3.dev225

  ==> Input File <==

--------------------------------------------------------------------------
#psi4
#
memory 32 gb

molecule  {
0 1
 Br       -1.6633780    -0.0273310    -0.0496210
  F        2.9439380    -0.7700360    -0.2693270
  C        1.1074600     0.7335270    -0.1744240
  C        0.3321706    -0.1959619     0.3460112
  C        2.5575550     0.4947520     0.1939200
  H        1.0042740     0.7310640    -1.2634220
  H        0.8026450     1.7231540     0.1832310
  H        0.4673990    -1.3258550     0.0471260
  H        0.2514770    -0.3395600     1.5153880
  H        3.2131650     1.2393390    -0.2675220
  H        2.7068340     0.5114440     1.2788360
units angstrom
no_reorient  #important for SAPT in psi4, default
symmetry c1  #important for SAPT in psi4, default
}

set PROPERTIES_ORIGIN ["COM"]
properties('MP2/aug-cc-pvtz', properties = ['dipole'])
--------------------------------------------------------------------------

    Molecular point group: c1
  Charge       = 0
  Multiplicity = 1
  Basis Set: AUG-CC-PVTZ
    Blend: AUG-CC-PVTZ
  Basis Set: (AUG-CC-PVTZ AUX)
    Blend: AUG-CC-PVTZ-JKFIT

    Orbital Energies [Eh]
    ---------------------

    Doubly Occupied:

       1A   -490.005268     2A    -65.145012     3A    -58.500265
       4A    -58.498961     5A    -58.498938     6A    -26.292406
       7A    -11.332906     8A    -11.309502     9A    -11.246435
      10A     -9.817417    11A     -7.428517    12A     -7.422469
      13A     -7.422338    14A     -3.171885    15A     -3.168898
      16A     -3.168794    17A     -3.160901    18A     -3.160899
      19A     -1.599227    20A     -1.151340    21A     -1.010292
      22A     -0.930281    23A     -0.819215    24A     -0.724198
      25A     -0.713355    26A     -0.686844    27A     -0.645759
      28A     -0.615024    29A     -0.566522    30A     -0.535351
      31A     -0.498009    32A     -0.448635    33A     -0.401357
      34A     -0.392103

  @DF-RHF Final Energy: -2789.03278211291081

   => Energetics <=

    Nuclear Repulsion Energy =            315.4828475270646777
    One-Electron Energy =               -4508.0526155519155509
    Two-Electron Energy =                1403.5369859119396097
    Total Energy =                      -2789.0327821129108088
  Basis Set: (AUG-CC-PVTZ AUX)
    Blend: AUG-CC-PVTZ-RI
    Molecular point group: c1

    Geometry (in Angstrom), charge = 0, multiplicity = 1:

       Center              X                  Y                   Z               Mass
    ------------   -----------------  -----------------  -----------------  -----------------
         BR          -1.528608792277    -0.014191107018    -0.027176760501    78.918337600000
         F            3.078707207723    -0.756896107018    -0.246882760501    18.998403162730
         C            1.242229207723     0.746666892982    -0.151979760501    12.000000000000
         C            0.466939807723    -0.182822007018     0.368455439499    12.000000000000
         C            2.692324207723     0.507891892982     0.216364239499    12.000000000000
         H            1.139043207723     0.744203892982    -1.240977760501     1.007825032230
         H            0.937414207723     1.736293892982     0.205675239499     1.007825032230
         H            0.602168207723    -1.312715107018     0.069570239499     1.007825032230
         H            0.386246207723    -0.326420107018     1.537832239499     1.007825032230
         H            3.347934207723     1.252478892982    -0.245077760501     1.007825032230
         H            2.841603207723     0.524583892982     1.301280239499     1.007825032230

  Basis Set: AUG-CC-PVTZ
    Blend: AUG-CC-PVTZ
  Basis Set: (AUG-CC-PVTZ AUX)
    Blend: AUG-CC-PVTZ-JKFIT
	 Reference Energy          =   -2789.0327821129108088 [Eh]
	 Singles Energy            =      -0.0000000000000000 [Eh]
	 Same-Spin Energy          =      -0.2874435659538216 [Eh]
	 Opposite-Spin Energy      =      -0.8652711422196167 [Eh]
	 Correlation Energy        =      -1.1527147081734381 [Eh]
	 Total Energy              =   -2790.1854968210841434 [Eh]

	 ================> DF-SCS-MP2 Energies <==================
	-----------------------------------------------------------
	 SCS Same-Spin Scale       =       0.3333333333333333 [-]
	 SCS Opposite-Spin Scale   =       1.2000000000000000 [-]
	 SCS Same-Spin Energy      =      -0.0958145219846072 [Eh]
	 SCS Opposite-Spin Energy  =      -1.0383253706635400 [Eh]
	 SCS Correlation Energy    =      -1.1341398926481472 [Eh]
	 SCS Total Energy          =   -2790.1669220055591722 [Eh]
	-----------------------------------------------------------

  Dipole Moment: [D]
     X:     1.7911      Y:     1.5587      Z:     0.8813     Total:     2.5326

*** Psi4 exiting successfully. Buy a developer a beer!
