                               Psi4 1.4a3.dev225

  ==> Input File <==

--------------------------------------------------------------------------
#psi4
#
memory 32 gb

molecule  {
0 1
 Br       -1.6633780    -0.0273310    -0.0496210
  F        2.9439380    -0.7700360    -0.2693270
  C        1.1074600     0.7335270    -0.1744240
  C        0.1850598    -0.3723320     0.4447635
  C        2.5575550     0.4947520     0.1939200
  H        1.0042740     0.7310640    -1.2634220
  H        0.8026450     1.7231540     0.1832310
  H        0.4673990    -1.3258550     0.0471260
  H        0.2514770    -0.3395600     1.5153880
  H        3.2131650     1.2393390    -0.2675220
  H        2.7068340     0.5114440     1.2788360
units angstrom
no_reorient  #important for SAPT in psi4, default
symmetry c1  #important for SAPT in psi4, default
}

set PROPERTIES_ORIGIN ["COM"]
properties('MP2/aug-cc-pvtz', properties = ['dipole'])
--------------------------------------------------------------------------

    Molecular point group: c1
  Charge       = 0
  Multiplicity = 1
  Basis Set: AUG-CC-PVTZ
    Blend: AUG-CC-PVTZ
  Basis Set: (AUG-CC-PVTZ AUX)
    Blend: AUG-CC-PVTZ-JKFIT

    Orbital Energies [Eh]
    ---------------------

    Doubly Occupied:

       1A   -490.013673     2A    -65.153607     3A    -58.508868
       4A    -58.507539     5A    -58.507536     6A    -26.286323
       7A    -11.323637     8A    -11.295505     9A    -11.255042
      10A     -9.826388    11A     -7.437782    12A     -7.431345
      13A     -7.431318    14A     -3.181316    15A     -3.177970
      16A     -3.177951    17A     -3.169670    18A     -3.169670
      19A     -1.593006    20A     -1.104122    21A     -1.022278
      22A     -0.910243    23A     -0.833784    24A     -0.713274
      25A     -0.706996    26A     -0.668424    27A     -0.645709
      28A     -0.574242    29A     -0.552692    30A     -0.540013
      31A     -0.509680    32A     -0.483788    33A     -0.404038
      34A     -0.400739

  @DF-RHF Final Energy: -2789.07936540515220

   => Energetics <=

    Nuclear Repulsion Energy =            314.8497631747990795
    One-Electron Energy =               -4506.8219226868768601
    Two-Electron Energy =                1402.8927941069262033
    Total Energy =                      -2789.0793654051522026
  Basis Set: (AUG-CC-PVTZ AUX)
    Blend: AUG-CC-PVTZ-RI
    Molecular point group: c1

    Geometry (in Angstrom), charge = 0, multiplicity = 1:

       Center              X                  Y                   Z               Mass
    ------------   -----------------  -----------------  -----------------  -----------------
         BR          -1.515996024009     0.000930251854    -0.035643439194    78.918337600000
         F            3.091319975991    -0.741774748146    -0.255349439194    18.998403162730
         C            1.254841975991     0.761788251854    -0.160446439194    12.000000000000
         C            0.332441775991    -0.344070748146     0.458741060806    12.000000000000
         C            2.704936975991     0.523013251854     0.207897560806    12.000000000000
         H            1.151655975991     0.759325251854    -1.249444439194     1.007825032230
         H            0.950026975991     1.751415251854     0.197208560806     1.007825032230
         H            0.614780975991    -1.297593748146     0.061103560806     1.007825032230
         H            0.398858975991    -0.311298748146     1.529365560806     1.007825032230
         H            3.360546975991     1.267600251854    -0.253544439194     1.007825032230
         H            2.854215975991     0.539705251854     1.292813560806     1.007825032230

  Basis Set: AUG-CC-PVTZ
    Blend: AUG-CC-PVTZ
  Basis Set: (AUG-CC-PVTZ AUX)
    Blend: AUG-CC-PVTZ-JKFIT
	 Reference Energy          =   -2789.0793654051522026 [Eh]
	 Singles Energy            =      -0.0000000000000000 [Eh]
	 Same-Spin Energy          =      -0.2843954453798466 [Eh]
	 Opposite-Spin Energy      =      -0.8616815317749503 [Eh]
	 Correlation Energy        =      -1.1460769771547969 [Eh]
	 Total Energy              =   -2790.2254423823069374 [Eh]

	 ================> DF-SCS-MP2 Energies <==================
	-----------------------------------------------------------
	 SCS Same-Spin Scale       =       0.3333333333333333 [-]
	 SCS Opposite-Spin Scale   =       1.2000000000000000 [-]
	 SCS Same-Spin Energy      =      -0.0947984817932822 [Eh]
	 SCS Opposite-Spin Energy  =      -1.0340178381299403 [Eh]
	 SCS Correlation Energy    =      -1.1288163199232224 [Eh]
	 SCS Total Energy          =   -2790.2081817250755194 [Eh]
	-----------------------------------------------------------

  Dipole Moment: [D]
     X:     1.2729      Y:     1.4586      Z:     0.9165     Total:     2.1419

*** Psi4 exiting successfully. Buy a developer a beer!
