                               Psi4 1.4a3.dev225

  ==> Input File <==

--------------------------------------------------------------------------
#psi4
#
memory 32 gb

molecule  {
0 1
 Br       -1.6633780    -0.0273310    -0.0496210
  F        2.9439380    -0.7700360    -0.2693270
  C        1.1074600     0.7335270    -0.1744240
  C        0.2027131    -0.3511676     0.4329132
  C        2.5575550     0.4947520     0.1939200
  H        1.0042740     0.7310640    -1.2634220
  H        0.8026450     1.7231540     0.1832310
  H        0.4673990    -1.3258550     0.0471260
  H        0.2514770    -0.3395600     1.5153880
  H        3.2131650     1.2393390    -0.2675220
  H        2.7068340     0.5114440     1.2788360
units angstrom
no_reorient  #important for SAPT in psi4, default
symmetry c1  #important for SAPT in psi4, default
}

set PROPERTIES_ORIGIN ["COM"]
properties('MP2/aug-cc-pvtz', properties = ['dipole'])
--------------------------------------------------------------------------

    Molecular point group: c1
  Charge       = 0
  Multiplicity = 1
  Basis Set: AUG-CC-PVTZ
    Blend: AUG-CC-PVTZ
  Basis Set: (AUG-CC-PVTZ AUX)
    Blend: AUG-CC-PVTZ-JKFIT

    Orbital Energies [Eh]
    ---------------------

    Doubly Occupied:

       1A   -490.012824     2A    -65.152735     3A    -58.507996
       4A    -58.506670     5A    -58.506665     6A    -26.286865
       7A    -11.324346     8A    -11.296737     9A    -11.254223
      10A     -9.825466    11A     -7.436826    12A     -7.430437
      13A     -7.430397    14A     -3.180341    15A     -3.177036
      16A     -3.177008    17A     -3.168774    18A     -3.168773
      19A     -1.593569    20A     -1.107423    21A     -1.021288
      22A     -0.911944    23A     -0.832616    24A     -0.714133
      25A     -0.707618    26A     -0.670049    27A     -0.644103
      28A     -0.577789    29A     -0.553785    30A     -0.538921
      31A     -0.511857    32A     -0.480334    33A     -0.402981
      34A     -0.401657

  @DF-RHF Final Energy: -2789.08079181363064

   => Energetics <=

    Nuclear Repulsion Energy =            314.9144015516212676
    One-Electron Energy =               -4506.9620167232587846
    Two-Electron Energy =                1402.9668233580066499
    Total Energy =                      -2789.0807918136306398
  Basis Set: (AUG-CC-PVTZ AUX)
    Blend: AUG-CC-PVTZ-RI
    Molecular point group: c1

    Geometry (in Angstrom), charge = 0, multiplicity = 1:

       Center              X                  Y                   Z               Mass
    ------------   -----------------  -----------------  -----------------  -----------------
         BR          -1.517509556544    -0.000884310182    -0.034627435693    78.918337600000
         F            3.089806443456    -0.743589310182    -0.254333435693    18.998403162730
         C            1.253328443456     0.759973689818    -0.159430435693    12.000000000000
         C            0.348581543456    -0.324720910182     0.447906764307    12.000000000000
         C            2.703423443456     0.521198689818     0.208913564307    12.000000000000
         H            1.150142443456     0.757510689818    -1.248428435693     1.007825032230
         H            0.948513443456     1.749600689818     0.198224564307     1.007825032230
         H            0.613267443456    -1.299408310182     0.062119564307     1.007825032230
         H            0.397345443456    -0.313113310182     1.530381564307     1.007825032230
         H            3.359033443456     1.265785689818    -0.252528435693     1.007825032230
         H            2.852702443456     0.537890689818     1.293829564307     1.007825032230

  Basis Set: AUG-CC-PVTZ
    Blend: AUG-CC-PVTZ
  Basis Set: (AUG-CC-PVTZ AUX)
    Blend: AUG-CC-PVTZ-JKFIT
	 Reference Energy          =   -2789.0807918136306398 [Eh]
	 Singles Energy            =      -0.0000000000000000 [Eh]
	 Same-Spin Energy          =      -0.2844910596138633 [Eh]
	 Opposite-Spin Energy      =      -0.8616570504703016 [Eh]
	 Correlation Energy        =      -1.1461481100841651 [Eh]
	 Total Energy              =   -2790.2269399237147809 [Eh]

	 ================> DF-SCS-MP2 Energies <==================
	-----------------------------------------------------------
	 SCS Same-Spin Scale       =       0.3333333333333333 [-]
	 SCS Opposite-Spin Scale   =       1.2000000000000000 [-]
	 SCS Same-Spin Energy      =      -0.0948303532046211 [Eh]
	 SCS Opposite-Spin Energy  =      -1.0339884605643619 [Eh]
	 SCS Correlation Energy    =      -1.1288188137689830 [Eh]
	 SCS Total Energy          =   -2790.2096106273997975 [Eh]
	-----------------------------------------------------------

  Dipole Moment: [D]
     X:     1.3199      Y:     1.4627      Z:     0.9169     Total:     2.1731

*** Psi4 exiting successfully. Buy a developer a beer!
