                               Psi4 1.4a3.dev225

  ==> Input File <==

--------------------------------------------------------------------------
#psi4
#
memory 32 gb

molecule  {
0 1
 Br       -1.6633780    -0.0273310    -0.0496210
  F        2.9439380    -0.7700360    -0.2693270
  C        1.1074600     0.7335270    -0.1744240
  C        0.2144820    -0.3370580     0.4250130
  C        2.5575550     0.4947520     0.1939200
  H        1.0042740     0.7310640    -1.2634220
  H        0.8026450     1.7231540     0.1832310
  H        0.4673990    -1.3258550     0.0471260
  H        0.2514770    -0.3395600     1.5153880
  H        3.2251489     1.2529493    -0.2759567
  H        2.7068340     0.5114440     1.2788360
units angstrom
no_reorient  #important for SAPT in psi4, default
symmetry c1  #important for SAPT in psi4, default
}

set PROPERTIES_ORIGIN ["COM"]
properties('MP2/aug-cc-pvtz', properties = ['dipole'])
--------------------------------------------------------------------------

    Molecular point group: c1
  Charge       = 0
  Multiplicity = 1
  Basis Set: AUG-CC-PVTZ
    Blend: AUG-CC-PVTZ
  Basis Set: (AUG-CC-PVTZ AUX)
    Blend: AUG-CC-PVTZ-JKFIT

    Orbital Energies [Eh]
    ---------------------

    Doubly Occupied:

       1A   -490.012362     2A    -65.152254     3A    -58.507516
       4A    -58.506191     5A    -58.506184     6A    -26.287636
       7A    -11.327231     8A    -11.297762     9A    -11.253799
      10A     -9.824953    11A     -7.436290    12A     -7.429930
      13A     -7.429881    14A     -3.179794    15A     -3.176515
      16A     -3.176482    17A     -3.168273    18A     -3.168271
      19A     -1.594245    20A     -1.109886    21A     -1.020019
      22A     -0.911934    23A     -0.831618    24A     -0.714947
      25A     -0.706388    26A     -0.671150    27A     -0.643103
      28A     -0.580395    29A     -0.554147    30A     -0.537546
      31A     -0.512092    32A     -0.477790    33A     -0.402609
      34A     -0.401905

  @DF-RHF Final Energy: -2789.08030210140441

   => Energetics <=

    Nuclear Repulsion Energy =            314.8558907941378493
    One-Electron Energy =               -4506.8501869552092103
    Two-Electron Energy =                1402.9139940596669476
    Total Energy =                      -2789.0803021014044134
  Basis Set: (AUG-CC-PVTZ AUX)
    Blend: AUG-CC-PVTZ-RI
    Molecular point group: c1

    Geometry (in Angstrom), charge = 0, multiplicity = 1:

       Center              X                  Y                   Z               Mass
    ------------   -----------------  -----------------  -----------------  -----------------
         BR          -1.518604872575    -0.002192020773    -0.033889364976    78.918337600000
         F            3.088711127425    -0.744897020773    -0.253595364976    18.998403162730
         C            1.252233127425     0.758665979227    -0.158692364976    12.000000000000
         C            0.359255127425    -0.311919020773     0.440744635024    12.000000000000
         C            2.702328127425     0.519890979227     0.209651635024    12.000000000000
         H            1.149047127425     0.756202979227    -1.247690364976     1.007825032230
         H            0.947418127425     1.748292979227     0.198962635024     1.007825032230
         H            0.612172127425    -1.300716020773     0.062857635024     1.007825032230
         H            0.396250127425    -0.314421020773     1.531119635024     1.007825032230
         H            3.369922027425     1.278088279227    -0.260225064976     1.007825032230
         H            2.851607127425     0.536582979227     1.294567635024     1.007825032230

  Basis Set: AUG-CC-PVTZ
    Blend: AUG-CC-PVTZ
  Basis Set: (AUG-CC-PVTZ AUX)
    Blend: AUG-CC-PVTZ-JKFIT
	 Reference Energy          =   -2789.0803021014044134 [Eh]
	 Singles Energy            =      -0.0000000000000000 [Eh]
	 Same-Spin Energy          =      -0.2846157489955960 [Eh]
	 Opposite-Spin Energy      =      -0.8618676865800726 [Eh]
	 Correlation Energy        =      -1.1464834355756686 [Eh]
	 Total Energy              =   -2790.2267855369800600 [Eh]

	 ================> DF-SCS-MP2 Energies <==================
	-----------------------------------------------------------
	 SCS Same-Spin Scale       =       0.3333333333333333 [-]
	 SCS Opposite-Spin Scale   =       1.2000000000000000 [-]
	 SCS Same-Spin Energy      =      -0.0948719163318653 [Eh]
	 SCS Opposite-Spin Energy  =      -1.0342412238960872 [Eh]
	 SCS Correlation Energy    =      -1.1291131402279526 [Eh]
	 SCS Total Energy          =   -2790.2094152416325414 [Eh]
	-----------------------------------------------------------

  Dipole Moment: [D]
     X:     1.3432      Y:     1.4562      Z:     0.9180     Total:     2.1835

*** Psi4 exiting successfully. Buy a developer a beer!
