                               Psi4 1.4a3.dev225

  ==> Input File <==

--------------------------------------------------------------------------
#psi4
#
memory 32 gb

molecule  {
0 1
 Br       -1.6633780    -0.0273310    -0.0496210
  F        2.9439380    -0.7700360    -0.2693270
  C        1.1074600     0.7335270    -0.1744240
  C        0.1319672    -0.2881488     0.3800839
  C        2.5575550     0.4947520     0.1939200
  H        1.0042740     0.7310640    -1.2634220
  H        0.8026450     1.7231540     0.1832310
  H        0.4673990    -1.3258550     0.0471260
  H        0.2514770    -0.3395600     1.5153880
  H        3.2131650     1.2393390    -0.2675220
  H        2.7068340     0.5114440     1.2788360
units angstrom
no_reorient  #important for SAPT in psi4, default
symmetry c1  #important for SAPT in psi4, default
}

set PROPERTIES_ORIGIN ["COM"]
properties('MP2/aug-cc-pvtz', properties = ['dipole'])
--------------------------------------------------------------------------

    Molecular point group: c1
  Charge       = 0
  Multiplicity = 1
  Basis Set: AUG-CC-PVTZ
    Blend: AUG-CC-PVTZ
  Basis Set: (AUG-CC-PVTZ AUX)
    Blend: AUG-CC-PVTZ-JKFIT

    Orbital Energies [Eh]
    ---------------------

    Doubly Occupied:

       1A   -490.019504     2A    -65.159758     3A    -58.514991
       4A    -58.513678     5A    -58.513662     6A    -26.285074
       7A    -11.324233     8A    -11.296768     9A    -11.250839
      10A     -9.833095    11A     -7.444758    12A     -7.438047
      13A     -7.437957    14A     -3.188416    15A     -3.184792
      16A     -3.184726    17A     -3.176245    18A     -3.176243
      19A     -1.591679    20A     -1.114210    21A     -1.031375
      22A     -0.910861    23A     -0.819109    24A     -0.711317
      25A     -0.705469    26A     -0.670257    27A     -0.629275
      28A     -0.572780    29A     -0.562250    30A     -0.526604
      31A     -0.508413    32A     -0.495693    33A     -0.405464
      34A     -0.400969

  @DF-RHF Final Energy: -2789.07145700312412

   => Energetics <=

    Nuclear Repulsion Energy =            317.2040540872370684
    One-Electron Energy =               -4511.3539956575314136
    Two-Electron Energy =                1405.0784845671710173
    Total Energy =                      -2789.0714570031236690
  Basis Set: (AUG-CC-PVTZ AUX)
    Blend: AUG-CC-PVTZ-RI
    Molecular point group: c1

    Geometry (in Angstrom), charge = 0, multiplicity = 1:

       Center              X                  Y                   Z               Mass
    ------------   -----------------  -----------------  -----------------  -----------------
         BR          -1.511444049167    -0.006287322884    -0.030098035277    78.918337600000
         F            3.095871950833    -0.748992322884    -0.249804035277    18.998403162730
         C            1.259393950833     0.754570677116    -0.154901035277    12.000000000000
         C            0.283901150833    -0.267105122884     0.399606864723    12.000000000000
         C            2.709488950833     0.515795677116     0.213442964723    12.000000000000
         H            1.156207950833     0.752107677116    -1.243899035277     1.007825032230
         H            0.954578950833     1.744197677116     0.202753964723     1.007825032230
         H            0.619332950833    -1.304811322884     0.066648964723     1.007825032230
         H            0.403410950833    -0.318516322884     1.534910964723     1.007825032230
         H            3.365098950833     1.260382677116    -0.247999035277     1.007825032230
         H            2.858767950833     0.532487677116     1.298358964723     1.007825032230

  Basis Set: AUG-CC-PVTZ
    Blend: AUG-CC-PVTZ
  Basis Set: (AUG-CC-PVTZ AUX)
    Blend: AUG-CC-PVTZ-JKFIT
	 Reference Energy          =   -2789.0714570031241237 [Eh]
	 Singles Energy            =      -0.0000000000000000 [Eh]
	 Same-Spin Energy          =      -0.2858102938536480 [Eh]
	 Opposite-Spin Energy      =      -0.8634700825203405 [Eh]
	 Correlation Energy        =      -1.1492803763739885 [Eh]
	 Total Energy              =   -2790.2207373794981322 [Eh]

	 ================> DF-SCS-MP2 Energies <==================
	-----------------------------------------------------------
	 SCS Same-Spin Scale       =       0.3333333333333333 [-]
	 SCS Opposite-Spin Scale   =       1.2000000000000000 [-]
	 SCS Same-Spin Energy      =      -0.0952700979512160 [Eh]
	 SCS Opposite-Spin Energy  =      -1.0361640990244085 [Eh]
	 SCS Correlation Energy    =      -1.1314341969756245 [Eh]
	 SCS Total Energy          =   -2790.2028912000996570 [Eh]
	-----------------------------------------------------------

  Dipole Moment: [D]
     X:     1.0656      Y:     1.4724      Z:     0.8628     Total:     2.0119

*** Psi4 exiting successfully. Buy a developer a beer!
