                               Psi4 1.4a3.dev225

  ==> Input File <==

--------------------------------------------------------------------------
#psi4
#
memory 32 gb

molecule  {
0 1
 Br       -1.6633780    -0.0273310    -0.0496210
  F        2.9439380    -0.7700360    -0.2693270
  C        1.0261072     0.8384347    -0.0872058
  C        0.2144820    -0.3370580     0.4250130
  C        2.5575550     0.4947520     0.1939200
  H        1.0042740     0.7310640    -1.2634220
  H        0.8026450     1.7231540     0.1832310
  H        0.4673990    -1.3258550     0.0471260
  H        0.2514770    -0.3395600     1.5153880
  H        3.2131650     1.2393390    -0.2675220
  H        2.7068340     0.5114440     1.2788360
units angstrom
no_reorient  #important for SAPT in psi4, default
symmetry c1  #important for SAPT in psi4, default
}

set PROPERTIES_ORIGIN ["COM"]
properties('MP2/aug-cc-pvtz', properties = ['dipole'])
--------------------------------------------------------------------------

    Molecular point group: c1
  Charge       = 0
  Multiplicity = 1
  Basis Set: AUG-CC-PVTZ
    Blend: AUG-CC-PVTZ
  Basis Set: (AUG-CC-PVTZ AUX)
    Blend: AUG-CC-PVTZ-JKFIT

    Orbital Energies [Eh]
    ---------------------

    Doubly Occupied:

       1A   -490.010305     2A    -65.150278     3A    -58.505521
       4A    -58.504211     5A    -58.504208     6A    -26.292651
       7A    -11.328620     8A    -11.300434     9A    -11.255867
      10A     -9.823053    11A     -7.434362    12A     -7.428053
      13A     -7.428013    14A     -3.177829    15A     -3.174585
      16A     -3.174553    17A     -3.166430    18A     -3.166430
      19A     -1.596109    20A     -1.108578    21A     -1.014117
      22A     -0.911846    23A     -0.844687    24A     -0.715466
      25A     -0.707006    26A     -0.671846    27A     -0.645174
      28A     -0.602064    29A     -0.555526    30A     -0.548752
      31A     -0.494674    32A     -0.462675    33A     -0.401391
      34A     -0.399169

  @DF-RHF Final Energy: -2789.04896724044875

   => Energetics <=

    Nuclear Repulsion Energy =            314.5292651938637505
    One-Electron Energy =               -4506.1474918552548843
    Two-Electron Energy =                1402.5692594209426716
    Total Energy =                      -2789.0489672404487465
  Basis Set: (AUG-CC-PVTZ AUX)
    Blend: AUG-CC-PVTZ-RI
    Molecular point group: c1

    Geometry (in Angstrom), charge = 0, multiplicity = 1:

       Center              X                  Y                   Z               Mass
    ------------   -----------------  -----------------  -----------------  -----------------
         BR          -1.511543675005    -0.011088439484    -0.041427885106    78.918337600000
         F            3.095772324995    -0.753793439484    -0.261133885106    18.998403162730
         C            1.177941524995     0.854677260516    -0.079012685106    12.000000000000
         C            0.366316324995    -0.320815439484     0.433206114894    12.000000000000
         C            2.709389324995     0.510994560516     0.202113114894    12.000000000000
         H            1.156108324995     0.747306560516    -1.255228885106     1.007825032230
         H            0.954479324995     1.739396560516     0.191424114894     1.007825032230
         H            0.619233324995    -1.309612439484     0.055319114894     1.007825032230
         H            0.403311324995    -0.323317439484     1.523581114894     1.007825032230
         H            3.364999324995     1.255581560516    -0.259328885106     1.007825032230
         H            2.858668324995     0.527686560516     1.287029114894     1.007825032230

  Basis Set: AUG-CC-PVTZ
    Blend: AUG-CC-PVTZ
  Basis Set: (AUG-CC-PVTZ AUX)
    Blend: AUG-CC-PVTZ-JKFIT
	 Reference Energy          =   -2789.0489672404487465 [Eh]
	 Singles Energy            =      -0.0000000000000000 [Eh]
	 Same-Spin Energy          =      -0.2849044690456899 [Eh]
	 Opposite-Spin Energy      =      -0.8632500236492040 [Eh]
	 Correlation Energy        =      -1.1481544926948939 [Eh]
	 Total Energy              =   -2790.1971217331438311 [Eh]

	 ================> DF-SCS-MP2 Energies <==================
	-----------------------------------------------------------
	 SCS Same-Spin Scale       =       0.3333333333333333 [-]
	 SCS Opposite-Spin Scale   =       1.2000000000000000 [-]
	 SCS Same-Spin Energy      =      -0.0949681563485633 [Eh]
	 SCS Opposite-Spin Energy  =      -1.0359000283790447 [Eh]
	 SCS Correlation Energy    =      -1.1308681847276081 [Eh]
	 SCS Total Energy          =   -2790.1798354251764067 [Eh]
	-----------------------------------------------------------

  Dipole Moment: [D]
     X:     1.4137      Y:     1.4565      Z:     0.9575     Total:     2.2443

*** Psi4 exiting successfully. Buy a developer a beer!
