                               Psi4 1.4a3.dev225

  ==> Input File <==

--------------------------------------------------------------------------
#psi4
#
memory 32 gb

molecule  {
0 1
 Br       -1.6633780    -0.0273310    -0.0496210
  F        2.9439380    -0.7700360    -0.2693270
  C        1.1074600     0.7335270    -0.1744240
  C        0.2144820    -0.3370580     0.4250130
  C        2.5575550     0.4947520     0.1939200
  H        1.0042740     0.7310640    -1.2634220
  H        0.8026450     1.7231540     0.1832310
  H        0.4673990    -1.3258550     0.0471260
  H        0.2514770    -0.3395600     1.5153880
  H        3.2011811     1.2257287    -0.2590873
  H        2.7068340     0.5114440     1.2788360
units angstrom
no_reorient  #important for SAPT in psi4, default
symmetry c1  #important for SAPT in psi4, default
}

set PROPERTIES_ORIGIN ["COM"]
properties('MP2/aug-cc-pvtz', properties = ['dipole'])
--------------------------------------------------------------------------

    Molecular point group: c1
  Charge       = 0
  Multiplicity = 1
  Basis Set: AUG-CC-PVTZ
    Blend: AUG-CC-PVTZ
  Basis Set: (AUG-CC-PVTZ AUX)
    Blend: AUG-CC-PVTZ-JKFIT

    Orbital Energies [Eh]
    ---------------------

    Doubly Occupied:

       1A   -490.012144     2A    -65.152040     3A    -58.507300
       4A    -58.505976     5A    -58.505970     6A    -26.286877
       7A    -11.322468     8A    -11.297547     9A    -11.253481
      10A     -9.824740    11A     -7.436075    12A     -7.429720
      13A     -7.429672    14A     -3.179576    15A     -3.176300
      16A     -3.176267    17A     -3.168066    18A     -3.168065
      19A     -1.593700    20A     -1.109998    21A     -1.021160
      22A     -0.914549    23A     -0.831892    24A     -0.714613
      25A     -0.709773    26A     -0.671278    27A     -0.643358
      28A     -0.580715    29A     -0.555101    30A     -0.538263
      31A     -0.513895    32A     -0.477953    33A     -0.402445
      34A     -0.401749

  @DF-RHF Final Energy: -2789.08103344851497

   => Energetics <=

    Nuclear Repulsion Energy =            315.0612754003000759
    One-Electron Energy =               -4507.2591693716467489
    Two-Electron Energy =                1403.1168605228313027
    Total Energy =                      -2789.0810334485149724
  Basis Set: (AUG-CC-PVTZ AUX)
    Blend: AUG-CC-PVTZ-RI
    Molecular point group: c1

    Geometry (in Angstrom), charge = 0, multiplicity = 1:

       Center              X                  Y                   Z               Mass
    ------------   -----------------  -----------------  -----------------  -----------------
         BR          -1.518432289610    -0.001996015639    -0.034010835076    78.918337600000
         F            3.088883710390    -0.744701015639    -0.253716835076    18.998403162730
         C            1.252405710390     0.758861984361    -0.158813835076    12.000000000000
         C            0.359427710390    -0.311723015639     0.440623164924    12.000000000000
         C            2.702500710390     0.520086984361     0.209530164924    12.000000000000
         H            1.149219710390     0.756398984361    -1.247811835076     1.007825032230
         H            0.947590710390     1.748488984361     0.198841164924     1.007825032230
         H            0.612344710390    -1.300520015639     0.062736164924     1.007825032230
         H            0.396422710390    -0.314225015639     1.530998164924     1.007825032230
         H            3.346126810390     1.251063684361    -0.243477135076     1.007825032230
         H            2.851779710390     0.536778984361     1.294446164924     1.007825032230

  Basis Set: AUG-CC-PVTZ
    Blend: AUG-CC-PVTZ
  Basis Set: (AUG-CC-PVTZ AUX)
    Blend: AUG-CC-PVTZ-JKFIT
	 Reference Energy          =   -2789.0810334485149724 [Eh]
	 Singles Energy            =      -0.0000000000000000 [Eh]
	 Same-Spin Energy          =      -0.2845683262063005 [Eh]
	 Opposite-Spin Energy      =      -0.8615523332152584 [Eh]
	 Correlation Energy        =      -1.1461206594215589 [Eh]
	 Total Energy              =   -2790.2271541079367125 [Eh]

	 ================> DF-SCS-MP2 Energies <==================
	-----------------------------------------------------------
	 SCS Same-Spin Scale       =       0.3333333333333333 [-]
	 SCS Opposite-Spin Scale   =       1.2000000000000000 [-]
	 SCS Same-Spin Energy      =      -0.0948561087354335 [Eh]
	 SCS Opposite-Spin Energy  =      -1.0338627998583101 [Eh]
	 SCS Correlation Energy    =      -1.1287189085937437 [Eh]
	 SCS Total Energy          =   -2790.2097523571087549 [Eh]
	-----------------------------------------------------------

  Dipole Moment: [D]
     X:     1.3618      Y:     1.4759      Z:     0.9155     Total:     2.2070

*** Psi4 exiting successfully. Buy a developer a beer!
