                               Psi4 1.4a3.dev225

  ==> Input File <==

--------------------------------------------------------------------------
#psi4
#
memory 32 gb

molecule  {
0 1
 Br       -1.6633780    -0.0273310    -0.0496210
  F        2.9439380    -0.7700360    -0.2693270
  C        1.1074600     0.7335270    -0.1744240
  C        0.2144820    -0.3370580     0.4250130
  C        2.5713418     0.4496222     0.1773905
  H        1.0042740     0.7310640    -1.2634220
  H        0.8026450     1.7231540     0.1832310
  H        0.4673990    -1.3258550     0.0471260
  H        0.2514770    -0.3395600     1.5153880
  H        3.2131650     1.2393390    -0.2675220
  H        2.7068340     0.5114440     1.2788360
units angstrom
no_reorient  #important for SAPT in psi4, default
symmetry c1  #important for SAPT in psi4, default
}

set PROPERTIES_ORIGIN ["COM"]
properties('MP2/aug-cc-pvtz', properties = ['dipole'])
--------------------------------------------------------------------------

    Molecular point group: c1
  Charge       = 0
  Multiplicity = 1
  Basis Set: AUG-CC-PVTZ
    Blend: AUG-CC-PVTZ
  Basis Set: (AUG-CC-PVTZ AUX)
    Blend: AUG-CC-PVTZ-JKFIT

    Orbital Energies [Eh]
    ---------------------

    Doubly Occupied:

       1A   -490.011364     2A    -65.151265     3A    -58.506523
       4A    -58.505203     5A    -58.505197     6A    -26.299235
       7A    -11.325602     8A    -11.296728     9A    -11.252243
      10A     -9.823971    11A     -7.435297    12A     -7.428956
      13A     -7.428913    14A     -3.178792    15A     -3.175523
      16A     -3.175493    17A     -3.167313    18A     -3.167312
      19A     -1.620577    20A     -1.107045    21A     -1.017000
      22A     -0.912639    23A     -0.832278    24A     -0.727598
      25A     -0.720562    26A     -0.687078    27A     -0.645929
      28A     -0.578574    29A     -0.550271    30A     -0.536880
      31A     -0.504731    32A     -0.472945    33A     -0.401558
      34A     -0.400765

  @DF-RHF Final Energy: -2789.07972042958681

   => Energetics <=

    Nuclear Repulsion Energy =            315.4187677009176127
    One-Electron Energy =               -4507.8942541230735515
    Two-Electron Energy =                1403.3957659925690677
    Total Energy =                      -2789.0797204295868141
  Basis Set: (AUG-CC-PVTZ AUX)
    Blend: AUG-CC-PVTZ-RI
    Molecular point group: c1

    Geometry (in Angstrom), charge = 0, multiplicity = 1:

       Center              X                  Y                   Z               Mass
    ------------   -----------------  -----------------  -----------------  -----------------
         BR          -1.519700613367     0.001775253862    -0.032532918194    78.918337600000
         F            3.087615386633    -0.740929746138    -0.252238918194    18.998403162730
         C            1.251137386633     0.762633253862    -0.157335918194    12.000000000000
         C            0.358159386633    -0.307951746138     0.442101081806    12.000000000000
         C            2.715019186633     0.478728453862     0.194478581806    12.000000000000
         H            1.147951386633     0.760170253862    -1.246333918194     1.007825032230
         H            0.946322386633     1.752260253862     0.200319081806     1.007825032230
         H            0.611076386633    -1.296748746138     0.064214081806     1.007825032230
         H            0.395154386633    -0.310453746138     1.532476081806     1.007825032230
         H            3.356842386633     1.268445253862    -0.250433918194     1.007825032230
         H            2.850511386633     0.540550253862     1.295924081806     1.007825032230

  Basis Set: AUG-CC-PVTZ
    Blend: AUG-CC-PVTZ
  Basis Set: (AUG-CC-PVTZ AUX)
    Blend: AUG-CC-PVTZ-JKFIT
	 Reference Energy          =   -2789.0797204295868141 [Eh]
	 Singles Energy            =      -0.0000000000000000 [Eh]
	 Same-Spin Energy          =      -0.2844641632879384 [Eh]
	 Opposite-Spin Energy      =      -0.8608318099584092 [Eh]
	 Correlation Energy        =      -1.1452959732463477 [Eh]
	 Total Energy              =   -2790.2250164028332620 [Eh]

	 ================> DF-SCS-MP2 Energies <==================
	-----------------------------------------------------------
	 SCS Same-Spin Scale       =       0.3333333333333333 [-]
	 SCS Opposite-Spin Scale   =       1.2000000000000000 [-]
	 SCS Same-Spin Energy      =      -0.0948213877626461 [Eh]
	 SCS Opposite-Spin Energy  =      -1.0329981719500911 [Eh]
	 SCS Correlation Energy    =      -1.1278195597127372 [Eh]
	 SCS Total Energy          =   -2790.2075399892996757 [Eh]
	-----------------------------------------------------------

  Dipole Moment: [D]
     X:     1.4577      Y:     1.2753      Z:     0.8441     Total:     2.1128

*** Psi4 exiting successfully. Buy a developer a beer!
