                               Psi4 1.4a3.dev225

  ==> Input File <==

--------------------------------------------------------------------------
#psi4
#
memory 32 gb

molecule  {
0 1
 Br       -1.6633780    -0.0273310    -0.0496210
  F        2.9439380    -0.7700360    -0.2693270
  C        1.1074600     0.7335270    -0.1744240
  C        0.2144820    -0.3370580     0.4250130
  C        2.5575550     0.4947520     0.1939200
  H        1.0042740     0.7310640    -1.2634220
  H        0.8026450     1.7231540     0.1832310
  H        0.4673990    -1.3258550     0.0471260
  H        0.2514770    -0.3395600     1.5153880
  H        3.0933258     1.1032357    -0.1831748
  H        2.7068340     0.5114440     1.2788360
units angstrom
no_reorient  #important for SAPT in psi4, default
symmetry c1  #important for SAPT in psi4, default
}

set PROPERTIES_ORIGIN ["COM"]
properties('MP2/aug-cc-pvtz', properties = ['dipole'])
--------------------------------------------------------------------------

    Molecular point group: c1
  Charge       = 0
  Multiplicity = 1
  Basis Set: AUG-CC-PVTZ
    Blend: AUG-CC-PVTZ
  Basis Set: (AUG-CC-PVTZ AUX)
    Blend: AUG-CC-PVTZ-JKFIT

    Orbital Energies [Eh]
    ---------------------

    Doubly Occupied:

       1A   -490.011487     2A    -65.151392     3A    -58.506649
       4A    -58.505330     5A    -58.505324     6A    -26.284436
       7A    -11.300672     8A    -11.296989     9A    -11.252589
      10A     -9.824099    11A     -7.435424    12A     -7.429089
      13A     -7.429041    14A     -3.178918    15A     -3.175652
      16A     -3.175619    17A     -3.167445    18A     -3.167443
      19A     -1.592100    20A     -1.112211    21A     -1.030757
      22A     -0.931068    23A     -0.834180    24A     -0.729225
      25A     -0.712932    26A     -0.672030    27A     -0.644488
      28A     -0.583133    29A     -0.560797    30A     -0.540539
      31A     -0.518867    32A     -0.478299    33A     -0.401996
      34A     -0.401290

  @DF-RHF Final Energy: -2789.04777873521289

   => Energetics <=

    Nuclear Repulsion Energy =            316.1219008418255498
    One-Electron Energy =               -4509.2563402564674107
    Two-Electron Energy =                1404.0866606794290874
    Total Energy =                      -2789.0477787352128871
  Basis Set: (AUG-CC-PVTZ AUX)
    Blend: AUG-CC-PVTZ-RI
    Molecular point group: c1

    Geometry (in Angstrom), charge = 0, multiplicity = 1:

       Center              X                  Y                   Z               Mass
    ------------   -----------------  -----------------  -----------------  -----------------
         BR          -1.517655664826    -0.001113990373    -0.034557451968    78.918337600000
         F            3.089660335174    -0.743818990373    -0.254263451968    18.998403162730
         C            1.253182335174     0.759744009627    -0.159360451968    12.000000000000
         C            0.360204335174    -0.310840990373     0.440076548032    12.000000000000
         C            2.703277335174     0.520969009627     0.208983548032    12.000000000000
         H            1.149996335174     0.757281009627    -1.248358451968     1.007825032230
         H            0.948367335174     1.749371009627     0.198294548032     1.007825032230
         H            0.613121335174    -1.299637990373     0.062189548032     1.007825032230
         H            0.397199335174    -0.313342990373     1.530451548032     1.007825032230
         H            3.239048135174     1.129452709627    -0.168111251968     1.007825032230
         H            2.852556335174     0.537661009627     1.293899548032     1.007825032230

  Basis Set: AUG-CC-PVTZ
    Blend: AUG-CC-PVTZ
  Basis Set: (AUG-CC-PVTZ AUX)
    Blend: AUG-CC-PVTZ-JKFIT
	 Reference Energy          =   -2789.0477787352128871 [Eh]
	 Singles Energy            =      -0.0000000000000000 [Eh]
	 Same-Spin Energy          =      -0.2845115196759754 [Eh]
	 Opposite-Spin Energy      =      -0.8608611662651229 [Eh]
	 Correlation Energy        =      -1.1453726859410982 [Eh]
	 Total Energy              =   -2790.1931514211541980 [Eh]

	 ================> DF-SCS-MP2 Energies <==================
	-----------------------------------------------------------
	 SCS Same-Spin Scale       =       0.3333333333333333 [-]
	 SCS Opposite-Spin Scale   =       1.2000000000000000 [-]
	 SCS Same-Spin Energy      =      -0.0948371732253251 [Eh]
	 SCS Opposite-Spin Energy  =      -1.0330333995181473 [Eh]
	 SCS Correlation Energy    =      -1.1278705727434724 [Eh]
	 SCS Total Energy          =   -2790.1756493079565189 [Eh]
	-----------------------------------------------------------

  Dipole Moment: [D]
     X:     1.4116      Y:     1.5346      Z:     0.9160     Total:     2.2774

*** Psi4 exiting successfully. Buy a developer a beer!
