                               Psi4 1.4a3.dev225

  ==> Input File <==

--------------------------------------------------------------------------
#psi4
#
memory 32 gb

molecule  {
0 1
 Br       -1.6633780    -0.0273310    -0.0496210
  F        2.9439380    -0.7700360    -0.2693270
  C        1.1074600     0.7335270    -0.1744240
  C        0.2144820    -0.3370580     0.4250130
  C        2.5096996     0.5026319     0.1817641
  H        1.0042740     0.7310640    -1.2634220
  H        0.8026450     1.7231540     0.1832310
  H        0.4673990    -1.3258550     0.0471260
  H        0.2514770    -0.3395600     1.5153880
  H        3.2131650     1.2393390    -0.2675220
  H        2.7068340     0.5114440     1.2788360
units angstrom
no_reorient  #important for SAPT in psi4, default
symmetry c1  #important for SAPT in psi4, default
}

set PROPERTIES_ORIGIN ["COM"]
properties('MP2/aug-cc-pvtz', properties = ['dipole'])
--------------------------------------------------------------------------

    Molecular point group: c1
  Charge       = 0
  Multiplicity = 1
  Basis Set: AUG-CC-PVTZ
    Blend: AUG-CC-PVTZ
  Basis Set: (AUG-CC-PVTZ AUX)
    Blend: AUG-CC-PVTZ-JKFIT

    Orbital Energies [Eh]
    ---------------------

    Doubly Occupied:

       1A   -490.013165     2A    -65.153057     3A    -58.508320
       4A    -58.506992     5A    -58.506987     6A    -26.283092
       7A    -11.326447     8A    -11.298858     9A    -11.253259
      10A     -9.825753    11A     -7.437095    12A     -7.430728
      13A     -7.430682    14A     -3.180600    15A     -3.177317
      16A     -3.177287    17A     -3.169068    18A     -3.169067
      19A     -1.585637    20A     -1.117563    21A     -1.025821
      22A     -0.910671    23A     -0.832272    24A     -0.711963
      25A     -0.702550    26A     -0.668302    27A     -0.641209
      28A     -0.581698    29A     -0.562107    30A     -0.538579
      31A     -0.506194    32A     -0.482954    33A     -0.403625
      34A     -0.402807

  @DF-RHF Final Energy: -2789.07744362792437

   => Energetics <=

    Nuclear Repulsion Energy =            315.5472072143472246
    One-Electron Energy =               -4508.2058520109703750
    Two-Electron Energy =                1403.5812011686982714
    Total Energy =                      -2789.0774436279243673
  Basis Set: (AUG-CC-PVTZ AUX)
    Blend: AUG-CC-PVTZ-RI
    Molecular point group: c1

    Geometry (in Angstrom), charge = 0, multiplicity = 1:

       Center              X                  Y                   Z               Mass
    ------------   -----------------  -----------------  -----------------  -----------------
         BR          -1.514415625561    -0.002769613422    -0.032907895444    78.918337600000
         F            3.092900374439    -0.745474613422    -0.252613895444    18.998403162730
         C            1.256422374439     0.758088386578    -0.157710895444    12.000000000000
         C            0.363444374439    -0.312496613422     0.441726104556    12.000000000000
         C            2.658661974439     0.527193286578     0.198477204556    12.000000000000
         H            1.153236374439     0.755625386578    -1.246708895444     1.007825032230
         H            0.951607374439     1.747715386578     0.199944104556     1.007825032230
         H            0.616361374439    -1.301293613422     0.063839104556     1.007825032230
         H            0.400439374439    -0.314998613422     1.532101104556     1.007825032230
         H            3.362127374439     1.263900386578    -0.250808895444     1.007825032230
         H            2.855796374439     0.536005386578     1.295549104556     1.007825032230

  Basis Set: AUG-CC-PVTZ
    Blend: AUG-CC-PVTZ
  Basis Set: (AUG-CC-PVTZ AUX)
    Blend: AUG-CC-PVTZ-JKFIT
	 Reference Energy          =   -2789.0774436279243673 [Eh]
	 Singles Energy            =      -0.0000000000000000 [Eh]
	 Same-Spin Energy          =      -0.2851091465261947 [Eh]
	 Opposite-Spin Energy      =      -0.8625127565656194 [Eh]
	 Correlation Energy        =      -1.1476219030918142 [Eh]
	 Total Energy              =   -2790.2250655310162983 [Eh]

	 ================> DF-SCS-MP2 Energies <==================
	-----------------------------------------------------------
	 SCS Same-Spin Scale       =       0.3333333333333333 [-]
	 SCS Opposite-Spin Scale   =       1.2000000000000000 [-]
	 SCS Same-Spin Energy      =      -0.0950363821753982 [Eh]
	 SCS Opposite-Spin Energy  =      -1.0350153078787432 [Eh]
	 SCS Correlation Energy    =      -1.1300516900541415 [Eh]
	 SCS Total Energy          =   -2790.2074953179785552 [Eh]
	-----------------------------------------------------------

  Dipole Moment: [D]
     X:     1.2157      Y:     1.5246      Z:     0.9076     Total:     2.1508

*** Psi4 exiting successfully. Buy a developer a beer!
