                               Psi4 1.4a3.dev225

  ==> Input File <==

--------------------------------------------------------------------------
#psi4
#
memory 32 gb

molecule  {
0 1
 Br       -1.6633780    -0.0273310    -0.0496210
  F        2.9439380    -0.7700360    -0.2693270
  C        1.1200902     0.7148690    -0.1883467
  C        0.2144820    -0.3370580     0.4250130
  C        2.5575550     0.4947520     0.1939200
  H        1.0042740     0.7310640    -1.2634220
  H        0.8026450     1.7231540     0.1832310
  H        0.4673990    -1.3258550     0.0471260
  H        0.2514770    -0.3395600     1.5153880
  H        3.2131650     1.2393390    -0.2675220
  H        2.7068340     0.5114440     1.2788360
units angstrom
no_reorient  #important for SAPT in psi4, default
symmetry c1  #important for SAPT in psi4, default
}

set PROPERTIES_ORIGIN ["COM"]
properties('MP2/aug-cc-pvtz', properties = ['dipole'])
--------------------------------------------------------------------------

    Molecular point group: c1
  Charge       = 0
  Multiplicity = 1
  Basis Set: AUG-CC-PVTZ
    Blend: AUG-CC-PVTZ
  Basis Set: (AUG-CC-PVTZ AUX)
    Blend: AUG-CC-PVTZ-JKFIT

    Orbital Energies [Eh]
    ---------------------

    Doubly Occupied:

       1A   -490.012624     2A    -65.152505     3A    -58.507769
       4A    -58.506442     5A    -58.506434     6A    -26.286368
       7A    -11.324470     8A    -11.297539     9A    -11.253900
      10A     -9.825193    11A     -7.436535    12A     -7.430167
      13A     -7.430115    14A     -3.180044    15A     -3.176762
      16A     -3.176724    17A     -3.168503    18A     -3.168502
      19A     -1.593747    20A     -1.110440    21A     -1.021722
      22A     -0.913626    23A     -0.831036    24A     -0.714473
      25A     -0.708511    26A     -0.671742    27A     -0.642495
      28A     -0.581268    29A     -0.555542    30A     -0.530683
      31A     -0.515669    32A     -0.479380    33A     -0.403014
      34A     -0.401917

  @DF-RHF Final Energy: -2789.08008657611208

   => Energetics <=

    Nuclear Repulsion Energy =            315.0393746608082211
    One-Electron Energy =               -4507.2071990742861090
    Two-Electron Energy =                1403.0877378373661486
    Total Energy =                      -2789.0800865761120804
  Basis Set: (AUG-CC-PVTZ AUX)
    Blend: AUG-CC-PVTZ-RI
    Molecular point group: c1

    Geometry (in Angstrom), charge = 0, multiplicity = 1:

       Center              X                  Y                   Z               Mass
    ------------   -----------------  -----------------  -----------------  -----------------
         BR          -1.519601450506    -0.000494346188    -0.032756416158    78.918337600000
         F            3.087714549494    -0.743199346188    -0.252462416158    18.998403162730
         C            1.263866749494     0.741705653812    -0.171482116158    12.000000000000
         C            0.358258549494    -0.310221346188     0.441877583842    12.000000000000
         C            2.701331549494     0.521588653812     0.210784583842    12.000000000000
         H            1.148050549494     0.757900653812    -1.246557416158     1.007825032230
         H            0.946421549494     1.749990653812     0.200095583842     1.007825032230
         H            0.611175549494    -1.299018346188     0.063990583842     1.007825032230
         H            0.395253549494    -0.312723346188     1.532252583842     1.007825032230
         H            3.356941549494     1.266175653812    -0.250657416158     1.007825032230
         H            2.850610549494     0.538280653812     1.295700583842     1.007825032230

  Basis Set: AUG-CC-PVTZ
    Blend: AUG-CC-PVTZ
  Basis Set: (AUG-CC-PVTZ AUX)
    Blend: AUG-CC-PVTZ-JKFIT
	 Reference Energy          =   -2789.0800865761120804 [Eh]
	 Singles Energy            =      -0.0000000000000000 [Eh]
	 Same-Spin Energy          =      -0.2846563562709598 [Eh]
	 Opposite-Spin Energy      =      -0.8617763761011671 [Eh]
	 Correlation Energy        =      -1.1464327323721268 [Eh]
	 Total Energy              =   -2790.2265193084840575 [Eh]

	 ================> DF-SCS-MP2 Energies <==================
	-----------------------------------------------------------
	 SCS Same-Spin Scale       =       0.3333333333333333 [-]
	 SCS Opposite-Spin Scale   =       1.2000000000000000 [-]
	 SCS Same-Spin Energy      =      -0.0948854520903199 [Eh]
	 SCS Opposite-Spin Energy  =      -1.0341316513214005 [Eh]
	 SCS Correlation Energy    =      -1.1290171034117205 [Eh]
	 SCS Total Energy          =   -2790.2091036795236505 [Eh]
	-----------------------------------------------------------

  Dipole Moment: [D]
     X:     1.3440      Y:     1.4600      Z:     0.9114     Total:     2.1837

*** Psi4 exiting successfully. Buy a developer a beer!
