                               Psi4 1.4a3.dev225

  ==> Input File <==

--------------------------------------------------------------------------
#psi4
#
memory 32 gb

molecule  {
0 1
 Br       -1.6633780    -0.0273310    -0.0496210
  F        2.9439380    -0.7700360    -0.2693270
  C        1.1074600     0.7335270    -0.1744240
  C        0.2144820    -0.3370580     0.4250130
  C        2.5575550     0.4947520     0.1939200
  H        1.0042740     0.7310640    -1.2634220
  H        0.8026450     1.7231540     0.1832310
  H        0.4673990    -1.3258550     0.0471260
  H        0.2514770    -0.3395600     1.5153880
  H        3.2131650     1.2393390    -0.2675220
  H        2.7068340     0.5114440     1.2788360
units angstrom
no_reorient  #important for SAPT in psi4, default
symmetry c1  #important for SAPT in psi4, default
}

set PROPERTIES_ORIGIN ["COM"]
properties('MP2/aug-cc-pvtz', properties = ['dipole'])
--------------------------------------------------------------------------

    Molecular point group: c1
  Charge       = 0
  Multiplicity = 1
  Basis Set: AUG-CC-PVTZ
    Blend: AUG-CC-PVTZ
  Basis Set: (AUG-CC-PVTZ AUX)
    Blend: AUG-CC-PVTZ-JKFIT

    Orbital Energies [Eh]
    ---------------------

    Doubly Occupied:

       1A   -490.012250     2A    -65.152144     3A    -58.507405
       4A    -58.506080     5A    -58.506074     6A    -26.287247
       7A    -11.324862     8A    -11.297650     9A    -11.253635
      10A     -9.824843    11A     -7.436179    12A     -7.429821
      13A     -7.429773    14A     -3.179682    15A     -3.176404
      16A     -3.176371    17A     -3.168166    18A     -3.168165
      19A     -1.593964    20A     -1.109929    21A     -1.020556
      22A     -0.913193    23A     -0.831743    24A     -0.714753
      25A     -0.708053    26A     -0.671212    27A     -0.643230
      28A     -0.580545    29A     -0.554599    30A     -0.537910
      31A     -0.513035    32A     -0.477880    33A     -0.402524
      34A     -0.401824

  @DF-RHF Final Energy: -2789.08091322361724

   => Energetics <=

    Nuclear Repulsion Energy =            314.9574198198036470
    One-Electron Energy =               -4507.0532621917336655
    Two-Electron Energy =                1403.0149291483130582
    Total Energy =                      -2789.0809132236172445
  Basis Set: (AUG-CC-PVTZ AUX)
    Blend: AUG-CC-PVTZ-RI
    Molecular point group: c1

    Geometry (in Angstrom), charge = 0, multiplicity = 1:

       Center              X                  Y                   Z               Mass
    ------------   -----------------  -----------------  -----------------  -----------------
         BR          -1.518518581092    -0.002094018206    -0.033950100026    78.918337600000
         F            3.088797418908    -0.744799018206    -0.253656100026    18.998403162730
         C            1.252319418908     0.758763981794    -0.158753100026    12.000000000000
         C            0.359341418908    -0.311821018206     0.440683899974    12.000000000000
         C            2.702414418908     0.519988981794     0.209590899974    12.000000000000
         H            1.149133418908     0.756300981794    -1.247751100026     1.007825032230
         H            0.947504418908     1.748390981794     0.198901899974     1.007825032230
         H            0.612258418908    -1.300618018206     0.062796899974     1.007825032230
         H            0.396336418908    -0.314323018206     1.531058899974     1.007825032230
         H            3.358024418908     1.264575981794    -0.251851100026     1.007825032230
         H            2.851693418908     0.536680981794     1.294506899974     1.007825032230

  Basis Set: AUG-CC-PVTZ
    Blend: AUG-CC-PVTZ
  Basis Set: (AUG-CC-PVTZ AUX)
    Blend: AUG-CC-PVTZ-JKFIT
	 Reference Energy          =   -2789.0809132236172445 [Eh]
	 Singles Energy            =      -0.0000000000000000 [Eh]
	 Same-Spin Energy          =      -0.2845909100369110 [Eh]
	 Opposite-Spin Energy      =      -0.8617041535629543 [Eh]
	 Correlation Energy        =      -1.1462950635998652 [Eh]
	 Total Energy              =   -2790.2272082872173087 [Eh]

	 ================> DF-SCS-MP2 Energies <==================
	-----------------------------------------------------------
	 SCS Same-Spin Scale       =       0.3333333333333333 [-]
	 SCS Opposite-Spin Scale   =       1.2000000000000000 [-]
	 SCS Same-Spin Energy      =      -0.0948636366789703 [Eh]
	 SCS Opposite-Spin Energy  =      -1.0340449842755450 [Eh]
	 SCS Correlation Energy    =      -1.1289086209545154 [Eh]
	 SCS Total Energy          =   -2790.2098218445717066 [Eh]
	-----------------------------------------------------------

  Dipole Moment: [D]
     X:     1.3528      Y:     1.4664      Z:     0.9166     Total:     2.1956

*** Psi4 exiting successfully. Buy a developer a beer!
