                               Psi4 1.4a3.dev225

  ==> Input File <==

--------------------------------------------------------------------------
#psi4
#
memory 32 gb

molecule  {
0 1
 Br       -1.6633780    -0.0273310    -0.0496210
  F        2.9439380    -0.7700360    -0.2693270
  C        1.1790291     0.6168898    -0.2550746
  C        0.2144820    -0.3370580     0.4250130
  C        2.5575550     0.4947520     0.1939200
  H        1.0042740     0.7310640    -1.2634220
  H        0.8026450     1.7231540     0.1832310
  H        0.4673990    -1.3258550     0.0471260
  H        0.2514770    -0.3395600     1.5153880
  H        3.2131650     1.2393390    -0.2675220
  H        2.7068340     0.5114440     1.2788360
units angstrom
no_reorient  #important for SAPT in psi4, default
symmetry c1  #important for SAPT in psi4, default
}

set PROPERTIES_ORIGIN ["COM"]
properties('MP2/aug-cc-pvtz', properties = ['dipole'])
--------------------------------------------------------------------------

    Molecular point group: c1
  Charge       = 0
  Multiplicity = 1
  Basis Set: AUG-CC-PVTZ
    Blend: AUG-CC-PVTZ
  Basis Set: (AUG-CC-PVTZ AUX)
    Blend: AUG-CC-PVTZ-JKFIT

    Orbital Energies [Eh]
    ---------------------

    Doubly Occupied:

       1A   -490.014683     2A    -65.154499     3A    -58.509780
       4A    -58.508434     5A    -58.508421     6A    -26.282396
       7A    -11.323775     8A    -11.298358     9A    -11.258209
      10A     -9.827128    11A     -7.438508    12A     -7.432075
      13A     -7.431998    14A     -3.182055    15A     -3.178744
      16A     -3.178677    17A     -3.170360    18A     -3.170358
      19A     -1.593638    20A     -1.113929    21A     -1.027383
      22A     -0.916649    23A     -0.831726    24A     -0.713286
      25A     -0.712753    26A     -0.676391    27A     -0.637763
      28A     -0.589756    29A     -0.561474    30A     -0.525163
      31A     -0.498550    32A     -0.474919    33A     -0.405471
      34A     -0.402267

  @DF-RHF Final Energy: -2789.05596872794467

   => Energetics <=

    Nuclear Repulsion Energy =            315.4603477680450965
    One-Electron Energy =               -4507.9334825953283143
    Two-Electron Energy =                1403.4171660993390560
    Total Energy =                      -2789.0559687279446734
  Basis Set: (AUG-CC-PVTZ AUX)
    Blend: AUG-CC-PVTZ-RI
    Molecular point group: c1

    Geometry (in Angstrom), charge = 0, multiplicity = 1:

       Center              X                  Y                   Z               Mass
    ------------   -----------------  -----------------  -----------------  -----------------
         BR          -1.524654666774     0.007906049600    -0.027035398124    78.918337600000
         F            3.082661333226    -0.734798950400    -0.246741398124    18.998403162730
         C            1.317752433226     0.652126849600    -0.232488998124    12.000000000000
         C            0.353205333226    -0.301820950400     0.447598601876    12.000000000000
         C            2.696278333226     0.529989049600     0.216505601876    12.000000000000
         H            1.142997333226     0.766301049600    -1.240836398124     1.007825032230
         H            0.941368333226     1.758391049600     0.205816601876     1.007825032230
         H            0.606122333226    -1.290617950400     0.069711601876     1.007825032230
         H            0.390200333226    -0.304322950400     1.537973601876     1.007825032230
         H            3.351888333226     1.274576049600    -0.244936398124     1.007825032230
         H            2.845557333226     0.546681049600     1.301421601876     1.007825032230

  Basis Set: AUG-CC-PVTZ
    Blend: AUG-CC-PVTZ
  Basis Set: (AUG-CC-PVTZ AUX)
    Blend: AUG-CC-PVTZ-JKFIT
	 Reference Energy          =   -2789.0559687279446734 [Eh]
	 Singles Energy            =      -0.0000000000000000 [Eh]
	 Same-Spin Energy          =      -0.2854415525294951 [Eh]
	 Opposite-Spin Energy      =      -0.8633709814044319 [Eh]
	 Correlation Energy        =      -1.1488125339339270 [Eh]
	 Total Energy              =   -2790.2047812618784519 [Eh]

	 ================> DF-SCS-MP2 Energies <==================
	-----------------------------------------------------------
	 SCS Same-Spin Scale       =       0.3333333333333333 [-]
	 SCS Opposite-Spin Scale   =       1.2000000000000000 [-]
	 SCS Same-Spin Energy      =      -0.0951471841764984 [Eh]
	 SCS Opposite-Spin Energy  =      -1.0360451776853183 [Eh]
	 SCS Correlation Energy    =      -1.1311923618618167 [Eh]
	 SCS Total Energy          =   -2790.1871610898065228 [Eh]
	-----------------------------------------------------------

  Dipole Moment: [D]
     X:     1.3093      Y:     1.3923      Z:     0.8889     Total:     2.1079

*** Psi4 exiting successfully. Buy a developer a beer!
