                               Psi4 1.4a3.dev225

  ==> Input File <==

--------------------------------------------------------------------------
#psi4
#
memory 32 gb

molecule  {
0 1
 Br       -1.6633780    -0.0273310    -0.0496210
  F        2.9439380    -0.7700360    -0.2693270
  C        1.1074600     0.7335270    -0.1744240
  C        0.1556377    -0.4076060     0.4645139
  C        2.5575550     0.4947520     0.1939200
  H        1.0042740     0.7310640    -1.2634220
  H        0.8026450     1.7231540     0.1832310
  H        0.4673990    -1.3258550     0.0471260
  H        0.2514770    -0.3395600     1.5153880
  H        3.2131650     1.2393390    -0.2675220
  H        2.7068340     0.5114440     1.2788360
units angstrom
no_reorient  #important for SAPT in psi4, default
symmetry c1  #important for SAPT in psi4, default
}

set PROPERTIES_ORIGIN ["COM"]
properties('MP2/aug-cc-pvtz', properties = ['dipole'])
--------------------------------------------------------------------------

    Molecular point group: c1
  Charge       = 0
  Multiplicity = 1
  Basis Set: AUG-CC-PVTZ
    Blend: AUG-CC-PVTZ
  Basis Set: (AUG-CC-PVTZ AUX)
    Blend: AUG-CC-PVTZ-JKFIT

    Orbital Energies [Eh]
    ---------------------

    Doubly Occupied:

       1A   -490.015070     2A    -65.155041     3A    -58.510304
       4A    -58.508971     5A    -58.508967     6A    -26.285485
       7A    -11.322602     8A    -11.293854     9A    -11.256229
      10A     -9.827903    11A     -7.439357    12A     -7.432839
      13A     -7.432829    14A     -3.182926    15A     -3.179510
      16A     -3.179501    17A     -3.171141    18A     -3.171140
      19A     -1.592134    20A     -1.099727    21A     -1.023638
      22A     -0.907841    23A     -0.835376    24A     -0.712008
      25A     -0.706033    26A     -0.666011    27A     -0.649009
      28A     -0.570091    29A     -0.551244    30A     -0.540451
      31A     -0.505563    32A     -0.488643    33A     -0.405768
      34A     -0.398388

  @DF-RHF Final Energy: -2789.07407261837170

   => Energetics <=

    Nuclear Repulsion Energy =            314.7383948052085998
    One-Electron Energy =               -4506.5737491862500974
    Two-Electron Energy =                1402.7612817626700235
    Total Energy =                      -2789.0740726183717015
  Basis Set: (AUG-CC-PVTZ AUX)
    Blend: AUG-CC-PVTZ-RI
    Molecular point group: c1

    Geometry (in Angstrom), charge = 0, multiplicity = 1:

       Center              X                  Y                   Z               Mass
    ------------   -----------------  -----------------  -----------------  -----------------
         BR          -1.513473475500     0.003954521913    -0.037336769788    78.918337600000
         F            3.093842524500    -0.738750478087    -0.257042769788    18.998403162730
         C            1.257364524500     0.764812521913    -0.162139769788    12.000000000000
         C            0.305542224500    -0.376320478087     0.476798130212    12.000000000000
         C            2.707459524500     0.526037521913     0.206204230212    12.000000000000
         H            1.154178524500     0.762349521913    -1.251137769788     1.007825032230
         H            0.952549524500     1.754439521913     0.195515230212     1.007825032230
         H            0.617303524500    -1.294569478087     0.059410230212     1.007825032230
         H            0.401381524500    -0.308274478087     1.527672230212     1.007825032230
         H            3.363069524500     1.270624521913    -0.255237769788     1.007825032230
         H            2.856738524500     0.542729521913     1.291120230212     1.007825032230

  Basis Set: AUG-CC-PVTZ
    Blend: AUG-CC-PVTZ
  Basis Set: (AUG-CC-PVTZ AUX)
    Blend: AUG-CC-PVTZ-JKFIT
	 Reference Energy          =   -2789.0740726183717015 [Eh]
	 Singles Energy            =      -0.0000000000000000 [Eh]
	 Same-Spin Energy          =      -0.2843720923189555 [Eh]
	 Opposite-Spin Energy      =      -0.8619662142424802 [Eh]
	 Correlation Energy        =      -1.1463383065614359 [Eh]
	 Total Energy              =   -2790.2204109249332760 [Eh]

	 ================> DF-SCS-MP2 Energies <==================
	-----------------------------------------------------------
	 SCS Same-Spin Scale       =       0.3333333333333333 [-]
	 SCS Opposite-Spin Scale   =       1.2000000000000000 [-]
	 SCS Same-Spin Energy      =      -0.0947906974396518 [Eh]
	 SCS Opposite-Spin Energy  =      -1.0343594570909762 [Eh]
	 SCS Correlation Energy    =      -1.1291501545306279 [Eh]
	 SCS Total Energy          =   -2790.2032227729023361 [Eh]
	-----------------------------------------------------------

  Dipole Moment: [D]
     X:     1.2000      Y:     1.4551      Z:     0.9136     Total:     2.0957

*** Psi4 exiting successfully. Buy a developer a beer!
