                               Psi4 1.4a3.dev225

  ==> Input File <==

--------------------------------------------------------------------------
#psi4
#
memory 32 gb

molecule  {
0 1
 Br       -1.6633780    -0.0273310    -0.0496210
  F        2.9439380    -0.7700360    -0.2693270
  C        1.1074600     0.7335270    -0.1744240
  C        0.2439042    -0.3017840     0.4052625
  C        2.5575550     0.4947520     0.1939200
  H        1.0042740     0.7310640    -1.2634220
  H        0.8026450     1.7231540     0.1832310
  H        0.4673990    -1.3258550     0.0471260
  H        0.2514770    -0.3395600     1.5153880
  H        3.2131650     1.2393390    -0.2675220
  H        2.7068340     0.5114440     1.2788360
units angstrom
no_reorient  #important for SAPT in psi4, default
symmetry c1  #important for SAPT in psi4, default
}

set PROPERTIES_ORIGIN ["COM"]
properties('MP2/aug-cc-pvtz', properties = ['dipole'])
--------------------------------------------------------------------------

    Molecular point group: c1
  Charge       = 0
  Multiplicity = 1
  Basis Set: AUG-CC-PVTZ
    Blend: AUG-CC-PVTZ
  Basis Set: (AUG-CC-PVTZ AUX)
    Blend: AUG-CC-PVTZ-JKFIT

    Orbital Energies [Eh]
    ---------------------

    Doubly Occupied:

       1A   -490.010760     2A    -65.150612     3A    -58.505873
       4A    -58.504553     5A    -58.504542     6A    -26.288280
       7A    -11.326326     8A    -11.300215     9A    -11.252023
      10A     -9.823231    11A     -7.434511    12A     -7.428228
      13A     -7.428159    14A     -3.177982    15A     -3.174774
      16A     -3.174724    17A     -3.166591    18A     -3.166590
      19A     -1.595031    20A     -1.117365    21A     -1.018470
      22A     -0.916719    23A     -0.829233    24A     -0.716501
      25A     -0.709209    26A     -0.674423    27A     -0.641860
      28A     -0.588471    29A     -0.556916    30A     -0.535019
      31A     -0.514483    32A     -0.471315    33A     -0.402982
      34A     -0.399996

  @DF-RHF Final Energy: -2789.07793911559384

   => Energetics <=

    Nuclear Repulsion Energy =            315.0677390127242461
    One-Electron Energy =               -4507.2794223214068552
    Two-Electron Energy =                1403.1337441930891146
    Total Energy =                      -2789.0779391155938356
  Basis Set: (AUG-CC-PVTZ AUX)
    Blend: AUG-CC-PVTZ-RI
    Molecular point group: c1

    Geometry (in Angstrom), charge = 0, multiplicity = 1:

       Center              X                  Y                   Z               Mass
    ------------   -----------------  -----------------  -----------------  -----------------
         BR          -1.521041138175    -0.005118288266    -0.032256760858    78.918337600000
         F            3.086274861825    -0.747823288266    -0.251962760858    18.998403162730
         C            1.249796861825     0.755739711734    -0.157059760858    12.000000000000
         C            0.386241061825    -0.279571288266     0.422626739142    12.000000000000
         C            2.699891861825     0.516964711734     0.211284239142    12.000000000000
         H            1.146610861825     0.753276711734    -1.246057760858     1.007825032230
         H            0.944981861825     1.745366711734     0.200595239142     1.007825032230
         H            0.609735861825    -1.303642288266     0.064490239142     1.007825032230
         H            0.393813861825    -0.317347288266     1.532752239142     1.007825032230
         H            3.355501861825     1.261551711734    -0.250157760858     1.007825032230
         H            2.849170861825     0.533656711734     1.296200239142     1.007825032230

  Basis Set: AUG-CC-PVTZ
    Blend: AUG-CC-PVTZ
  Basis Set: (AUG-CC-PVTZ AUX)
    Blend: AUG-CC-PVTZ-JKFIT
	 Reference Energy          =   -2789.0779391155938356 [Eh]
	 Singles Energy            =      -0.0000000000000000 [Eh]
	 Same-Spin Energy          =      -0.2849749054996634 [Eh]
	 Opposite-Spin Energy      =      -0.8620534917443317 [Eh]
	 Correlation Energy        =      -1.1470283972439952 [Eh]
	 Total Energy              =   -2790.2249675128377930 [Eh]

	 ================> DF-SCS-MP2 Energies <==================
	-----------------------------------------------------------
	 SCS Same-Spin Scale       =       0.3333333333333333 [-]
	 SCS Opposite-Spin Scale   =       1.2000000000000000 [-]
	 SCS Same-Spin Energy      =      -0.0949916351665545 [Eh]
	 SCS Opposite-Spin Energy  =      -1.0344641900931979 [Eh]
	 SCS Correlation Energy    =      -1.1294558252597524 [Eh]
	 SCS Total Energy          =   -2790.2073949408536464 [Eh]
	-----------------------------------------------------------

  Dipole Moment: [D]
     X:     1.4417      Y:     1.4790      Z:     0.9138     Total:     2.2585

*** Psi4 exiting successfully. Buy a developer a beer!
