                               Psi4 1.4a3.dev225

  ==> Input File <==

--------------------------------------------------------------------------
#psi4
#
memory 32 gb

molecule  {
0 1
 Br       -1.6633780    -0.0273310    -0.0496210
  F        2.9439380    -0.7700360    -0.2693270
  C        1.1074600     0.7335270    -0.1744240
  C        0.2144820    -0.3370580     0.4250130
  C        2.5630697     0.4767001     0.1873082
  H        1.0042740     0.7310640    -1.2634220
  H        0.8026450     1.7231540     0.1832310
  H        0.4673990    -1.3258550     0.0471260
  H        0.2514770    -0.3395600     1.5153880
  H        3.2131650     1.2393390    -0.2675220
  H        2.7068340     0.5114440     1.2788360
units angstrom
no_reorient  #important for SAPT in psi4, default
symmetry c1  #important for SAPT in psi4, default
}

set PROPERTIES_ORIGIN ["COM"]
properties('MP2/aug-cc-pvtz', properties = ['dipole'])
--------------------------------------------------------------------------

    Molecular point group: c1
  Charge       = 0
  Multiplicity = 1
  Basis Set: AUG-CC-PVTZ
    Blend: AUG-CC-PVTZ
  Basis Set: (AUG-CC-PVTZ AUX)
    Blend: AUG-CC-PVTZ-JKFIT

    Orbital Energies [Eh]
    ---------------------

    Doubly Occupied:

       1A   -490.011895     2A    -65.151792     3A    -58.507052
       4A    -58.505729     5A    -58.505723     6A    -26.292033
       7A    -11.325010     8A    -11.297274     9A    -11.253060
      10A     -9.824494    11A     -7.435826    12A     -7.429475
      13A     -7.429429    14A     -3.179325    15A     -3.176052
      16A     -3.176020    17A     -3.167825    18A     -3.167823
      19A     -1.604264    20A     -1.108754    21A     -1.019128
      22A     -0.912864    23A     -0.831821    24A     -0.719440
      25A     -0.712855    26A     -0.677456    27A     -0.644496
      28A     -0.579863    29A     -0.552909    30A     -0.537594
      31A     -0.509897    32A     -0.476040    33A     -0.402113
      34A     -0.401437

  @DF-RHF Final Energy: -2789.08099659910840

   => Energetics <=

    Nuclear Repulsion Energy =            315.1382979080634072
    One-Electron Energy =               -4507.3850491736520780
    Two-Electron Energy =                1403.1657546664800975
    Total Energy =                      -2789.0809965991084027
  Basis Set: (AUG-CC-PVTZ AUX)
    Blend: AUG-CC-PVTZ-RI
    Molecular point group: c1

    Geometry (in Angstrom), charge = 0, multiplicity = 1:

       Center              X                  Y                   Z               Mass
    ------------   -----------------  -----------------  -----------------  -----------------
         BR          -1.518991392287    -0.000546311094    -0.033383227293    78.918337600000
         F            3.088324607713    -0.743251311094    -0.253089227293    18.998403162730
         C            1.251846607713     0.760311688906    -0.158186227293    12.000000000000
         C            0.358868607713    -0.310273311094     0.441250772707    12.000000000000
         C            2.707456307713     0.503484788906     0.203545972707    12.000000000000
         H            1.148660607713     0.757848688906    -1.247184227293     1.007825032230
         H            0.947031607713     1.749938688906     0.199468772707     1.007825032230
         H            0.611785607713    -1.299070311094     0.063363772707     1.007825032230
         H            0.395863607713    -0.312775311094     1.531625772707     1.007825032230
         H            3.357551607713     1.266123688906    -0.251284227293     1.007825032230
         H            2.851220607713     0.538228688906     1.295073772707     1.007825032230

  Basis Set: AUG-CC-PVTZ
    Blend: AUG-CC-PVTZ
  Basis Set: (AUG-CC-PVTZ AUX)
    Blend: AUG-CC-PVTZ-JKFIT
	 Reference Energy          =   -2789.0809965991084027 [Eh]
	 Singles Energy            =      -0.0000000000000000 [Eh]
	 Same-Spin Energy          =      -0.2845284055450739 [Eh]
	 Opposite-Spin Energy      =      -0.8613367762127633 [Eh]
	 Correlation Energy        =      -1.1458651817578371 [Eh]
	 Total Energy              =   -2790.2268617808663294 [Eh]

	 ================> DF-SCS-MP2 Energies <==================
	-----------------------------------------------------------
	 SCS Same-Spin Scale       =       0.3333333333333333 [-]
	 SCS Opposite-Spin Scale   =       1.2000000000000000 [-]
	 SCS Same-Spin Energy      =      -0.0948428018483580 [Eh]
	 SCS Opposite-Spin Energy  =      -1.0336041314553159 [Eh]
	 SCS Correlation Energy    =      -1.1284469333036740 [Eh]
	 SCS Total Energy          =   -2790.2094435324120241 [Eh]
	-----------------------------------------------------------

  Dipole Moment: [D]
     X:     1.3948      Y:     1.3912      Z:     0.8883     Total:     2.1610

*** Psi4 exiting successfully. Buy a developer a beer!
