                               Psi4 1.4a3.dev225

  ==> Input File <==

--------------------------------------------------------------------------
#psi4
#
memory 32 gb

molecule  {
0 1
 Br       -1.6633780    -0.0273310    -0.0496210
  F        2.9439380    -0.7700360    -0.2693270
  C        1.1074600     0.7335270    -0.1744240
  C        0.2144820    -0.3370580     0.4250130
  C        2.7489766     0.4632322     0.2425437
  H        1.0042740     0.7310640    -1.2634220
  H        0.8026450     1.7231540     0.1832310
  H        0.4673990    -1.3258550     0.0471260
  H        0.2514770    -0.3395600     1.5153880
  H        3.2131650     1.2393390    -0.2675220
  H        2.7068340     0.5114440     1.2788360
units angstrom
no_reorient  #important for SAPT in psi4, default
symmetry c1  #important for SAPT in psi4, default
}

set PROPERTIES_ORIGIN ["COM"]
properties('MP2/aug-cc-pvtz', properties = ['dipole'])
--------------------------------------------------------------------------

    Molecular point group: c1
  Charge       = 0
  Multiplicity = 1
  Basis Set: AUG-CC-PVTZ
    Blend: AUG-CC-PVTZ
  Basis Set: (AUG-CC-PVTZ AUX)
    Blend: AUG-CC-PVTZ-JKFIT

    Orbital Energies [Eh]
    ---------------------

    Doubly Occupied:

       1A   -490.008804     2A    -65.148712     3A    -58.503964
       4A    -58.502650     5A    -58.502640     6A    -26.302529
       7A    -11.325543     8A    -11.293676     9A    -11.252335
      10A     -9.821428    11A     -7.432742    12A     -7.426419
      13A     -7.426361    14A     -3.176231    15A     -3.172980
      16A     -3.172931    17A     -3.164778    18A     -3.164777
      19A     -1.623213    20A     -1.090941    21A     -1.003398
      22A     -0.922927    23A     -0.826691    24A     -0.737074
      25A     -0.724427    26A     -0.692319    27A     -0.643273
      28A     -0.582029    29A     -0.544408    30A     -0.526561
      31A     -0.522337    32A     -0.440269    33A     -0.398855
      34A     -0.395076

  @DF-RHF Final Energy: -2789.05210189290301

   => Energetics <=

    Nuclear Repulsion Energy =            312.6744981672441668
    One-Electron Energy =               -4502.5065998455702356
    Two-Electron Energy =                1400.7799997854226604
    Total Energy =                      -2789.0521018929030106
  Basis Set: (AUG-CC-PVTZ AUX)
    Blend: AUG-CC-PVTZ-RI
    Molecular point group: c1

    Geometry (in Angstrom), charge = 0, multiplicity = 1:

       Center              X                  Y                   Z               Mass
    ------------   -----------------  -----------------  -----------------  -----------------
         BR          -1.534930403218     0.000608379804    -0.038118926927    78.918337600000
         F            3.072385596782    -0.742096620196    -0.257824926927    18.998403162730
         C            1.235907596782     0.761466379804    -0.162921926927    12.000000000000
         C            0.342929596782    -0.309118620196     0.436515073073    12.000000000000
         C            2.877424196782     0.491171579804     0.254045773073    12.000000000000
         H            1.132721596782     0.759003379804    -1.251919926927     1.007825032230
         H            0.931092596782     1.751093379804     0.194733073073     1.007825032230
         H            0.595846596782    -1.297915620196     0.058628073073     1.007825032230
         H            0.379924596782    -0.311620620196     1.526890073073     1.007825032230
         H            3.341612596782     1.267278379804    -0.256019926927     1.007825032230
         H            2.835281596782     0.539383379804     1.290338073073     1.007825032230

  Basis Set: AUG-CC-PVTZ
    Blend: AUG-CC-PVTZ
  Basis Set: (AUG-CC-PVTZ AUX)
    Blend: AUG-CC-PVTZ-JKFIT
	 Reference Energy          =   -2789.0521018929030106 [Eh]
	 Singles Energy            =      -0.0000000000000000 [Eh]
	 Same-Spin Energy          =      -0.2845067962184709 [Eh]
	 Opposite-Spin Energy      =      -0.8621441613818045 [Eh]
	 Correlation Energy        =      -1.1466509576002752 [Eh]
	 Total Energy              =   -2790.1987528505032969 [Eh]

	 ================> DF-SCS-MP2 Energies <==================
	-----------------------------------------------------------
	 SCS Same-Spin Scale       =       0.3333333333333333 [-]
	 SCS Opposite-Spin Scale   =       1.2000000000000000 [-]
	 SCS Same-Spin Energy      =      -0.0948355987394903 [Eh]
	 SCS Opposite-Spin Energy  =      -1.0345729936581654 [Eh]
	 SCS Correlation Energy    =      -1.1294085923976556 [Eh]
	 SCS Total Energy          =   -2790.1815104853008052 [Eh]
	-----------------------------------------------------------

  Dipole Moment: [D]
     X:     1.8364      Y:     1.2429      Z:     0.9369     Total:     2.4073

*** Psi4 exiting successfully. Buy a developer a beer!
