                               Psi4 1.4a3.dev225

  ==> Input File <==

--------------------------------------------------------------------------
#psi4
#
memory 32 gb

molecule  {
0 1
 Br       -1.6633780    -0.0273310    -0.0496210
  F        2.9439380    -0.7700360    -0.2693270
  C        1.1324445     0.6958906    -0.2020825
  C        0.2144820    -0.3370580     0.4250130
  C        2.5575550     0.4947520     0.1939200
  H        1.0042740     0.7310640    -1.2634220
  H        0.8026450     1.7231540     0.1832310
  H        0.4673990    -1.3258550     0.0471260
  H        0.2514770    -0.3395600     1.5153880
  H        3.2131650     1.2393390    -0.2675220
  H        2.7068340     0.5114440     1.2788360
units angstrom
no_reorient  #important for SAPT in psi4, default
symmetry c1  #important for SAPT in psi4, default
}

set PROPERTIES_ORIGIN ["COM"]
properties('MP2/aug-cc-pvtz', properties = ['dipole'])
--------------------------------------------------------------------------

    Molecular point group: c1
  Charge       = 0
  Multiplicity = 1
  Basis Set: AUG-CC-PVTZ
    Blend: AUG-CC-PVTZ
  Basis Set: (AUG-CC-PVTZ AUX)
    Blend: AUG-CC-PVTZ-JKFIT

    Orbital Energies [Eh]
    ---------------------

    Doubly Occupied:

       1A   -490.013012     2A    -65.152880     3A    -58.508147
       4A    -58.506817     5A    -58.506808     6A    -26.285509
       7A    -11.324159     8A    -11.297523     9A    -11.254358
      10A     -9.825556    11A     -7.436905    12A     -7.430526
      13A     -7.430468    14A     -3.180421    15A     -3.177134
      16A     -3.177090    17A     -3.168852    18A     -3.168851
      19A     -1.593586    20A     -1.111021    21A     -1.022887
      22A     -0.914117    23A     -0.830662    24A     -0.714182
      25A     -0.709085    26A     -0.672450    27A     -0.641655
      28A     -0.582521    29A     -0.556616    30A     -0.523037
      31A     -0.518039    32A     -0.480507    33A     -0.403506
      34A     -0.402000

  @DF-RHF Final Energy: -2789.07778270794142

   => Energetics <=

    Nuclear Repulsion Energy =            315.1228898919472954
    One-Electron Energy =               -4507.3595733595921047
    Two-Electron Energy =                1403.1589007597035561
    Total Energy =                      -2789.0777827079414237
  Basis Set: (AUG-CC-PVTZ AUX)
    Blend: AUG-CC-PVTZ-RI
    Molecular point group: c1

    Geometry (in Angstrom), charge = 0, multiplicity = 1:

       Center              X                  Y                   Z               Mass
    ------------   -----------------  -----------------  -----------------  -----------------
         BR          -1.520660665214     0.001132795812    -0.031578756446    78.918337600000
         F            3.086655334786    -0.741572204188    -0.251284756446    18.998403162730
         C            1.275161834786     0.724354395812    -0.184040256446    12.000000000000
         C            0.357199334786    -0.308594204188     0.443055243554    12.000000000000
         C            2.700272334786     0.523215795812     0.211962243554    12.000000000000
         H            1.146991334786     0.759527795812    -1.245379756446     1.007825032230
         H            0.945362334786     1.751617795812     0.201273243554     1.007825032230
         H            0.610116334786    -1.297391204188     0.065168243554     1.007825032230
         H            0.394194334786    -0.311096204188     1.533430243554     1.007825032230
         H            3.355882334786     1.267802795812    -0.249479756446     1.007825032230
         H            2.849551334786     0.539907795812     1.296878243554     1.007825032230

  Basis Set: AUG-CC-PVTZ
    Blend: AUG-CC-PVTZ
  Basis Set: (AUG-CC-PVTZ AUX)
    Blend: AUG-CC-PVTZ-JKFIT
	 Reference Energy          =   -2789.0777827079414237 [Eh]
	 Singles Energy            =      -0.0000000000000000 [Eh]
	 Same-Spin Energy          =      -0.2847533652885116 [Eh]
	 Opposite-Spin Energy      =      -0.8619344683852892 [Eh]
	 Correlation Energy        =      -1.1466878336738007 [Eh]
	 Total Energy              =   -2790.2244705416151191 [Eh]

	 ================> DF-SCS-MP2 Energies <==================
	-----------------------------------------------------------
	 SCS Same-Spin Scale       =       0.3333333333333333 [-]
	 SCS Opposite-Spin Scale   =       1.2000000000000000 [-]
	 SCS Same-Spin Energy      =      -0.0949177884295039 [Eh]
	 SCS Opposite-Spin Energy  =      -1.0343213620623470 [Eh]
	 SCS Correlation Energy    =      -1.1292391504918509 [Eh]
	 SCS Total Energy          =   -2790.2070218584331087 [Eh]
	-----------------------------------------------------------

  Dipole Moment: [D]
     X:     1.3358      Y:     1.4513      Z:     0.9066     Total:     2.1708

*** Psi4 exiting successfully. Buy a developer a beer!
