                               Psi4 1.4a3.dev225

  ==> Input File <==

--------------------------------------------------------------------------
#psi4
#
memory 32 gb

molecule  {
0 1
 Br       -1.6633780    -0.0273310    -0.0496210
  F        2.9439380    -0.7700360    -0.2693270
  C        1.1074600     0.7335270    -0.1744240
  C        0.2144820    -0.3370580     0.4250130
  C        2.5575550     0.4947520     0.1939200
  H        1.0042740     0.7310640    -1.2634220
  H        0.8026450     1.7231540     0.1832310
  H        0.4673990    -1.3258550     0.0471260
  H        0.2514770    -0.3395600     1.5153880
  H        3.1832052     1.2053132    -0.2464352
  H        2.7068340     0.5114440     1.2788360
units angstrom
no_reorient  #important for SAPT in psi4, default
symmetry c1  #important for SAPT in psi4, default
}

set PROPERTIES_ORIGIN ["COM"]
properties('MP2/aug-cc-pvtz', properties = ['dipole'])
--------------------------------------------------------------------------

    Molecular point group: c1
  Charge       = 0
  Multiplicity = 1
  Basis Set: AUG-CC-PVTZ
    Blend: AUG-CC-PVTZ
  Basis Set: (AUG-CC-PVTZ AUX)
    Blend: AUG-CC-PVTZ-JKFIT

    Orbital Energies [Eh]
    ---------------------

    Doubly Occupied:

       1A   -490.011998     2A    -65.151895     3A    -58.507155
       4A    -58.505832     5A    -58.505826     6A    -26.286358
       7A    -11.318840     8A    -11.297408     9A    -11.253272
      10A     -9.824597    11A     -7.435930    12A     -7.429579
      13A     -7.429531    14A     -3.179430    15A     -3.176156
      16A     -3.176123    17A     -3.167927    18A     -3.167926
      19A     -1.593337    20A     -1.110154    21A     -1.022208
      22A     -0.916768    23A     -0.832158    24A     -0.714729
      25A     -0.712218    26A     -0.671384    27A     -0.643550
      28A     -0.581008    29A     -0.555938    30A     -0.538760
      31A     -0.515042    32A     -0.478036    33A     -0.402337
      34A     -0.401644

  @DF-RHF Final Energy: -2789.08016315513487

   => Energetics <=

    Nuclear Repulsion Energy =            315.2216634664660546
    One-Electron Energy =               -4507.5735472212354580
    Two-Electron Energy =                1403.2717205996341363
    Total Energy =                      -2789.0801631551348692
  Basis Set: (AUG-CC-PVTZ AUX)
    Blend: AUG-CC-PVTZ-RI
    Molecular point group: c1

    Geometry (in Angstrom), charge = 0, multiplicity = 1:

       Center              X                  Y                   Z               Mass
    ------------   -----------------  -----------------  -----------------  -----------------
         BR          -1.518302852026    -0.001849011428    -0.034101938011    78.918337600000
         F            3.089013147974    -0.744554011428    -0.253807938011    18.998403162730
         C            1.252535147974     0.759008988572    -0.158904938011    12.000000000000
         C            0.359557147974    -0.311576011428     0.440532061989    12.000000000000
         C            2.702630147974     0.520233988572     0.209439061989    12.000000000000
         H            1.149349147974     0.756545988572    -1.247902938011     1.007825032230
         H            0.947720147974     1.748635988572     0.198750061989     1.007825032230
         H            0.612474147974    -1.300373011428     0.062645061989     1.007825032230
         H            0.396552147974    -0.314078011428     1.530907061989     1.007825032230
         H            3.328280347974     1.230795188572    -0.230916138011     1.007825032230
         H            2.851909147974     0.536925988572     1.294355061989     1.007825032230

  Basis Set: AUG-CC-PVTZ
    Blend: AUG-CC-PVTZ
  Basis Set: (AUG-CC-PVTZ AUX)
    Blend: AUG-CC-PVTZ-JKFIT
	 Reference Energy          =   -2789.0801631551348692 [Eh]
	 Singles Energy            =      -0.0000000000000000 [Eh]
	 Same-Spin Energy          =      -0.2845393281566528 [Eh]
	 Opposite-Spin Energy      =      -0.8613486084302082 [Eh]
	 Correlation Energy        =      -1.1458879365868611 [Eh]
	 Total Energy              =   -2790.2260510917217289 [Eh]

	 ================> DF-SCS-MP2 Energies <==================
	-----------------------------------------------------------
	 SCS Same-Spin Scale       =       0.3333333333333333 [-]
	 SCS Opposite-Spin Scale   =       1.2000000000000000 [-]
	 SCS Same-Spin Energy      =      -0.0948464427188843 [Eh]
	 SCS Opposite-Spin Energy  =      -1.0336183301162498 [Eh]
	 SCS Correlation Energy    =      -1.1284647728351340 [Eh]
	 SCS Total Energy          =   -2790.2086279279701557 [Eh]
	-----------------------------------------------------------

  Dipole Moment: [D]
     X:     1.3739      Y:     1.4891      Z:     0.9142     Total:     2.2228

*** Psi4 exiting successfully. Buy a developer a beer!
