                               Psi4 1.4a3.dev225

  ==> Input File <==

--------------------------------------------------------------------------
#psi4
#
memory 32 gb

molecule  {
0 1
 Br       -1.6633780    -0.0273310    -0.0496210
  F        2.9439380    -0.7700360    -0.2693270
  C        1.1074600     0.7335270    -0.1744240
  C        0.2144820    -0.3370580     0.4250130
  C        2.5384128     0.4979040     0.1890576
  H        1.0042740     0.7310640    -1.2634220
  H        0.8026450     1.7231540     0.1832310
  H        0.4673990    -1.3258550     0.0471260
  H        0.2514770    -0.3395600     1.5153880
  H        3.2131650     1.2393390    -0.2675220
  H        2.7068340     0.5114440     1.2788360
units angstrom
no_reorient  #important for SAPT in psi4, default
symmetry c1  #important for SAPT in psi4, default
}

set PROPERTIES_ORIGIN ["COM"]
properties('MP2/aug-cc-pvtz', properties = ['dipole'])
--------------------------------------------------------------------------

    Molecular point group: c1
  Charge       = 0
  Multiplicity = 1
  Basis Set: AUG-CC-PVTZ
    Blend: AUG-CC-PVTZ
  Basis Set: (AUG-CC-PVTZ AUX)
    Blend: AUG-CC-PVTZ-JKFIT

    Orbital Energies [Eh]
    ---------------------

    Doubly Occupied:

       1A   -490.012613     2A    -65.152506     3A    -58.507768
       4A    -58.506442     5A    -58.506436     6A    -26.285608
       7A    -11.325427     8A    -11.298121     9A    -11.253522
      10A     -9.825204    11A     -7.436542    12A     -7.430181
      13A     -7.430133    14A     -3.180046    15A     -3.176766
      16A     -3.176734    17A     -3.168524    18A     -3.168523
      19A     -1.590675    20A     -1.112794    21A     -1.022634
      22A     -0.912165    23A     -0.832019    24A     -0.713458
      25A     -0.705870    26A     -0.669855    27A     -0.642565
      28A     -0.580945    29A     -0.557636    30A     -0.538197
      31A     -0.510412    32A     -0.480161    33A     -0.402964
      34A     -0.402227

  @DF-RHF Final Energy: -2789.08017493144916

   => Energetics <=

    Nuclear Repulsion Energy =            315.1912948291769681
    One-Electron Energy =               -4507.5115964032829652
    Two-Electron Energy =                1403.2401266426561506
    Total Energy =                      -2789.0801749314496192
  Basis Set: (AUG-CC-PVTZ AUX)
    Blend: AUG-CC-PVTZ-RI
    Molecular point group: c1

    Geometry (in Angstrom), charge = 0, multiplicity = 1:

       Center              X                  Y                   Z               Mass
    ------------   -----------------  -----------------  -----------------  -----------------
         BR          -1.516877395450    -0.002364259722    -0.033533214764    78.918337600000
         F            3.090438604550    -0.745069259722    -0.253239214764    18.998403162730
         C            1.253960604550     0.758493740278    -0.158336214764    12.000000000000
         C            0.360982604550    -0.312091259722     0.441100785236    12.000000000000
         C            2.684913404550     0.522870740278     0.205145385236    12.000000000000
         H            1.150774604550     0.756030740278    -1.247334214764     1.007825032230
         H            0.949145604550     1.748120740278     0.199318785236     1.007825032230
         H            0.613899604550    -1.300888259722     0.063213785236     1.007825032230
         H            0.397977604550    -0.314593259722     1.531475785236     1.007825032230
         H            3.359665604550     1.264305740278    -0.251434214764     1.007825032230
         H            2.853334604550     0.536410740278     1.294923785236     1.007825032230

  Basis Set: AUG-CC-PVTZ
    Blend: AUG-CC-PVTZ
  Basis Set: (AUG-CC-PVTZ AUX)
    Blend: AUG-CC-PVTZ-JKFIT
	 Reference Energy          =   -2789.0801749314491644 [Eh]
	 Singles Energy            =      -0.0000000000000000 [Eh]
	 Same-Spin Energy          =      -0.2847717302912197 [Eh]
	 Opposite-Spin Energy      =      -0.8619811150888524 [Eh]
	 Correlation Energy        =      -1.1467528453800722 [Eh]
	 Total Energy              =   -2790.2269277768291431 [Eh]

	 ================> DF-SCS-MP2 Energies <==================
	-----------------------------------------------------------
	 SCS Same-Spin Scale       =       0.3333333333333333 [-]
	 SCS Opposite-Spin Scale   =       1.2000000000000000 [-]
	 SCS Same-Spin Energy      =      -0.0949239100970732 [Eh]
	 SCS Opposite-Spin Energy  =      -1.0343773381066228 [Eh]
	 SCS Correlation Energy    =      -1.1293012482036959 [Eh]
	 SCS Total Energy          =   -2790.2094761796529383 [Eh]
	-----------------------------------------------------------

  Dipole Moment: [D]
     X:     1.2987      Y:     1.4895      Z:     0.9132     Total:     2.1770

*** Psi4 exiting successfully. Buy a developer a beer!
