                               Psi4 1.4a3.dev225

  ==> Input File <==

--------------------------------------------------------------------------
#psi4
#
memory 32 gb

molecule  {
0 1
 Br       -1.6633780    -0.0273310    -0.0496210
  F        2.9439380    -0.7700360    -0.2693270
  C        1.1074600     0.7335270    -0.1744240
  C        0.2144820    -0.3370580     0.4250130
  C        2.5437682     0.5398818     0.2104495
  H        1.0042740     0.7310640    -1.2634220
  H        0.8026450     1.7231540     0.1832310
  H        0.4673990    -1.3258550     0.0471260
  H        0.2514770    -0.3395600     1.5153880
  H        3.2131650     1.2393390    -0.2675220
  H        2.7068340     0.5114440     1.2788360
units angstrom
no_reorient  #important for SAPT in psi4, default
symmetry c1  #important for SAPT in psi4, default
}

set PROPERTIES_ORIGIN ["COM"]
properties('MP2/aug-cc-pvtz', properties = ['dipole'])
--------------------------------------------------------------------------

    Molecular point group: c1
  Charge       = 0
  Multiplicity = 1
  Basis Set: AUG-CC-PVTZ
    Blend: AUG-CC-PVTZ
  Basis Set: (AUG-CC-PVTZ AUX)
    Blend: AUG-CC-PVTZ-JKFIT

    Orbital Energies [Eh]
    ---------------------

    Doubly Occupied:

       1A   -490.013139     2A    -65.153026     3A    -58.508290
       4A    -58.506962     5A    -58.506954     6A    -26.275225
       7A    -11.325310     8A    -11.298634     9A    -11.255207
      10A     -9.825719    11A     -7.437066    12A     -7.430692
      13A     -7.430639    14A     -3.180575    15A     -3.177290
      16A     -3.177252    17A     -3.169024    18A     -3.169023
      19A     -1.569971    20A     -1.112989    21A     -1.024122
      22A     -0.914452    23A     -0.832205    24A     -0.706237
      25A     -0.696840    26A     -0.657369    27A     -0.638161
      28A     -0.581361    29A     -0.558201    30A     -0.538107
      31A     -0.519858    32A     -0.481773    33A     -0.403626
      34A     -0.402668

  @DF-RHF Final Energy: -2789.07788785931007

   => Energetics <=

    Nuclear Repulsion Energy =            314.5228085193518268
    One-Electron Energy =               -4506.2454550982220098
    Two-Electron Energy =                1402.6447587195598317
    Total Energy =                      -2789.0778878593100671
  Basis Set: (AUG-CC-PVTZ AUX)
    Blend: AUG-CC-PVTZ-RI
    Molecular point group: c1

    Geometry (in Angstrom), charge = 0, multiplicity = 1:

       Center              X                  Y                   Z               Mass
    ------------   -----------------  -----------------  -----------------  -----------------
         BR          -1.517336548818    -0.005963290274    -0.035367281858    78.918337600000
         F            3.089979451182    -0.748668290274    -0.255073281858    18.998403162730
         C            1.253501451182     0.754894709726    -0.160170281858    12.000000000000
         C            0.360523451182    -0.315690290274     0.439266718142    12.000000000000
         C            2.689809651182     0.561249509726     0.224703218142    12.000000000000
         H            1.150315451182     0.752431709726    -1.249168281858     1.007825032230
         H            0.948686451182     1.744521709726     0.197484718142     1.007825032230
         H            0.613440451182    -1.304487290274     0.061379718142     1.007825032230
         H            0.397518451182    -0.318192290274     1.529641718142     1.007825032230
         H            3.359206451182     1.260706709726    -0.253268281858     1.007825032230
         H            2.852875451182     0.532811709726     1.293089718142     1.007825032230

  Basis Set: AUG-CC-PVTZ
    Blend: AUG-CC-PVTZ
  Basis Set: (AUG-CC-PVTZ AUX)
    Blend: AUG-CC-PVTZ-JKFIT
	 Reference Energy          =   -2789.0778878593100671 [Eh]
	 Singles Energy            =      -0.0000000000000000 [Eh]
	 Same-Spin Energy          =      -0.2848096778300483 [Eh]
	 Opposite-Spin Energy      =      -0.8627096879786622 [Eh]
	 Correlation Energy        =      -1.1475193658087106 [Eh]
	 Total Energy              =   -2790.2254072251189427 [Eh]

	 ================> DF-SCS-MP2 Energies <==================
	-----------------------------------------------------------
	 SCS Same-Spin Scale       =       0.3333333333333333 [-]
	 SCS Opposite-Spin Scale   =       1.2000000000000000 [-]
	 SCS Same-Spin Energy      =      -0.0949365592766828 [Eh]
	 SCS Opposite-Spin Energy  =      -1.0352516255743947 [Eh]
	 SCS Correlation Energy    =      -1.1301881848510775 [Eh]
	 SCS Total Energy          =   -2790.2080760441613165 [Eh]
	-----------------------------------------------------------

  Dipole Moment: [D]
     X:     1.2472      Y:     1.6487      Z:     0.9842     Total:     2.2896

*** Psi4 exiting successfully. Buy a developer a beer!
