                               Psi4 1.4a3.dev225

  ==> Input File <==

--------------------------------------------------------------------------
#psi4
#
memory 32 gb

molecule  {
0 1
 Br       -1.6633780    -0.0273310    -0.0496210
  F        2.9439380    -0.7700360    -0.2693270
  C        1.1074600     0.7335270    -0.1744240
  C        0.2144820    -0.3370580     0.4250130
  C        2.5575550     0.4947520     0.1939200
  H        1.0042740     0.7310640    -1.2634220
  H        0.8026450     1.7231540     0.1832310
  H        0.4673990    -1.3258550     0.0471260
  H        0.2514770    -0.3395600     1.5153880
  H        3.1532454     1.1712873    -0.2253484
  H        2.7068340     0.5114440     1.2788360
units angstrom
no_reorient  #important for SAPT in psi4, default
symmetry c1  #important for SAPT in psi4, default
}

set PROPERTIES_ORIGIN ["COM"]
properties('MP2/aug-cc-pvtz', properties = ['dipole'])
--------------------------------------------------------------------------

    Molecular point group: c1
  Charge       = 0
  Multiplicity = 1
  Basis Set: AUG-CC-PVTZ
    Blend: AUG-CC-PVTZ
  Basis Set: (AUG-CC-PVTZ AUX)
    Blend: AUG-CC-PVTZ-JKFIT

    Orbital Energies [Eh]
    ---------------------

    Doubly Occupied:

       1A   -490.011787     2A    -65.151687     3A    -58.506946
       4A    -58.505625     5A    -58.505618     6A    -26.285592
       7A    -11.312726     8A    -11.297218     9A    -11.252975
      10A     -9.824391    11A     -7.435721    12A     -7.429376
      13A     -7.429328    14A     -3.179218    15A     -3.175948
      16A     -3.175915    17A     -3.167727    18A     -3.167726
      19A     -1.592817    20A     -1.110576    21A     -1.024383
      22A     -0.920964    23A     -0.832710    24A     -0.718332
      25A     -0.713327    26A     -0.671578    27A     -0.643868
      28A     -0.581598    29A     -0.557496    30A     -0.539482
      31A     -0.516618    32A     -0.478134    33A     -0.402187
      34A     -0.401494

  @DF-RHF Final Energy: -2789.07532858114473

   => Energetics <=

    Nuclear Repulsion Energy =            315.5022848003660556
    One-Electron Energy =               -4508.1130481993595822
    Two-Electron Energy =                1403.5354348178486816
    Total Energy =                      -2789.0753285811442765
  Basis Set: (AUG-CC-PVTZ AUX)
    Blend: AUG-CC-PVTZ-RI
    Molecular point group: c1

    Geometry (in Angstrom), charge = 0, multiplicity = 1:

       Center              X                  Y                   Z               Mass
    ------------   -----------------  -----------------  -----------------  -----------------
         BR          -1.518087122959    -0.001604003930    -0.034253775997    78.918337600000
         F            3.089228877041    -0.744309003930    -0.253959775997    18.998403162730
         C            1.252750877041     0.759253996070    -0.159056775997    12.000000000000
         C            0.359772877041    -0.311331003930     0.440380224003    12.000000000000
         C            2.702845877041     0.520478996070     0.209287224003    12.000000000000
         H            1.149564877041     0.756790996070    -1.248054775997     1.007825032230
         H            0.947935877041     1.748880996070     0.198598224003     1.007825032230
         H            0.612689877041    -1.300128003930     0.062493224003     1.007825032230
         H            0.396767877041    -0.313833003930     1.530755224003     1.007825032230
         H            3.298536277041     1.197014296070    -0.209981175997     1.007825032230
         H            2.852124877041     0.537170996070     1.294203224003     1.007825032230

  Basis Set: AUG-CC-PVTZ
    Blend: AUG-CC-PVTZ
  Basis Set: (AUG-CC-PVTZ AUX)
    Blend: AUG-CC-PVTZ-JKFIT
	 Reference Energy          =   -2789.0753285811447313 [Eh]
	 Singles Energy            =      -0.0000000000000000 [Eh]
	 Same-Spin Energy          =      -0.2845064042205836 [Eh]
	 Opposite-Spin Energy      =      -0.8610809367236065 [Eh]
	 Correlation Energy        =      -1.1455873409441901 [Eh]
	 Total Energy              =   -2790.2209159220888068 [Eh]

	 ================> DF-SCS-MP2 Energies <==================
	-----------------------------------------------------------
	 SCS Same-Spin Scale       =       0.3333333333333333 [-]
	 SCS Opposite-Spin Scale   =       1.2000000000000000 [-]
	 SCS Same-Spin Energy      =      -0.0948354680735279 [Eh]
	 SCS Opposite-Spin Energy  =      -1.0332971240683277 [Eh]
	 SCS Correlation Energy    =      -1.1281325921418557 [Eh]
	 SCS Total Energy          =   -2790.2034611732865415 [Eh]
	-----------------------------------------------------------

  Dipole Moment: [D]
     X:     1.3908      Y:     1.5080      Z:     0.9133     Total:     2.2455

*** Psi4 exiting successfully. Buy a developer a beer!
