                               Psi4 1.4a3.dev225

  ==> Input File <==

--------------------------------------------------------------------------
#psi4
#
memory 32 gb

molecule  {
0 1
 Br       -1.6633780    -0.0273310    -0.0496210
  F        2.9439380    -0.7700360    -0.2693270
  C        1.1074600     0.7335270    -0.1744240
  C        0.1726551    -0.3132411     0.4029001
  C        2.5575550     0.4947520     0.1939200
  H        1.0042740     0.7310640    -1.2634220
  H        0.8026450     1.7231540     0.1832310
  H        0.4673990    -1.3258550     0.0471260
  H        0.2514770    -0.3395600     1.5153880
  H        3.2131650     1.2393390    -0.2675220
  H        2.7068340     0.5114440     1.2788360
units angstrom
no_reorient  #important for SAPT in psi4, default
symmetry c1  #important for SAPT in psi4, default
}

set PROPERTIES_ORIGIN ["COM"]
properties('MP2/aug-cc-pvtz', properties = ['dipole'])
--------------------------------------------------------------------------

    Molecular point group: c1
  Charge       = 0
  Multiplicity = 1
  Basis Set: AUG-CC-PVTZ
    Blend: AUG-CC-PVTZ
  Basis Set: (AUG-CC-PVTZ AUX)
    Blend: AUG-CC-PVTZ-JKFIT

    Orbital Energies [Eh]
    ---------------------

    Doubly Occupied:

       1A   -490.016108     2A    -65.156157     3A    -58.511409
       4A    -58.510085     5A    -58.510074     6A    -26.286034
       7A    -11.324395     8A    -11.296669     9A    -11.252012
      10A     -9.829138    11A     -7.440634    12A     -7.434099
      13A     -7.434030    14A     -3.184218    15A     -3.180773
      16A     -3.180722    17A     -3.172363    18A     -3.172361
      19A     -1.592687    20A     -1.111276    21A     -1.025999
      22A     -0.911925    23A     -0.825552    24A     -0.712814
      25A     -0.706548    26A     -0.670648    27A     -0.635649
      28A     -0.576187    29A     -0.558091    30A     -0.531861
      31A     -0.510164    32A     -0.488084    33A     -0.404300
      34A     -0.402211

  @DF-RHF Final Energy: -2789.07838419952031

   => Energetics <=

    Nuclear Repulsion Energy =            316.0556600577042445
    One-Electron Energy =               -4509.1575378074394393
    Two-Electron Energy =                1404.0234935502155622
    Total Energy =                      -2789.0783841995198600
  Basis Set: (AUG-CC-PVTZ AUX)
    Blend: AUG-CC-PVTZ-RI
    Molecular point group: c1

    Geometry (in Angstrom), charge = 0, multiplicity = 1:

       Center              X                  Y                   Z               Mass
    ------------   -----------------  -----------------  -----------------  -----------------
         BR          -1.514932488181    -0.004135996365    -0.032054216899    78.918337600000
         F            3.092383511819    -0.746840996365    -0.251760216899    18.998403162730
         C            1.255905511819     0.756722003635    -0.156857216899    12.000000000000
         C            0.321100611819    -0.290046096365     0.420466883101    12.000000000000
         C            2.706000511819     0.517947003635     0.211486783101    12.000000000000
         H            1.152719511819     0.754259003635    -1.245855216899     1.007825032230
         H            0.951090511819     1.746349003635     0.200797783101     1.007825032230
         H            0.615844511819    -1.302659996365     0.064692783101     1.007825032230
         H            0.399922511819    -0.316364996365     1.532954783101     1.007825032230
         H            3.361610511819     1.262534003635    -0.249955216899     1.007825032230
         H            2.855279511819     0.534639003635     1.296402783101     1.007825032230

  Basis Set: AUG-CC-PVTZ
    Blend: AUG-CC-PVTZ
  Basis Set: (AUG-CC-PVTZ AUX)
    Blend: AUG-CC-PVTZ-JKFIT
	 Reference Energy          =   -2789.0783841995203147 [Eh]
	 Singles Energy            =      -0.0000000000000000 [Eh]
	 Same-Spin Energy          =      -0.2851342484715629 [Eh]
	 Opposite-Spin Energy      =      -0.8624747815044840 [Eh]
	 Correlation Energy        =      -1.1476090299760469 [Eh]
	 Total Energy              =   -2790.2259932294964528 [Eh]

	 ================> DF-SCS-MP2 Energies <==================
	-----------------------------------------------------------
	 SCS Same-Spin Scale       =       0.3333333333333333 [-]
	 SCS Opposite-Spin Scale   =       1.2000000000000000 [-]
	 SCS Same-Spin Energy      =      -0.0950447494905210 [Eh]
	 SCS Opposite-Spin Energy  =      -1.0349697378053808 [Eh]
	 SCS Correlation Energy    =      -1.1300144872959017 [Eh]
	 SCS Total Energy          =   -2790.2083986868160537 [Eh]
	-----------------------------------------------------------

  Dipole Moment: [D]
     X:     1.2037      Y:     1.4688      Z:     0.8900     Total:     2.0973

*** Psi4 exiting successfully. Buy a developer a beer!
