                               Psi4 1.4a3.dev225

  ==> Input File <==

--------------------------------------------------------------------------
#psi4
#
memory 32 gb

molecule  {
0 1
 Br       -1.6633780    -0.0273310    -0.0496210
  F        2.9439380    -0.7700360    -0.2693270
  C        1.1074600     0.7335270    -0.1744240
  C        0.2144820    -0.3370580     0.4250130
  C        2.6532658     0.4789921     0.2182319
  H        1.0042740     0.7310640    -1.2634220
  H        0.8026450     1.7231540     0.1832310
  H        0.4673990    -1.3258550     0.0471260
  H        0.2514770    -0.3395600     1.5153880
  H        3.2131650     1.2393390    -0.2675220
  H        2.7068340     0.5114440     1.2788360
units angstrom
no_reorient  #important for SAPT in psi4, default
symmetry c1  #important for SAPT in psi4, default
}

set PROPERTIES_ORIGIN ["COM"]
properties('MP2/aug-cc-pvtz', properties = ['dipole'])
--------------------------------------------------------------------------

    Molecular point group: c1
  Charge       = 0
  Multiplicity = 1
  Basis Set: AUG-CC-PVTZ
    Blend: AUG-CC-PVTZ
  Basis Set: (AUG-CC-PVTZ AUX)
    Blend: AUG-CC-PVTZ-JKFIT

    Orbital Energies [Eh]
    ---------------------

    Doubly Occupied:

       1A   -490.010477     2A    -65.150377     3A    -58.505634
       4A    -58.504315     5A    -58.504307     6A    -26.295107
       7A    -11.323675     8A    -11.295503     9A    -11.253465
      10A     -9.823084    11A     -7.434409    12A     -7.428070
      13A     -7.428017    14A     -3.177905    15A     -3.174641
      16A     -3.174600    17A     -3.166422    18A     -3.166421
      19A     -1.609504    20A     -1.098631    21A     -1.011041
      22A     -0.918346    23A     -0.829517    24A     -0.724899
      25A     -0.717142    26A     -0.680861    27A     -0.644251
      28A     -0.579928    29A     -0.543561    30A     -0.534647
      31A     -0.521767    32A     -0.461930    33A     -0.400522
      34A     -0.399269

  @DF-RHF Final Energy: -2789.07353061377034

   => Energetics <=

    Nuclear Repulsion Energy =            313.8130286708565109
    One-Electron Energy =               -4504.7886268706934061
    Two-Electron Energy =                1401.9020675860667779
    Total Energy =                      -2789.0735306137703446
  Basis Set: (AUG-CC-PVTZ AUX)
    Blend: AUG-CC-PVTZ-RI
    Molecular point group: c1

    Geometry (in Angstrom), charge = 0, multiplicity = 1:

       Center              X                  Y                   Z               Mass
    ------------   -----------------  -----------------  -----------------  -----------------
         BR          -1.526724492155    -0.000742819201    -0.036034517763    78.918337600000
         F            3.080591507845    -0.743447819201    -0.255740517763    18.998403162730
         C            1.244113507845     0.760115180799    -0.160837517763    12.000000000000
         C            0.351135507845    -0.310469819201     0.438599482237    12.000000000000
         C            2.789919307845     0.505580280799     0.231818382237    12.000000000000
         H            1.140927507845     0.757652180799    -1.249835517763     1.007825032230
         H            0.939298507845     1.749742180799     0.196817482237     1.007825032230
         H            0.604052507845    -1.299266819201     0.060712482237     1.007825032230
         H            0.388130507845    -0.312971819201     1.528974482237     1.007825032230
         H            3.349818507845     1.265927180799    -0.253935517763     1.007825032230
         H            2.843487507845     0.538032180799     1.292422482237     1.007825032230

  Basis Set: AUG-CC-PVTZ
    Blend: AUG-CC-PVTZ
  Basis Set: (AUG-CC-PVTZ AUX)
    Blend: AUG-CC-PVTZ-JKFIT
	 Reference Energy          =   -2789.0735306137703446 [Eh]
	 Singles Energy            =      -0.0000000000000000 [Eh]
	 Same-Spin Energy          =      -0.2841796172921355 [Eh]
	 Opposite-Spin Energy      =      -0.8612130887259636 [Eh]
	 Correlation Energy        =      -1.1453927060180991 [Eh]
	 Total Energy              =   -2790.2189233197882459 [Eh]

	 ================> DF-SCS-MP2 Energies <==================
	-----------------------------------------------------------
	 SCS Same-Spin Scale       =       0.3333333333333333 [-]
	 SCS Opposite-Spin Scale   =       1.2000000000000000 [-]
	 SCS Same-Spin Energy      =      -0.0947265390973785 [Eh]
	 SCS Opposite-Spin Energy  =      -1.0334557064711563 [Eh]
	 SCS Correlation Energy    =      -1.1281822455685346 [Eh]
	 SCS Total Energy          =   -2790.2017128593388406 [Eh]
	-----------------------------------------------------------

  Dipole Moment: [D]
     X:     1.6100      Y:     1.3532      Z:     0.9304     Total:     2.2997

*** Psi4 exiting successfully. Buy a developer a beer!
