                               Psi4 1.4a3.dev225

  ==> Input File <==

--------------------------------------------------------------------------
#psi4
#
memory 32 gb

molecule  {
0 1
 Br       -1.6633780    -0.0273310    -0.0496210
  F        3.0761847    -0.7419672    -0.2124384
  C        1.1074600     0.7335270    -0.1744240
  C        0.2144820    -0.3370580     0.4250130
  C        2.5575550     0.4947520     0.1939200
  H        1.0042740     0.7310640    -1.2634220
  H        0.8026450     1.7231540     0.1832310
  H        0.4673990    -1.3258550     0.0471260
  H        0.2514770    -0.3395600     1.5153880
  H        3.2131650     1.2393390    -0.2675220
  H        2.7068340     0.5114440     1.2788360
units angstrom
no_reorient  #important for SAPT in psi4, default
symmetry c1  #important for SAPT in psi4, default
}

set PROPERTIES_ORIGIN ["COM"]
properties('MP2/aug-cc-pvtz', properties = ['dipole'])
--------------------------------------------------------------------------

    Molecular point group: c1
  Charge       = 0
  Multiplicity = 1
  Basis Set: AUG-CC-PVTZ
    Blend: AUG-CC-PVTZ
  Basis Set: (AUG-CC-PVTZ AUX)
    Blend: AUG-CC-PVTZ-JKFIT

    Orbital Energies [Eh]
    ---------------------

    Doubly Occupied:

       1A   -490.013656     2A    -65.153549     3A    -58.508811
       4A    -58.507483     5A    -58.507478     6A    -26.286191
       7A    -11.323841     8A    -11.299598     9A    -11.257089
      10A     -9.826248    11A     -7.437590    12A     -7.431220
      13A     -7.431174    14A     -3.181095    15A     -3.177811
      16A     -3.177780    17A     -3.169560    18A     -3.169559
      19A     -1.592409    20A     -1.111960    21A     -1.021411
      22A     -0.913481    23A     -0.834049    24A     -0.713352
      25A     -0.704635    26A     -0.671864    27A     -0.644309
      28A     -0.582207    29A     -0.556801    30A     -0.540104
      31A     -0.510410    32A     -0.478781    33A     -0.403816
      34A     -0.403339

  @DF-RHF Final Energy: -2789.07948505418699

   => Energetics <=

    Nuclear Repulsion Energy =            313.1259937925374857
    One-Electron Energy =               -4503.3256350857100188
    Two-Electron Energy =                1401.1201562389851460
    Total Energy =                      -2789.0794850541869891
  Basis Set: (AUG-CC-PVTZ AUX)
    Blend: AUG-CC-PVTZ-RI
    Molecular point group: c1

    Geometry (in Angstrom), charge = 0, multiplicity = 1:

       Center              X                  Y                   Z               Mass
    ------------   -----------------  -----------------  -----------------  -----------------
         BR          -1.536469494693    -0.005904023323    -0.041672049560    78.918337600000
         F            3.203093205307    -0.720540223323    -0.204489449560    18.998403162730
         C            1.234368505307     0.754953976677    -0.166475049560    12.000000000000
         C            0.341390505307    -0.315631023323     0.432961950440    12.000000000000
         C            2.684463505307     0.516178976677     0.201868950440    12.000000000000
         H            1.131182505307     0.752490976677    -1.255473049560     1.007825032230
         H            0.929553505307     1.744580976677     0.191179950440     1.007825032230
         H            0.594307505307    -1.304428023323     0.055074950440     1.007825032230
         H            0.378385505307    -0.318133023323     1.523336950440     1.007825032230
         H            3.340073505307     1.260765976677    -0.259573049560     1.007825032230
         H            2.833742505307     0.532870976677     1.286784950440     1.007825032230

  Basis Set: AUG-CC-PVTZ
    Blend: AUG-CC-PVTZ
  Basis Set: (AUG-CC-PVTZ AUX)
    Blend: AUG-CC-PVTZ-JKFIT
	 Reference Energy          =   -2789.0794850541869891 [Eh]
	 Singles Energy            =      -0.0000000000000000 [Eh]
	 Same-Spin Energy          =      -0.2844920672654577 [Eh]
	 Opposite-Spin Energy      =      -0.8616317946197414 [Eh]
	 Correlation Energy        =      -1.1461238618851990 [Eh]
	 Total Energy              =   -2790.2256089160723604 [Eh]

	 ================> DF-SCS-MP2 Energies <==================
	-----------------------------------------------------------
	 SCS Same-Spin Scale       =       0.3333333333333333 [-]
	 SCS Opposite-Spin Scale   =       1.2000000000000000 [-]
	 SCS Same-Spin Energy      =      -0.0948306890884859 [Eh]
	 SCS Opposite-Spin Energy  =      -1.0339581535436897 [Eh]
	 SCS Correlation Energy    =      -1.1287888426321755 [Eh]
	 SCS Total Energy          =   -2790.2082738968192643 [Eh]
	-----------------------------------------------------------

  Dipole Moment: [D]
     X:     1.1127      Y:     1.4424      Z:     0.8411     Total:     2.0066

*** Psi4 exiting successfully. Buy a developer a beer!
