                               Psi4 1.4a3.dev225

  ==> Input File <==

--------------------------------------------------------------------------
#psi4
#
memory 32 gb

molecule  {
0 1
 Br       -1.6633780    -0.0273310    -0.0496210
  F        2.9439380    -0.7700360    -0.2693270
  C        1.1074600     0.7335270    -0.1744240
  C        0.2733263    -0.2665100     0.3855121
  C        2.5575550     0.4947520     0.1939200
  H        1.0042740     0.7310640    -1.2634220
  H        0.8026450     1.7231540     0.1832310
  H        0.4673990    -1.3258550     0.0471260
  H        0.2514770    -0.3395600     1.5153880
  H        3.2131650     1.2393390    -0.2675220
  H        2.7068340     0.5114440     1.2788360
units angstrom
no_reorient  #important for SAPT in psi4, default
symmetry c1  #important for SAPT in psi4, default
}

set PROPERTIES_ORIGIN ["COM"]
properties('MP2/aug-cc-pvtz', properties = ['dipole'])
--------------------------------------------------------------------------

    Molecular point group: c1
  Charge       = 0
  Multiplicity = 1
  Basis Set: AUG-CC-PVTZ
    Blend: AUG-CC-PVTZ
  Basis Set: (AUG-CC-PVTZ AUX)
    Blend: AUG-CC-PVTZ-JKFIT

    Orbital Energies [Eh]
    ---------------------

    Doubly Occupied:

       1A   -490.009147     2A    -65.148960     3A    -58.504219
       4A    -58.502903     5A    -58.502888     6A    -26.289454
       7A    -11.328095     8A    -11.303112     9A    -11.250241
      10A     -9.821502    11A     -7.432724    12A     -7.426516
      13A     -7.426425    14A     -3.176163    15A     -3.173026
      16A     -3.172958    17A     -3.164898    18A     -3.164896
      19A     -1.596235    20A     -1.126636    21A     -1.016037
      22A     -0.920797    23A     -0.826265    24A     -0.718591
      25A     -0.710473    26A     -0.678096    27A     -0.641781
      28A     -0.597254    29A     -0.559646    30A     -0.533183
      31A     -0.512566    32A     -0.464218    33A     -0.403013
      34A     -0.397709

  @DF-RHF Final Energy: -2789.06959139017908

   => Energetics <=

    Nuclear Repulsion Energy =            315.1873872959989171
    One-Electron Energy =               -4507.5127079673848129
    Two-Electron Energy =                1403.2557292812068681
    Total Energy =                      -2789.0695913901790846
  Basis Set: (AUG-CC-PVTZ AUX)
    Blend: AUG-CC-PVTZ-RI
    Molecular point group: c1

    Geometry (in Angstrom), charge = 0, multiplicity = 1:

       Center              X                  Y                   Z               Mass
    ------------   -----------------  -----------------  -----------------  -----------------
         BR          -1.523563686685    -0.008142558325    -0.030563430263    78.918337600000
         F            3.083752313315    -0.750847558325    -0.250269430263    18.998403162730
         C            1.247274313315     0.752715441675    -0.155366430263    12.000000000000
         C            0.413140613315    -0.247321558325     0.404569669737    12.000000000000
         C            2.697369313315     0.513940441675     0.212977569737    12.000000000000
         H            1.144088313315     0.750252441675    -1.244364430263     1.007825032230
         H            0.942459313315     1.742342441675     0.202288569737     1.007825032230
         H            0.607213313315    -1.306666558325     0.066183569737     1.007825032230
         H            0.391291313315    -0.320371558325     1.534445569737     1.007825032230
         H            3.352979313315     1.258527441675    -0.248464430263     1.007825032230
         H            2.846648313315     0.530632441675     1.297893569737     1.007825032230

  Basis Set: AUG-CC-PVTZ
    Blend: AUG-CC-PVTZ
  Basis Set: (AUG-CC-PVTZ AUX)
    Blend: AUG-CC-PVTZ-JKFIT
	 Reference Energy          =   -2789.0695913901790846 [Eh]
	 Singles Energy            =      -0.0000000000000000 [Eh]
	 Same-Spin Energy          =      -0.2855655398824481 [Eh]
	 Opposite-Spin Energy      =      -0.8627511161294366 [Eh]
	 Correlation Energy        =      -1.1483166560118847 [Eh]
	 Total Energy              =   -2790.2179080461910416 [Eh]

	 ================> DF-SCS-MP2 Energies <==================
	-----------------------------------------------------------
	 SCS Same-Spin Scale       =       0.3333333333333333 [-]
	 SCS Opposite-Spin Scale   =       1.2000000000000000 [-]
	 SCS Same-Spin Energy      =      -0.0951885132941494 [Eh]
	 SCS Opposite-Spin Energy  =      -1.0353013393553239 [Eh]
	 SCS Correlation Energy    =      -1.1304898526494733 [Eh]
	 SCS Total Energy          =   -2790.2000812428286736 [Eh]
	-----------------------------------------------------------

  Dipole Moment: [D]
     X:     1.5421      Y:     1.4976      Z:     0.9074     Total:     2.3333

*** Psi4 exiting successfully. Buy a developer a beer!
