                               Psi4 1.4a3.dev225

  ==> Input File <==

--------------------------------------------------------------------------
#psi4
#
memory 32 gb

molecule  {
0 1
 Br       -1.6633780    -0.0273310    -0.0496210
  F        2.9439380    -0.7700360    -0.2693270
  C        1.1074600     0.7335270    -0.1744240
  C        0.2358067    -0.3484791     0.4357972
  C        2.5575550     0.4947520     0.1939200
  H        1.0042740     0.7310640    -1.2634220
  H        0.8026450     1.7231540     0.1832310
  H        0.4673990    -1.3258550     0.0471260
  H        0.2514770    -0.3395600     1.5153880
  H        3.2131650     1.2393390    -0.2675220
  H        2.7068340     0.5114440     1.2788360
units angstrom
no_reorient  #important for SAPT in psi4, default
symmetry c1  #important for SAPT in psi4, default
}

set PROPERTIES_ORIGIN ["COM"]
properties('MP2/aug-cc-pvtz', properties = ['dipole'])
--------------------------------------------------------------------------

    Molecular point group: c1
  Charge       = 0
  Multiplicity = 1
  Basis Set: AUG-CC-PVTZ
    Blend: AUG-CC-PVTZ
  Basis Set: (AUG-CC-PVTZ AUX)
    Blend: AUG-CC-PVTZ-JKFIT

    Orbital Energies [Eh]
    ---------------------

    Doubly Occupied:

       1A   -490.010141     2A    -65.149975     3A    -58.505236
       4A    -58.503916     5A    -58.503911     6A    -26.287956
       7A    -11.325216     8A    -11.298560     9A    -11.254610
      10A     -9.822558    11A     -7.433816    12A     -7.427550
      13A     -7.427512    14A     -3.177275    15A     -3.174079
      16A     -3.174055    17A     -3.165940    18A     -3.165939
      19A     -1.594712    20A     -1.109780    21A     -1.017882
      22A     -0.913868    23A     -0.834724    24A     -0.715916
      25A     -0.708974    26A     -0.671569    27A     -0.647395
      28A     -0.582988    29A     -0.553168    30A     -0.540961
      31A     -0.514609    32A     -0.472271    33A     -0.401685
      34A     -0.400864

  @DF-RHF Final Energy: -2789.08066844103996

   => Energetics <=

    Nuclear Repulsion Energy =            314.4272154277336426
    One-Electron Energy =               -4506.0365469363723605
    Two-Electron Energy =                1402.5286630675991546
    Total Energy =                      -2789.0806684410399612
  Basis Set: (AUG-CC-PVTZ AUX)
    Blend: AUG-CC-PVTZ-RI
    Molecular point group: c1

    Geometry (in Angstrom), charge = 0, multiplicity = 1:

       Center              X                  Y                   Z               Mass
    ------------   -----------------  -----------------  -----------------  -----------------
         BR          -1.520346886693    -0.001114812820    -0.034874699821    78.918337600000
         F            3.086969113307    -0.743819812820    -0.254580699821    18.998403162730
         C            1.250491113307     0.759743187180    -0.159677699821    12.000000000000
         C            0.378837813307    -0.322262912820     0.450543500179    12.000000000000
         C            2.700586113307     0.520968187180     0.208666300179    12.000000000000
         H            1.147305113307     0.757280187180    -1.248675699821     1.007825032230
         H            0.945676113307     1.749370187180     0.197977300179     1.007825032230
         H            0.610430113307    -1.299638812820     0.061872300179     1.007825032230
         H            0.394508113307    -0.313343812820     1.530134300179     1.007825032230
         H            3.356196113307     1.265555187180    -0.252775699821     1.007825032230
         H            2.849865113307     0.537660187180     1.293582300179     1.007825032230

  Basis Set: AUG-CC-PVTZ
    Blend: AUG-CC-PVTZ
  Basis Set: (AUG-CC-PVTZ AUX)
    Blend: AUG-CC-PVTZ-JKFIT
	 Reference Energy          =   -2789.0806684410399612 [Eh]
	 Singles Energy            =      -0.0000000000000000 [Eh]
	 Same-Spin Energy          =      -0.2843653925312156 [Eh]
	 Opposite-Spin Energy      =      -0.8613973088402413 [Eh]
	 Correlation Energy        =      -1.1457627013714569 [Eh]
	 Total Energy              =   -2790.2264311424114567 [Eh]

	 ================> DF-SCS-MP2 Energies <==================
	-----------------------------------------------------------
	 SCS Same-Spin Scale       =       0.3333333333333333 [-]
	 SCS Opposite-Spin Scale   =       1.2000000000000000 [-]
	 SCS Same-Spin Energy      =      -0.0947884641770719 [Eh]
	 SCS Opposite-Spin Energy  =      -1.0336767706082897 [Eh]
	 SCS Correlation Energy    =      -1.1284652347853614 [Eh]
	 SCS Total Energy          =   -2790.2091336758253419 [Eh]
	-----------------------------------------------------------

  Dipole Moment: [D]
     X:     1.4315      Y:     1.4654      Z:     0.9298     Total:     2.2496

*** Psi4 exiting successfully. Buy a developer a beer!
