                               Psi4 1.4a3.dev225

  ==> Input File <==

--------------------------------------------------------------------------
#psi4
#
memory 32 gb

molecule  {
0 1
 Br       -1.6633780    -0.0273310    -0.0496210
  F        2.9439380    -0.7700360    -0.2693270
  C        1.1074600     0.7335270    -0.1744240
  C        0.2262509    -0.3229484     0.4171128
  C        2.5575550     0.4947520     0.1939200
  H        1.0042740     0.7310640    -1.2634220
  H        0.8026450     1.7231540     0.1832310
  H        0.4673990    -1.3258550     0.0471260
  H        0.2514770    -0.3395600     1.5153880
  H        3.2131650     1.2393390    -0.2675220
  H        2.7068340     0.5114440     1.2788360
units angstrom
no_reorient  #important for SAPT in psi4, default
symmetry c1  #important for SAPT in psi4, default
}

set PROPERTIES_ORIGIN ["COM"]
properties('MP2/aug-cc-pvtz', properties = ['dipole'])
--------------------------------------------------------------------------

    Molecular point group: c1
  Charge       = 0
  Multiplicity = 1
  Basis Set: AUG-CC-PVTZ
    Blend: AUG-CC-PVTZ
  Basis Set: (AUG-CC-PVTZ AUX)
    Blend: AUG-CC-PVTZ-JKFIT

    Orbital Energies [Eh]
    ---------------------

    Doubly Occupied:

       1A   -490.011665     2A    -65.151542     3A    -58.506803
       4A    -58.505480     5A    -58.505472     6A    -26.287645
       7A    -11.325415     8A    -11.298631     9A    -11.253013
      10A     -9.824209    11A     -7.435523    12A     -7.429195
      13A     -7.429138    14A     -3.179012    15A     -3.175763
      16A     -3.175723    17A     -3.167547    18A     -3.167546
      19A     -1.594377    20A     -1.112696    21A     -1.019764
      22A     -0.914535    23A     -0.830796    24A     -0.715416
      25A     -0.708503    26A     -0.672443    27A     -0.642537
      28A     -0.583564    29A     -0.555478    30A     -0.536761
      31A     -0.513915    32A     -0.475324    33A     -0.402690
      34A     -0.401219

  @DF-RHF Final Energy: -2789.08031194370278

   => Energetics <=

    Nuclear Repulsion Energy =            315.0008608652224211
    One-Electron Energy =               -4507.1436716213302134
    Two-Electron Energy =                1403.0624988124050105
    Total Energy =                      -2789.0803119437027817
  Basis Set: (AUG-CC-PVTZ AUX)
    Blend: AUG-CC-PVTZ-RI
    Molecular point group: c1

    Geometry (in Angstrom), charge = 0, multiplicity = 1:

       Center              X                  Y                   Z               Mass
    ------------   -----------------  -----------------  -----------------  -----------------
         BR          -1.519527605640    -0.003303726230    -0.033272764359    78.918337600000
         F            3.087788394360    -0.746008726230    -0.252978764359    18.998403162730
         C            1.251310394360     0.757554273770    -0.158075764359    12.000000000000
         C            0.370101294360    -0.298921126230     0.433461035641    12.000000000000
         C            2.701405394360     0.518779273770     0.210268235641    12.000000000000
         H            1.148124394360     0.755091273770    -1.247073764359     1.007825032230
         H            0.946495394360     1.747181273770     0.199579235641     1.007825032230
         H            0.611249394360    -1.301827726230     0.063474235641     1.007825032230
         H            0.395327394360    -0.315532726230     1.531736235641     1.007825032230
         H            3.357015394360     1.263366273770    -0.251173764359     1.007825032230
         H            2.850684394360     0.535471273770     1.295184235641     1.007825032230

  Basis Set: AUG-CC-PVTZ
    Blend: AUG-CC-PVTZ
  Basis Set: (AUG-CC-PVTZ AUX)
    Blend: AUG-CC-PVTZ-JKFIT
	 Reference Energy          =   -2789.0803119437027817 [Eh]
	 Singles Energy            =      -0.0000000000000000 [Eh]
	 Same-Spin Energy          =      -0.2847209056183695 [Eh]
	 Opposite-Spin Energy      =      -0.8618035044527417 [Eh]
	 Correlation Energy        =      -1.1465244100711112 [Eh]
	 Total Energy              =   -2790.2268363537737059 [Eh]

	 ================> DF-SCS-MP2 Energies <==================
	-----------------------------------------------------------
	 SCS Same-Spin Scale       =       0.3333333333333333 [-]
	 SCS Opposite-Spin Scale   =       1.2000000000000000 [-]
	 SCS Same-Spin Energy      =      -0.0949069685394565 [Eh]
	 SCS Opposite-Spin Energy  =      -1.0341642053432900 [Eh]
	 SCS Correlation Energy    =      -1.1290711738827466 [Eh]
	 SCS Total Energy          =   -2790.2093831175857304 [Eh]
	-----------------------------------------------------------

  Dipole Moment: [D]
     X:     1.3872      Y:     1.4708      Z:     0.9159     Total:     2.2195

*** Psi4 exiting successfully. Buy a developer a beer!
