                               Psi4 1.4a3.dev225

  ==> Input File <==

--------------------------------------------------------------------------
#psi4
#
memory 32 gb

molecule  {
0 1
 Br       -1.6633780    -0.0273310    -0.0496210
  F        2.8074580    -0.7842475    -0.3211402
  C        1.1074600     0.7335270    -0.1744240
  C        0.2144820    -0.3370580     0.4250130
  C        2.5575550     0.4947520     0.1939200
  H        1.0042740     0.7310640    -1.2634220
  H        0.8026450     1.7231540     0.1832310
  H        0.4673990    -1.3258550     0.0471260
  H        0.2514770    -0.3395600     1.5153880
  H        3.2131650     1.2393390    -0.2675220
  H        2.7068340     0.5114440     1.2788360
units angstrom
no_reorient  #important for SAPT in psi4, default
symmetry c1  #important for SAPT in psi4, default
}

set PROPERTIES_ORIGIN ["COM"]
properties('MP2/aug-cc-pvtz', properties = ['dipole'])
--------------------------------------------------------------------------

    Molecular point group: c1
  Charge       = 0
  Multiplicity = 1
  Basis Set: AUG-CC-PVTZ
    Blend: AUG-CC-PVTZ
  Basis Set: (AUG-CC-PVTZ AUX)
    Blend: AUG-CC-PVTZ-JKFIT

    Orbital Energies [Eh]
    ---------------------

    Doubly Occupied:

       1A   -490.010657     2A    -65.150553     3A    -58.505812
       4A    -58.504492     5A    -58.504485     6A    -26.288069
       7A    -11.325863     8A    -11.295435     9A    -11.250171
      10A     -9.823252    11A     -7.434581    12A     -7.428241
      13A     -7.428189    14A     -3.178079    15A     -3.174812
      16A     -3.174773    17A     -3.166591    18A     -3.166590
      19A     -1.596214    20A     -1.107650    21A     -1.019628
      22A     -0.913096    23A     -0.829386    24A     -0.718683
      25A     -0.709854    26A     -0.671302    27A     -0.641839
      28A     -0.579074    29A     -0.551146    30A     -0.534056
      31A     -0.515426    32A     -0.476272    33A     -0.401061
      34A     -0.400110

  @DF-RHF Final Energy: -2789.07763060988827

   => Energetics <=

    Nuclear Repulsion Energy =            317.0336361827691007
    One-Electron Energy =               -4511.2716467049158382
    Two-Electron Energy =                1405.1603799122583496
    Total Energy =                      -2789.0776306098878194
  Basis Set: (AUG-CC-PVTZ AUX)
    Blend: AUG-CC-PVTZ-RI
    Molecular point group: c1

    Geometry (in Angstrom), charge = 0, multiplicity = 1:

       Center              X                  Y                   Z               Mass
    ------------   -----------------  -----------------  -----------------  -----------------
         BR          -1.499993047463    -0.000164976433    -0.026917075560    78.918337600000
         F            2.970842952537    -0.757081476433    -0.298436275560    18.998403162730
         C            1.270844952537     0.760693023567    -0.151720075560    12.000000000000
         C            0.377866952537    -0.309891976433     0.447716924440    12.000000000000
         C            2.720939952537     0.521918023567     0.216623924440    12.000000000000
         H            1.167658952537     0.758230023567    -1.240718075560     1.007825032230
         H            0.966029952537     1.750320023567     0.205934924440     1.007825032230
         H            0.630783952537    -1.298688976433     0.069829924440     1.007825032230
         H            0.414861952537    -0.312393976433     1.538091924440     1.007825032230
         H            3.376549952537     1.266505023567    -0.244818075560     1.007825032230
         H            2.870218952537     0.538610023567     1.301539924440     1.007825032230

  Basis Set: AUG-CC-PVTZ
    Blend: AUG-CC-PVTZ
  Basis Set: (AUG-CC-PVTZ AUX)
    Blend: AUG-CC-PVTZ-JKFIT
	 Reference Energy          =   -2789.0776306098882742 [Eh]
	 Singles Energy            =      -0.0000000000000000 [Eh]
	 Same-Spin Energy          =      -0.2848647612319292 [Eh]
	 Opposite-Spin Energy      =      -0.8620859838734007 [Eh]
	 Correlation Energy        =      -1.1469507451053298 [Eh]
	 Total Energy              =   -2790.2245813549934610 [Eh]

	 ================> DF-SCS-MP2 Energies <==================
	-----------------------------------------------------------
	 SCS Same-Spin Scale       =       0.3333333333333333 [-]
	 SCS Opposite-Spin Scale   =       1.2000000000000000 [-]
	 SCS Same-Spin Energy      =      -0.0949549204106430 [Eh]
	 SCS Opposite-Spin Energy  =      -1.0345031806480809 [Eh]
	 SCS Correlation Energy    =      -1.1294581010587239 [Eh]
	 SCS Total Energy          =   -2790.2070887109471187 [Eh]
	-----------------------------------------------------------

  Dipole Moment: [D]
     X:     1.6102      Y:     1.4610      Z:     0.9802     Total:     2.3849

*** Psi4 exiting successfully. Buy a developer a beer!
