                               Psi4 1.4a3.dev225

  ==> Input File <==

--------------------------------------------------------------------------
#psi4
#
memory 32 gb

molecule  {
0 1
 Br       -1.6633780    -0.0273310    -0.0496210
  F        2.9439380    -0.7700360    -0.2693270
  C        1.1074600     0.7335270    -0.1744240
  C        0.0924677    -0.2618118     0.3565920
  C        2.5575550     0.4947520     0.1939200
  H        1.0042740     0.7310640    -1.2634220
  H        0.8026450     1.7231540     0.1832310
  H        0.4673990    -1.3258550     0.0471260
  H        0.2514770    -0.3395600     1.5153880
  H        3.2131650     1.2393390    -0.2675220
  H        2.7068340     0.5114440     1.2788360
units angstrom
no_reorient  #important for SAPT in psi4, default
symmetry c1  #important for SAPT in psi4, default
}

set PROPERTIES_ORIGIN ["COM"]
properties('MP2/aug-cc-pvtz', properties = ['dipole'])
--------------------------------------------------------------------------

    Molecular point group: c1
  Charge       = 0
  Multiplicity = 1
  Basis Set: AUG-CC-PVTZ
    Blend: AUG-CC-PVTZ
  Basis Set: (AUG-CC-PVTZ AUX)
    Blend: AUG-CC-PVTZ-JKFIT

    Orbital Energies [Eh]
    ---------------------

    Doubly Occupied:

       1A   -490.022486     2A    -65.162999     3A    -58.518199
       4A    -58.516910     5A    -58.516889     6A    -26.284337
       7A    -11.324347     8A    -11.297873     9A    -11.250117
      10A     -9.836772    11A     -7.448612    12A     -7.441722
      13A     -7.441611    14A     -3.192340    15A     -3.188522
      16A     -3.188443    17A     -3.179868    18A     -3.179865
      19A     -1.590907    20A     -1.118937    21A     -1.036458
      22A     -0.910085    23A     -0.812497    24A     -0.710187
      25A     -0.704776    26A     -0.670002    27A     -0.624195
      28A     -0.571524    29A     -0.565974    30A     -0.523596
      31A     -0.509130    32A     -0.498257    33A     -0.405750
      34A     -0.397989

  @DF-RHF Final Energy: -2789.05977349456907

   => Energetics <=

    Nuclear Repulsion Energy =            318.4010854399541586
    One-Electron Energy =               -4513.6373646250212914
    Two-Electron Energy =                1406.1765056904982885
    Total Energy =                      -2789.0597734945690718
  Basis Set: (AUG-CC-PVTZ AUX)
    Blend: AUG-CC-PVTZ-RI
    Molecular point group: c1

    Geometry (in Angstrom), charge = 0, multiplicity = 1:

       Center              X                  Y                   Z               Mass
    ------------   -----------------  -----------------  -----------------  -----------------
         BR          -1.508057499436    -0.008545365651    -0.028083921488    78.918337600000
         F            3.099258500564    -0.751250365651    -0.247789921488    18.998403162730
         C            1.262780500564     0.752312634349    -0.152886921488    12.000000000000
         C            0.247788200564    -0.243026165651     0.378129078512    12.000000000000
         C            2.712875500564     0.513537634349     0.215457078512    12.000000000000
         H            1.159594500564     0.749849634349    -1.241884921488     1.007825032230
         H            0.957965500564     1.741939634349     0.204768078512     1.007825032230
         H            0.622719500564    -1.307069365651     0.068663078512     1.007825032230
         H            0.406797500564    -0.320774365651     1.536925078512     1.007825032230
         H            3.368485500564     1.258124634349    -0.245984921488     1.007825032230
         H            2.862154500564     0.530229634349     1.300373078512     1.007825032230

  Basis Set: AUG-CC-PVTZ
    Blend: AUG-CC-PVTZ
  Basis Set: (AUG-CC-PVTZ AUX)
    Blend: AUG-CC-PVTZ-JKFIT
	 Reference Energy          =   -2789.0597734945690718 [Eh]
	 Singles Energy            =      -0.0000000000000000 [Eh]
	 Same-Spin Energy          =      -0.2866300124431344 [Eh]
	 Opposite-Spin Energy      =      -0.8647093380406454 [Eh]
	 Correlation Energy        =      -1.1513393504837799 [Eh]
	 Total Energy              =   -2790.2111128450528668 [Eh]

	 ================> DF-SCS-MP2 Energies <==================
	-----------------------------------------------------------
	 SCS Same-Spin Scale       =       0.3333333333333333 [-]
	 SCS Opposite-Spin Scale   =       1.2000000000000000 [-]
	 SCS Same-Spin Energy      =      -0.0955433374810448 [Eh]
	 SCS Opposite-Spin Energy  =      -1.0376512056487746 [Eh]
	 SCS Correlation Energy    =      -1.1331945431298194 [Eh]
	 SCS Total Energy          =   -2790.1929680376988472 [Eh]
	-----------------------------------------------------------

  Dipole Moment: [D]
     X:     0.9373      Y:     1.4775      Z:     0.8344     Total:     1.9385

*** Psi4 exiting successfully. Buy a developer a beer!
