                               Psi4 1.4a3.dev225

  ==> Input File <==

--------------------------------------------------------------------------
#psi4
#
memory 32 gb

molecule  {
0 1
 Br       -1.6633780    -0.0273310    -0.0496210
  F        2.9439380    -0.7700360    -0.2693270
  C        1.1074600     0.7335270    -0.1744240
  C        0.2144820    -0.3370580     0.4250130
  C        2.6127023     0.3142327     0.1278022
  H        1.0042740     0.7310640    -1.2634220
  H        0.8026450     1.7231540     0.1832310
  H        0.4673990    -1.3258550     0.0471260
  H        0.2514770    -0.3395600     1.5153880
  H        3.2131650     1.2393390    -0.2675220
  H        2.7068340     0.5114440     1.2788360
units angstrom
no_reorient  #important for SAPT in psi4, default
symmetry c1  #important for SAPT in psi4, default
}

set PROPERTIES_ORIGIN ["COM"]
properties('MP2/aug-cc-pvtz', properties = ['dipole'])
--------------------------------------------------------------------------

    Molecular point group: c1
  Charge       = 0
  Multiplicity = 1
  Basis Set: AUG-CC-PVTZ
    Blend: AUG-CC-PVTZ
  Basis Set: (AUG-CC-PVTZ AUX)
    Blend: AUG-CC-PVTZ-JKFIT

    Orbital Energies [Eh]
    ---------------------

    Doubly Occupied:

       1A   -490.008637     2A    -65.148566     3A    -58.503812
       4A    -58.502507     5A    -58.502503     6A    -26.338113
       7A    -11.335848     8A    -11.294261     9A    -11.248438
      10A     -9.821296    11A     -7.432587    12A     -7.426304
      13A     -7.426269    14A     -3.176058    15A     -3.172822
      16A     -3.172793    17A     -3.164698    18A     -3.164697
      19A     -1.722146    20A     -1.099431    21A     -1.007619
      22A     -0.921883    23A     -0.841687    24A     -0.780065
      25A     -0.774247    26A     -0.731547    27A     -0.648899
      28A     -0.570363    29A     -0.539589    30A     -0.529151
      31A     -0.470710    32A     -0.450940    33A     -0.399245
      34A     -0.395711

  @DF-RHF Final Energy: -2789.03916073583696

   => Energetics <=

    Nuclear Repulsion Energy =            317.0525967910194822
    One-Electron Energy =               -4510.7366323485939574
    Two-Electron Energy =                1404.6448748217374032
    Total Energy =                      -2789.0391607358369583
  Basis Set: (AUG-CC-PVTZ AUX)
    Blend: AUG-CC-PVTZ-RI
    Molecular point group: c1

    Geometry (in Angstrom), charge = 0, multiplicity = 1:

       Center              X                  Y                   Z               Mass
    ------------   -----------------  -----------------  -----------------  -----------------
         BR          -1.523246718765     0.013383078641    -0.028281389844    78.918337600000
         F            3.084069281235    -0.729321921359    -0.247987389844    18.998403162730
         C            1.247591281235     0.774241078641    -0.153084389844    12.000000000000
         C            0.354613281235    -0.296343921359     0.446352610156    12.000000000000
         C            2.752833581235     0.354946778641     0.149141810156    12.000000000000
         H            1.144405281235     0.771778078641    -1.242082389844     1.007825032230
         H            0.942776281235     1.763868078641     0.204570610156     1.007825032230
         H            0.607530281235    -1.285140921359     0.068465610156     1.007825032230
         H            0.391608281235    -0.298845921359     1.536727610156     1.007825032230
         H            3.353296281235     1.280053078641    -0.246182389844     1.007825032230
         H            2.846965281235     0.552158078641     1.300175610156     1.007825032230

  Basis Set: AUG-CC-PVTZ
    Blend: AUG-CC-PVTZ
  Basis Set: (AUG-CC-PVTZ AUX)
    Blend: AUG-CC-PVTZ-JKFIT
	 Reference Energy          =   -2789.0391607358369583 [Eh]
	 Singles Energy            =      -0.0000000000000000 [Eh]
	 Same-Spin Energy          =      -0.2847324286343007 [Eh]
	 Opposite-Spin Energy      =      -0.8594125279207108 [Eh]
	 Correlation Energy        =      -1.1441449565550115 [Eh]
	 Total Energy              =   -2790.1833056923919685 [Eh]

	 ================> DF-SCS-MP2 Energies <==================
	-----------------------------------------------------------
	 SCS Same-Spin Scale       =       0.3333333333333333 [-]
	 SCS Opposite-Spin Scale   =       1.2000000000000000 [-]
	 SCS Same-Spin Energy      =      -0.0949108095447669 [Eh]
	 SCS Opposite-Spin Energy  =      -1.0312950335048530 [Eh]
	 SCS Correlation Energy    =      -1.1262058430496198 [Eh]
	 SCS Total Energy          =   -2790.1653665788867329 [Eh]
	-----------------------------------------------------------

  Dipole Moment: [D]
     X:     1.7810      Y:     0.6128      Z:     0.5813     Total:     1.9711

*** Psi4 exiting successfully. Buy a developer a beer!
