                               Psi4 1.4a3.dev225

  ==> Input File <==

--------------------------------------------------------------------------
#psi4
#
memory 32 gb

molecule  {
0 1
 Br       -1.6633780    -0.0273310    -0.0496210
  F        2.9439380    -0.7700360    -0.2693270
  C        1.1074600     0.7335270    -0.1744240
  C        0.2144820    -0.3370580     0.4250130
  C        2.3661334     0.5262718     0.1452963
  H        1.0042740     0.7310640    -1.2634220
  H        0.8026450     1.7231540     0.1832310
  H        0.4673990    -1.3258550     0.0471260
  H        0.2514770    -0.3395600     1.5153880
  H        3.2131650     1.2393390    -0.2675220
  H        2.7068340     0.5114440     1.2788360
units angstrom
no_reorient  #important for SAPT in psi4, default
symmetry c1  #important for SAPT in psi4, default
}

set PROPERTIES_ORIGIN ["COM"]
properties('MP2/aug-cc-pvtz', properties = ['dipole'])
--------------------------------------------------------------------------

    Molecular point group: c1
  Charge       = 0
  Multiplicity = 1
  Basis Set: AUG-CC-PVTZ
    Blend: AUG-CC-PVTZ
  Basis Set: (AUG-CC-PVTZ AUX)
    Blend: AUG-CC-PVTZ-JKFIT

    Orbital Energies [Eh]
    ---------------------

    Doubly Occupied:

       1A   -490.016208     2A    -65.156096     3A    -58.511363
       4A    -58.510028     5A    -58.510023     6A    -26.268867
       7A    -11.333553     8A    -11.303367     9A    -11.250536
      10A     -9.828788    11A     -7.440146    12A     -7.433750
      13A     -7.433707    14A     -3.183660    15A     -3.180359
      16A     -3.180335    17A     -3.172077    18A     -3.172076
      19A     -1.558595    20A     -1.152013    21A     -1.041827
      22A     -0.905557    23A     -0.829102    24A     -0.711711
      25A     -0.692320    26A     -0.665741    27A     -0.630311
      28A     -0.588269    29A     -0.575589    30A     -0.537170
      31A     -0.498302    32A     -0.472051    33A     -0.406827
      34A     -0.405706

  @DF-RHF Final Energy: -2789.02792934512900

   => Energetics <=

    Nuclear Repulsion Energy =            317.4697479512219616
    One-Electron Energy =               -4511.8832957802824239
    Two-Electron Energy =                1405.3856184839319212
    Total Energy =                      -2789.0279293451289959
  Basis Set: (AUG-CC-PVTZ AUX)
    Blend: AUG-CC-PVTZ-RI
    Molecular point group: c1

    Geometry (in Angstrom), charge = 0, multiplicity = 1:

       Center              X                  Y                   Z               Mass
    ------------   -----------------  -----------------  -----------------  -----------------
         BR          -1.502106758967    -0.004796416217    -0.029781273125    78.918337600000
         F            3.105209241033    -0.747501416217    -0.249487273125    18.998403162730
         C            1.268731241033     0.756061583783    -0.154584273125    12.000000000000
         C            0.375753241033    -0.314523416217     0.444852726875    12.000000000000
         C            2.527404641033     0.548806383783     0.165136026875    12.000000000000
         H            1.165545241033     0.753598583783    -1.243582273125     1.007825032230
         H            0.963916241033     1.745688583783     0.203070726875     1.007825032230
         H            0.628670241033    -1.303320416217     0.066965726875     1.007825032230
         H            0.412748241033    -0.317025416217     1.535227726875     1.007825032230
         H            3.374436241033     1.261873583783    -0.247682273125     1.007825032230
         H            2.868105241033     0.533978583783     1.298675726875     1.007825032230

  Basis Set: AUG-CC-PVTZ
    Blend: AUG-CC-PVTZ
  Basis Set: (AUG-CC-PVTZ AUX)
    Blend: AUG-CC-PVTZ-JKFIT
	 Reference Energy          =   -2789.0279293451289959 [Eh]
	 Singles Energy            =      -0.0000000000000000 [Eh]
	 Same-Spin Energy          =      -0.2881108671003149 [Eh]
	 Opposite-Spin Energy      =      -0.8673806703703493 [Eh]
	 Correlation Energy        =      -1.1554915374706640 [Eh]
	 Total Energy              =   -2790.1834208825998758 [Eh]

	 ================> DF-SCS-MP2 Energies <==================
	-----------------------------------------------------------
	 SCS Same-Spin Scale       =       0.3333333333333333 [-]
	 SCS Opposite-Spin Scale   =       1.2000000000000000 [-]
	 SCS Same-Spin Energy      =      -0.0960369557001050 [Eh]
	 SCS Opposite-Spin Energy  =      -1.0408568044444191 [Eh]
	 SCS Correlation Energy    =      -1.1368937601445239 [Eh]
	 SCS Total Energy          =   -2790.1648231052736264 [Eh]
	-----------------------------------------------------------

  Dipole Moment: [D]
     X:     0.7499      Y:     1.7135      Z:     0.8705     Total:     2.0631

*** Psi4 exiting successfully. Buy a developer a beer!
