                               Psi4 1.4a3.dev225

  ==> Input File <==

--------------------------------------------------------------------------
#psi4
#
memory 32 gb

molecule  {
0 1
 Br       -1.6633780    -0.0273310    -0.0496210
  F        2.9663129    -0.7663137    -0.2601818
  C        1.1074600     0.7335270    -0.1744240
  C        0.2144820    -0.3370580     0.4250130
  C        2.5575550     0.4947520     0.1939200
  H        1.0042740     0.7310640    -1.2634220
  H        0.8026450     1.7231540     0.1832310
  H        0.4673990    -1.3258550     0.0471260
  H        0.2514770    -0.3395600     1.5153880
  H        3.2131650     1.2393390    -0.2675220
  H        2.7068340     0.5114440     1.2788360
units angstrom
no_reorient  #important for SAPT in psi4, default
symmetry c1  #important for SAPT in psi4, default
}

set PROPERTIES_ORIGIN ["COM"]
properties('MP2/aug-cc-pvtz', properties = ['dipole'])
--------------------------------------------------------------------------

    Molecular point group: c1
  Charge       = 0
  Multiplicity = 1
  Basis Set: AUG-CC-PVTZ
    Blend: AUG-CC-PVTZ
  Basis Set: (AUG-CC-PVTZ AUX)
    Blend: AUG-CC-PVTZ-JKFIT

    Orbital Energies [Eh]
    ---------------------

    Doubly Occupied:

       1A   -490.012497     2A    -65.152391     3A    -58.507652
       4A    -58.506327     5A    -58.506320     6A    -26.287087
       7A    -11.324692     8A    -11.297994     9A    -11.254214
      10A     -9.825090    11A     -7.436427    12A     -7.430067
      13A     -7.430019    14A     -3.179930    15A     -3.176652
      16A     -3.176619    17A     -3.168411    18A     -3.168410
      19A     -1.593663    20A     -1.110285    21A     -1.020704
      22A     -0.913231    23A     -0.832134    24A     -0.714346
      25A     -0.707591    26A     -0.671284    27A     -0.643423
      28A     -0.580812    29A     -0.555057    30A     -0.538381
      31A     -0.512615    32A     -0.478078    33A     -0.402751
      34A     -0.402091

  @DF-RHF Final Energy: -2789.08098528905839

   => Energetics <=

    Nuclear Repulsion Energy =            314.6357167457991295
    One-Electron Energy =               -4506.3989191551463591
    Two-Electron Energy =                1402.6822171202891241
    Total Energy =                      -2789.0809852890579350
  Basis Set: (AUG-CC-PVTZ AUX)
    Blend: AUG-CC-PVTZ-RI
    Molecular point group: c1

    Geometry (in Angstrom), charge = 0, multiplicity = 1:

       Center              X                  Y                   Z               Mass
    ------------   -----------------  -----------------  -----------------  -----------------
         BR          -1.521555707136    -0.002599276074    -0.035191451947    78.918337600000
         F            3.108135192864    -0.741581976074    -0.245752251947    18.998403162730
         C            1.249282292864     0.758258723926    -0.159994451947    12.000000000000
         C            0.356304292864    -0.312326276074     0.439442548053    12.000000000000
         C            2.699377292864     0.519483723926     0.208349548053    12.000000000000
         H            1.146096292864     0.755795723926    -1.248992451947     1.007825032230
         H            0.944467292864     1.747885723926     0.197660548053     1.007825032230
         H            0.609221292864    -1.301123276074     0.061555548053     1.007825032230
         H            0.393299292864    -0.314828276074     1.529817548053     1.007825032230
         H            3.354987292864     1.264070723926    -0.253092451947     1.007825032230
         H            2.848656292864     0.536175723926     1.293265548053     1.007825032230

  Basis Set: AUG-CC-PVTZ
    Blend: AUG-CC-PVTZ
  Basis Set: (AUG-CC-PVTZ AUX)
    Blend: AUG-CC-PVTZ-JKFIT
	 Reference Energy          =   -2789.0809852890583898 [Eh]
	 Singles Energy            =      -0.0000000000000000 [Eh]
	 Same-Spin Energy          =      -0.2845630264540502 [Eh]
	 Opposite-Spin Energy      =      -0.8616718936046728 [Eh]
	 Correlation Energy        =      -1.1462349200587230 [Eh]
	 Total Energy              =   -2790.2272202091171494 [Eh]

	 ================> DF-SCS-MP2 Energies <==================
	-----------------------------------------------------------
	 SCS Same-Spin Scale       =       0.3333333333333333 [-]
	 SCS Opposite-Spin Scale   =       1.2000000000000000 [-]
	 SCS Same-Spin Energy      =      -0.0948543421513501 [Eh]
	 SCS Opposite-Spin Energy  =      -1.0340062723256074 [Eh]
	 SCS Correlation Energy    =      -1.1288606144769575 [Eh]
	 SCS Total Energy          =   -2790.2098459035355518 [Eh]
	-----------------------------------------------------------

  Dipole Moment: [D]
     X:     1.3116      Y:     1.4643      Z:     0.9048     Total:     2.1641

*** Psi4 exiting successfully. Buy a developer a beer!
