                               Psi4 1.4a3.dev225

  ==> Input File <==

--------------------------------------------------------------------------
#psi4
#
memory 32 gb

molecule  {
0 1
 Br       -1.6633780    -0.0273310    -0.0496210
  F        2.9439380    -0.7700360    -0.2693270
  C        1.1074600     0.7335270    -0.1744240
  C        0.2144820    -0.3370580     0.4250130
  C        2.5575550     0.4947520     0.1939200
  H        1.0042740     0.7310640    -1.2634220
  H        0.8026450     1.7231540     0.1832310
  H        0.4673990    -1.3258550     0.0471260
  H        0.2514770    -0.3395600     1.5153880
  H        3.3330042     1.3754423    -0.3518692
  H        2.7068340     0.5114440     1.2788360
units angstrom
no_reorient  #important for SAPT in psi4, default
symmetry c1  #important for SAPT in psi4, default
}

set PROPERTIES_ORIGIN ["COM"]
properties('MP2/aug-cc-pvtz', properties = ['dipole'])
--------------------------------------------------------------------------

    Molecular point group: c1
  Charge       = 0
  Multiplicity = 1
  Basis Set: AUG-CC-PVTZ
    Blend: AUG-CC-PVTZ
  Basis Set: (AUG-CC-PVTZ AUX)
    Blend: AUG-CC-PVTZ-JKFIT

    Orbital Energies [Eh]
    ---------------------

    Doubly Occupied:

       1A   -490.013654     2A    -65.153534     3A    -58.508801
       4A    -58.507467     5A    -58.507460     6A    -26.291973
       7A    -11.347207     8A    -11.299159     9A    -11.255744
      10A     -9.826222    11A     -7.437578    12A     -7.431183
      13A     -7.431134    14A     -3.181092    15A     -3.177798
      16A     -3.177762    17A     -3.169509    18A     -3.169508
      19A     -1.597516    20A     -1.110459    21A     -1.017542
      22A     -0.904420    23A     -0.831513    24A     -0.717676
      25A     -0.695814    26A     -0.670860    27A     -0.642155
      28A     -0.579928    29A     -0.552484    30A     -0.534773
      31A     -0.500657    32A     -0.474798    33A     -0.403637
      34A     -0.402806

  @DF-RHF Final Energy: -2789.05993954117639

   => Energetics <=

    Nuclear Repulsion Energy =            314.0319839228027945
    One-Electron Energy =               -4505.1362052956965272
    Two-Electron Energy =                1402.0442818317169440
    Total Energy =                      -2789.0599395411763908
  Basis Set: (AUG-CC-PVTZ AUX)
    Blend: AUG-CC-PVTZ-RI
    Molecular point group: c1

    Geometry (in Angstrom), charge = 0, multiplicity = 1:

       Center              X                  Y                   Z               Mass
    ------------   -----------------  -----------------  -----------------  -----------------
         BR          -1.519381497359    -0.003074046039    -0.033342748083    78.918337600000
         F            3.087934502641    -0.745779046039    -0.253048748083    18.998403162730
         C            1.251456502641     0.757783953961    -0.158145748083    12.000000000000
         C            0.358478502641    -0.312801046039     0.441291251917    12.000000000000
         C            2.701551502641     0.519008953961     0.210198251917    12.000000000000
         H            1.148270502641     0.755320953961    -1.247143748083     1.007825032230
         H            0.946641502641     1.747410953961     0.199509251917     1.007825032230
         H            0.611395502641    -1.301598046039     0.063404251917     1.007825032230
         H            0.395473502641    -0.315303046039     1.531666251917     1.007825032230
         H            3.477000702641     1.399699253961    -0.335590948083     1.007825032230
         H            2.850830502641     0.535700953961     1.295114251917     1.007825032230

  Basis Set: AUG-CC-PVTZ
    Blend: AUG-CC-PVTZ
  Basis Set: (AUG-CC-PVTZ AUX)
    Blend: AUG-CC-PVTZ-JKFIT
	 Reference Energy          =   -2789.0599395411763908 [Eh]
	 Singles Energy            =      -0.0000000000000000 [Eh]
	 Same-Spin Energy          =      -0.2849014762597756 [Eh]
	 Opposite-Spin Energy      =      -0.8637523964368761 [Eh]
	 Correlation Energy        =      -1.1486538726966518 [Eh]
	 Total Energy              =   -2790.2085934138731318 [Eh]

	 ================> DF-SCS-MP2 Energies <==================
	-----------------------------------------------------------
	 SCS Same-Spin Scale       =       0.3333333333333333 [-]
	 SCS Opposite-Spin Scale   =       1.2000000000000000 [-]
	 SCS Same-Spin Energy      =      -0.0949671587532585 [Eh]
	 SCS Opposite-Spin Energy  =      -1.0365028757242511 [Eh]
	 SCS Correlation Energy    =      -1.1314700344775097 [Eh]
	 SCS Total Energy          =   -2790.1914095756537790 [Eh]
	-----------------------------------------------------------

  Dipole Moment: [D]
     X:     1.2269      Y:     1.3397      Z:     0.9409     Total:     2.0458

*** Psi4 exiting successfully. Buy a developer a beer!
