                               Psi4 1.4a3.dev225

  ==> Input File <==

--------------------------------------------------------------------------
#psi4
#
memory 32 gb

molecule  {
0 1
 Br       -1.6633780    -0.0273310    -0.0496210
  F        2.9439380    -0.7700360    -0.2693270
  C        1.1074600     0.7335270    -0.1744240
  C        0.2144820    -0.3370580     0.4250130
  C        2.5851286     0.4044924     0.1608611
  H        1.0042740     0.7310640    -1.2634220
  H        0.8026450     1.7231540     0.1832310
  H        0.4673990    -1.3258550     0.0471260
  H        0.2514770    -0.3395600     1.5153880
  H        3.2131650     1.2393390    -0.2675220
  H        2.7068340     0.5114440     1.2788360
units angstrom
no_reorient  #important for SAPT in psi4, default
symmetry c1  #important for SAPT in psi4, default
}

set PROPERTIES_ORIGIN ["COM"]
properties('MP2/aug-cc-pvtz', properties = ['dipole'])
--------------------------------------------------------------------------

    Molecular point group: c1
  Charge       = 0
  Multiplicity = 1
  Basis Set: AUG-CC-PVTZ
    Blend: AUG-CC-PVTZ
  Basis Set: (AUG-CC-PVTZ AUX)
    Blend: AUG-CC-PVTZ-JKFIT

    Orbital Energies [Eh]
    ---------------------

    Doubly Occupied:

       1A   -490.010473     2A    -65.150383     3A    -58.505637
       4A    -58.504322     5A    -58.504317     6A    -26.311458
       7A    -11.327612     8A    -11.295861     9A    -11.250966
      10A     -9.823096    11A     -7.434411    12A     -7.428088
      13A     -7.428049    14A     -3.177898    15A     -3.174639
      16A     -3.174612    17A     -3.166458    18A     -3.166457
      19A     -1.650384    20A     -1.104338    21A     -1.013544
      22A     -0.913301    23A     -0.834095    24A     -0.743254
      25A     -0.735375    26A     -0.703136    27A     -0.647500
      28A     -0.575987    29A     -0.546005    30A     -0.535040
      31A     -0.494878    32A     -0.466827    33A     -0.400751
      34A     -0.399405

  @DF-RHF Final Energy: -2789.07326349749974

   => Energetics <=

    Nuclear Repulsion Energy =            315.9152947022176363
    One-Electron Energy =               -4508.7799965519943726
    Two-Electron Energy =                1403.7914383522770549
    Total Energy =                      -2789.0732634974997382
  Basis Set: (AUG-CC-PVTZ AUX)
    Blend: AUG-CC-PVTZ-RI
    Molecular point group: c1

    Geometry (in Angstrom), charge = 0, multiplicity = 1:

       Center              X                  Y                   Z               Mass
    ------------   -----------------  -----------------  -----------------  -----------------
         BR          -1.520882645642     0.005644525931    -0.031115744935    78.918337600000
         F            3.086433354358    -0.737060474069    -0.250821744935    18.998403162730
         C            1.249955354358     0.766502525931    -0.155918744935    12.000000000000
         C            0.356977354358    -0.304082474069     0.443518255065    12.000000000000
         C            2.727623954358     0.437467925931     0.179366355065    12.000000000000
         H            1.146769354358     0.764039525931    -1.244916744935     1.007825032230
         H            0.945140354358     1.756129525931     0.201736255065     1.007825032230
         H            0.609894354358    -1.292879474069     0.065631255065     1.007825032230
         H            0.393972354358    -0.306584474069     1.533893255065     1.007825032230
         H            3.355660354358     1.272314525931    -0.249016744935     1.007825032230
         H            2.849329354358     0.544419525931     1.297341255065     1.007825032230

  Basis Set: AUG-CC-PVTZ
    Blend: AUG-CC-PVTZ
  Basis Set: (AUG-CC-PVTZ AUX)
    Blend: AUG-CC-PVTZ-JKFIT
	 Reference Energy          =   -2789.0732634974997382 [Eh]
	 Singles Energy            =      -0.0000000000000000 [Eh]
	 Same-Spin Energy          =      -0.2844415502072054 [Eh]
	 Opposite-Spin Energy      =      -0.8601344781498266 [Eh]
	 Correlation Energy        =      -1.1445760283570321 [Eh]
	 Total Energy              =   -2790.2178395258565615 [Eh]

	 ================> DF-SCS-MP2 Energies <==================
	-----------------------------------------------------------
	 SCS Same-Spin Scale       =       0.3333333333333333 [-]
	 SCS Opposite-Spin Scale   =       1.2000000000000000 [-]
	 SCS Same-Spin Energy      =      -0.0948138500690685 [Eh]
	 SCS Opposite-Spin Energy  =      -1.0321613737797919 [Eh]
	 SCS Correlation Energy    =      -1.1269752238488604 [Eh]
	 SCS Total Energy          =   -2790.2002387213487964 [Eh]
	-----------------------------------------------------------

  Dipole Moment: [D]
     X:     1.5630      Y:     1.0722      Z:     0.7652     Total:     2.0440

*** Psi4 exiting successfully. Buy a developer a beer!
