                               Psi4 1.3.2 release

  ==> Input File <==

--------------------------------------------------------------------------
#psi4
#
memory 32 gb

molecule  {
-2 1
  O        2.8770000    -0.6176760    -0.6980330
  O       -2.2079270    -0.9616680     0.8025740
  O        2.2079310     0.9617400     0.8024790
  O       -2.8769990     0.6175240    -0.6981300
  C        0.5722689    -0.6297601     0.0118117
  C       -0.5469140     0.5337860    -0.1005900
  C        2.0084700    -0.0044810     0.0018080
  C       -2.0084780     0.0045020     0.0018680
  H        0.4732740    -1.1622260    -0.9983970
  H        0.3493020    -1.1927530     0.7554060
  H       -0.4732950     1.1622160    -0.9984660
  H       -0.3492490     1.1928820     0.7553450
units angstrom
no_reorient  #important for SAPT in psi4, default
symmetry c1  #important for SAPT in psi4, default
}

set PROPERTIES_ORIGIN ["COM"]
properties('MP2/aug-cc-pvtz', properties = ['dipole'])
--------------------------------------------------------------------------

    Molecular point group: c1
  Charge       = -2
  Multiplicity = 1
  Basis Set: AUG-CC-PVTZ
    Blend: AUG-CC-PVTZ
  Basis Set: (AUG-CC-PVTZ AUX)
    Blend: AUG-CC-PVTZ-JKFIT

    Orbital Energies [Eh]
    ---------------------

    Doubly Occupied:

       1A    -20.189137     2A    -20.187429     3A    -20.187327
       4A    -20.185465     5A    -11.030045     6A    -11.027355
       7A    -10.929490     8A    -10.923744     9A     -1.052034
      10A     -1.049995    11A     -0.952789    12A     -0.951311
      13A     -0.726171    14A     -0.591104    15A     -0.412919
      16A     -0.397359    17A     -0.336847    18A     -0.322091
      19A     -0.293193    20A     -0.289964    21A     -0.281688
      22A     -0.247997    23A     -0.229423    24A     -0.203219
      25A     -0.164438    26A     -0.110115    27A     -0.098568
      28A     -0.094953    29A     -0.088768    30A     -0.087160
      31A     -0.073650

  @DF-RHF Final Energy:  -453.37176953272655

   => Energetics <=

    Nuclear Repulsion Energy =            336.9953202379848562
    One-Electron Energy =               -1313.3026870795963532
    Two-Electron Energy =                 522.9355973088848941
    Total Energy =                       -453.3717695327266028
  Basis Set: (AUG-CC-PVTZ AUX)
    Blend: AUG-CC-PVTZ-RI
    Molecular point group: c1

    Geometry (in Angstrom), charge = -2, multiplicity = 1:

       Center              X                  Y                   Z               Mass
    ------------   -----------------  -----------------  -----------------  -----------------
         O            2.874377187219    -0.607740758745    -0.713807667280    15.994914619570
         O           -2.210549812781    -0.951732758745     0.786799332720    15.994914619570
         O            2.205308187219     0.971675241255     0.786704332720    15.994914619570
         O           -2.879621812781     0.627459241255    -0.713904667280    15.994914619570
         C            0.569646087219    -0.619824858745    -0.003962967280    12.000000000000
         C           -0.549536812781     0.543721241255    -0.116364667280    12.000000000000
         C            2.005847187219     0.005454241255    -0.013966667280    12.000000000000
         C           -2.011100812781     0.014437241255    -0.013906667280    12.000000000000
         H            0.470651187219    -1.152290758745    -1.014171667280     1.007825032230
         H            0.346679187219    -1.182817758745     0.739631332720     1.007825032230
         H           -0.475917812781     1.172151241255    -1.014240667280     1.007825032230
         H           -0.351871812781     1.202817241255     0.739570332720     1.007825032230

  Basis Set: AUG-CC-PVTZ
    Blend: AUG-CC-PVTZ
  Basis Set: (AUG-CC-PVTZ AUX)
    Blend: AUG-CC-PVTZ-JKFIT
	 Reference Energy          =    -453.3717695327265460 [Eh]
	 Singles Energy            =      -0.0000000000000000 [Eh]
	 Same-Spin Energy          =      -0.4504540084896766 [Eh]
	 Opposite-Spin Energy      =      -1.3282368916873817 [Eh]
	 Correlation Energy        =      -1.7786909001770583 [Eh]
	 Total Energy              =    -455.1504604329036283 [Eh]

	 ================> DF-SCS-MP2 Energies <==================
	-----------------------------------------------------------
	 SCS Same-Spin Scale       =       0.3333333333333333 [-]
	 SCS Opposite-Spin Scale   =       1.2000000000000000 [-]
	 SCS Same-Spin Energy      =      -0.1501513361632255 [Eh]
	 SCS Opposite-Spin Energy  =      -1.5938842700248579 [Eh]
	 SCS Correlation Energy    =      -1.7440356061880835 [Eh]
	 SCS Total Energy          =    -455.1158051389146522 [Eh]
	-----------------------------------------------------------

  Dipole Moment: [D]
     X:     0.1265      Y:    -0.1047      Z:     0.0002     Total:     0.1642

*** Psi4 exiting successfully. Buy a developer a beer!
