                               Psi4 1.3.2 release

  ==> Input File <==

--------------------------------------------------------------------------
#psi4
#
memory 32 gb

molecule  {
-2 1
  O        2.8770000    -0.6176760    -0.6980330
  O       -2.2079270    -0.9616680     0.8025740
  O        2.2079310     0.9617400     0.8024790
  O       -2.8769990     0.6175240    -0.6981300
  C        0.5891748    -0.6937868     0.0867434
  C       -0.5469140     0.5337860    -0.1005900
  C        2.0084700    -0.0044810     0.0018080
  C       -2.0084780     0.0045020     0.0018680
  H        0.4732740    -1.1622260    -0.9983970
  H        0.3493020    -1.1927530     0.7554060
  H       -0.4732950     1.1622160    -0.9984660
  H       -0.3492490     1.1928820     0.7553450
units angstrom
no_reorient  #important for SAPT in psi4, default
symmetry c1  #important for SAPT in psi4, default
}

set PROPERTIES_ORIGIN ["COM"]
properties('MP2/aug-cc-pvtz', properties = ['dipole'])
--------------------------------------------------------------------------

    Molecular point group: c1
  Charge       = -2
  Multiplicity = 1
  Basis Set: AUG-CC-PVTZ
    Blend: AUG-CC-PVTZ
  Basis Set: (AUG-CC-PVTZ AUX)
    Blend: AUG-CC-PVTZ-JKFIT

    Orbital Energies [Eh]
    ---------------------

    Doubly Occupied:

       1A    -20.190286     2A    -20.188449     3A    -20.186903
       4A    -20.184761     5A    -11.033304     6A    -11.026611
       7A    -10.932582     8A    -10.925337     9A     -1.052685
      10A     -1.049493    11A     -0.953776    12A     -0.950743
      13A     -0.722117    14A     -0.598175    15A     -0.427606
      16A     -0.395632    17A     -0.341477    18A     -0.317396
      19A     -0.294525    20A     -0.287705    21A     -0.283511
      22A     -0.249060    23A     -0.225714    24A     -0.209285
      25A     -0.150235    26A     -0.109925    27A     -0.097140
      28A     -0.094158    29A     -0.088779    30A     -0.086552
      31A     -0.071517

  @DF-RHF Final Energy:  -453.31823427536727

   => Energetics <=

    Nuclear Repulsion Energy =            336.3852158570348934
    One-Electron Energy =               -1311.9560212552189569
    Two-Electron Energy =                 522.2525711228169030
    Total Energy =                       -453.3182342753672174
  Basis Set: (AUG-CC-PVTZ AUX)
    Blend: AUG-CC-PVTZ-RI
    Molecular point group: c1

    Geometry (in Angstrom), charge = -2, multiplicity = 1:

       Center              X                  Y                   Z               Mass
    ------------   -----------------  -----------------  -----------------  -----------------
         O            2.872628466215    -0.601117932684    -0.721558490226    15.994914619570
         O           -2.212298533785    -0.945109932684     0.779048509774    15.994914619570
         O            2.203559466215     0.978298067316     0.778953509774    15.994914619570
         O           -2.881370533785     0.634082067316    -0.721655490226    15.994914619570
         C            0.584803266215    -0.677228732684     0.063217909774    12.000000000000
         C           -0.551285533785     0.550344067316    -0.124115490226    12.000000000000
         C            2.004098466215     0.012077067316    -0.021717490226    12.000000000000
         C           -2.012849533785     0.021060067316    -0.021657490226    12.000000000000
         H            0.468902466215    -1.145667932684    -1.021922490226     1.007825032230
         H            0.344930466215    -1.176194932684     0.731880509774     1.007825032230
         H           -0.477666533785     1.178774067316    -1.021991490226     1.007825032230
         H           -0.353620533785     1.209440067316     0.731819509774     1.007825032230

  Basis Set: AUG-CC-PVTZ
    Blend: AUG-CC-PVTZ
  Basis Set: (AUG-CC-PVTZ AUX)
    Blend: AUG-CC-PVTZ-JKFIT
	 Reference Energy          =    -453.3182342753672742 [Eh]
	 Singles Energy            =      -0.0000000000000000 [Eh]
	 Same-Spin Energy          =      -0.4509306785991939 [Eh]
	 Opposite-Spin Energy      =      -1.3303298406529185 [Eh]
	 Correlation Energy        =      -1.7812605192521125 [Eh]
	 Total Energy              =    -455.0994947946193747 [Eh]

	 ================> DF-SCS-MP2 Energies <==================
	-----------------------------------------------------------
	 SCS Same-Spin Scale       =       0.3333333333333333 [-]
	 SCS Opposite-Spin Scale   =       1.2000000000000000 [-]
	 SCS Same-Spin Energy      =      -0.1503102261997313 [Eh]
	 SCS Opposite-Spin Energy  =      -1.5963958087835022 [Eh]
	 SCS Correlation Energy    =      -1.7467060349832335 [Eh]
	 SCS Total Energy          =    -455.0649403103504937 [Eh]
	-----------------------------------------------------------

  Dipole Moment: [D]
     X:     0.2224      Y:    -0.1301      Z:     0.1254     Total:     0.2866

*** Psi4 exiting successfully. Buy a developer a beer!
