                               Psi4 1.3.2 release

  ==> Input File <==

--------------------------------------------------------------------------
#psi4
#
memory 32 gb

molecule  {
-2 1
  O        2.8770000    -0.6176760    -0.6980330
  O       -2.2079270    -0.9616680     0.8025740
  O        2.2079310     0.9617400     0.8024790
  O       -2.8769990     0.6175240    -0.6981300
  C        0.5976278    -0.7258001     0.1242093
  C       -0.5469140     0.5337860    -0.1005900
  C        2.0084700    -0.0044810     0.0018080
  C       -2.0084780     0.0045020     0.0018680
  H        0.4732740    -1.1622260    -0.9983970
  H        0.3493020    -1.1927530     0.7554060
  H       -0.4732950     1.1622160    -0.9984660
  H       -0.3492490     1.1928820     0.7553450
units angstrom
no_reorient  #important for SAPT in psi4, default
symmetry c1  #important for SAPT in psi4, default
}

set PROPERTIES_ORIGIN ["COM"]
properties('MP2/aug-cc-pvtz', properties = ['dipole'])
--------------------------------------------------------------------------

    Molecular point group: c1
  Charge       = -2
  Multiplicity = 1
  Basis Set: AUG-CC-PVTZ
    Blend: AUG-CC-PVTZ
  Basis Set: (AUG-CC-PVTZ AUX)
    Blend: AUG-CC-PVTZ-JKFIT

    Orbital Energies [Eh]
    ---------------------

    Doubly Occupied:

       1A    -20.191118     2A    -20.189216     3A    -20.186688
       4A    -20.184388     5A    -11.035726     6A    -11.026315
       7A    -10.934255     8A    -10.927216     9A     -1.053232
      10A     -1.049226    11A     -0.954492    12A     -0.950463
      13A     -0.721570    14A     -0.602602    15A     -0.436297
      16A     -0.394983    17A     -0.343278    18A     -0.315038
      19A     -0.295481    20A     -0.286761    21A     -0.283687
      22A     -0.249467    23A     -0.223966    24A     -0.210640
      25A     -0.143707    26A     -0.109872    27A     -0.096165
      28A     -0.093889    29A     -0.088816    30A     -0.086142
      31A     -0.069967

  @DF-RHF Final Energy:  -453.27626365857611

   => Energetics <=

    Nuclear Repulsion Energy =            336.0709820391944618
    One-Electron Energy =               -1311.2251653896132666
    Two-Electron Energy =                 521.8779196918427488
    Total Energy =                       -453.2762636585761129
  Basis Set: (AUG-CC-PVTZ AUX)
    Blend: AUG-CC-PVTZ-RI
    Molecular point group: c1

    Geometry (in Angstrom), charge = -2, multiplicity = 1:

       Center              X                  Y                   Z               Mass
    ------------   -----------------  -----------------  -----------------  -----------------
         O            2.871754100541    -0.597806524826    -0.725433906871    15.994914619570
         O           -2.213172899459    -0.941798524826     0.775173093129    15.994914619570
         O            2.202685100541     0.981609475174     0.775078093129    15.994914619570
         O           -2.882244899459     0.637393475174    -0.725530906871    15.994914619570
         C            0.592381900541    -0.705930624826     0.096808393129    12.000000000000
         C           -0.552159899459     0.553655475174    -0.127990906871    12.000000000000
         C            2.003224100541     0.015388475174    -0.025592906871    12.000000000000
         C           -2.013723899459     0.024371475174    -0.025532906871    12.000000000000
         H            0.468028100541    -1.142356524826    -1.025797906871     1.007825032230
         H            0.344056100541    -1.172883524826     0.728005093129     1.007825032230
         H           -0.478540899459     1.182085475174    -1.025866906871     1.007825032230
         H           -0.354494899459     1.212751475174     0.727944093129     1.007825032230

  Basis Set: AUG-CC-PVTZ
    Blend: AUG-CC-PVTZ
  Basis Set: (AUG-CC-PVTZ AUX)
    Blend: AUG-CC-PVTZ-JKFIT
	 Reference Energy          =    -453.2762636585761129 [Eh]
	 Singles Energy            =      -0.0000000000000000 [Eh]
	 Same-Spin Energy          =      -0.4513636589268748 [Eh]
	 Opposite-Spin Energy      =      -1.3319053129647618 [Eh]
	 Correlation Energy        =      -1.7832689718916366 [Eh]
	 Total Energy              =    -455.0595326304677428 [Eh]

	 ================> DF-SCS-MP2 Energies <==================
	-----------------------------------------------------------
	 SCS Same-Spin Scale       =       0.3333333333333333 [-]
	 SCS Opposite-Spin Scale   =       1.2000000000000000 [-]
	 SCS Same-Spin Energy      =      -0.1504545529756249 [Eh]
	 SCS Opposite-Spin Energy  =      -1.5982863755577141 [Eh]
	 SCS Correlation Energy    =      -1.7487409285333391 [Eh]
	 SCS Total Energy          =    -455.0250045871094358 [Eh]
	-----------------------------------------------------------

  Dipole Moment: [D]
     X:     0.2751      Y:    -0.1277      Z:     0.1832     Total:     0.3543

*** Psi4 exiting successfully. Buy a developer a beer!
