                               Psi4 1.3.2 release

  ==> Input File <==

--------------------------------------------------------------------------
#psi4
#
memory 32 gb

molecule  {
-2 1
  O        2.8770000    -0.6176760    -0.6980330
  O       -2.2079270    -0.9616680     0.8025740
  O        2.2079310     0.9617400     0.8024790
  O       -2.8769990     0.6175240    -0.6981300
  C        0.5807219    -0.6617734     0.0492776
  C       -0.5469140     0.5337860    -0.1005900
  C        2.0084700    -0.0044810     0.0018080
  C       -2.0084780     0.0045020     0.0018680
  H        0.4732740    -1.1622260    -0.9983970
  H        0.3493020    -1.1927530     0.7554060
  H       -0.4732950     1.1622160    -0.9984660
  H       -0.3492490     1.1928820     0.7553450
units angstrom
no_reorient  #important for SAPT in psi4, default
symmetry c1  #important for SAPT in psi4, default
}

set PROPERTIES_ORIGIN ["COM"]
properties('MP2/aug-cc-pvtz', properties = ['dipole'])
--------------------------------------------------------------------------

    Molecular point group: c1
  Charge       = -2
  Multiplicity = 1
  Basis Set: AUG-CC-PVTZ
    Blend: AUG-CC-PVTZ
  Basis Set: (AUG-CC-PVTZ AUX)
    Blend: AUG-CC-PVTZ-JKFIT

    Orbital Energies [Eh]
    ---------------------

    Doubly Occupied:

       1A    -20.189633     2A    -20.187824     3A    -20.187150
       4A    -20.185119     5A    -11.031417     6A    -11.026959
       7A    -10.930988     8A    -10.924218     9A     -1.052289
      10A     -1.049753    11A     -0.953214    12A     -0.951025
      13A     -0.723709    14A     -0.594345    15A     -0.419599
      16A     -0.396419    17A     -0.339310    18A     -0.319784
      19A     -0.293555    20A     -0.289047    21A     -0.282768
      22A     -0.248568    23A     -0.227513    24A     -0.206899
      25A     -0.157246    26A     -0.110004    27A     -0.097931
      28A     -0.094520    29A     -0.088757    30A     -0.086883
      31A     -0.072729

  @DF-RHF Final Energy:  -453.34953987811031

   => Energetics <=

    Nuclear Repulsion Energy =            336.6945652053682920
    One-Electron Energy =               -1312.6498607114997412
    Two-Electron Energy =                 522.6057556280212566
    Total Energy =                       -453.3495398781102494
  Basis Set: (AUG-CC-PVTZ AUX)
    Blend: AUG-CC-PVTZ-RI
    Molecular point group: c1

    Geometry (in Angstrom), charge = -2, multiplicity = 1:

       Center              X                  Y                   Z               Mass
    ------------   -----------------  -----------------  -----------------  -----------------
         O            2.873502821545    -0.604429350886    -0.717683083925    15.994914619570
         O           -2.211424178455    -0.948421350886     0.782923916075    15.994914619570
         O            2.204433821545     0.974986649114     0.782828916075    15.994914619570
         O           -2.880496178455     0.630770649114    -0.717780083925    15.994914619570
         C            0.577224721545    -0.648526750886     0.029627516075    12.000000000000
         C           -0.550411178455     0.547032649114    -0.120240083925    12.000000000000
         C            2.004972821545     0.008765649114    -0.017842083925    12.000000000000
         C           -2.011975178455     0.017748649114    -0.017782083925    12.000000000000
         H            0.469776821545    -1.148979350886    -1.018047083925     1.007825032230
         H            0.345804821545    -1.179506350886     0.735755916075     1.007825032230
         H           -0.476792178455     1.175462649114    -1.018116083925     1.007825032230
         H           -0.352746178455     1.206128649114     0.735694916075     1.007825032230

  Basis Set: AUG-CC-PVTZ
    Blend: AUG-CC-PVTZ
  Basis Set: (AUG-CC-PVTZ AUX)
    Blend: AUG-CC-PVTZ-JKFIT
	 Reference Energy          =    -453.3495398781103063 [Eh]
	 Singles Energy            =      -0.0000000000000000 [Eh]
	 Same-Spin Energy          =      -0.4506287045989699 [Eh]
	 Opposite-Spin Energy      =      -1.3291092191144234 [Eh]
	 Correlation Energy        =      -1.7797379237133932 [Eh]
	 Total Energy              =    -455.1292778018237186 [Eh]

	 ================> DF-SCS-MP2 Energies <==================
	-----------------------------------------------------------
	 SCS Same-Spin Scale       =       0.3333333333333333 [-]
	 SCS Opposite-Spin Scale   =       1.2000000000000000 [-]
	 SCS Same-Spin Energy      =      -0.1502095681996566 [Eh]
	 SCS Opposite-Spin Energy  =      -1.5949310629373079 [Eh]
	 SCS Correlation Energy    =      -1.7451406311369646 [Eh]
	 SCS Total Energy          =    -455.0946805092472687 [Eh]
	-----------------------------------------------------------

  Dipole Moment: [D]
     X:     0.1730      Y:    -0.1222      Z:     0.0643     Total:     0.2213

*** Psi4 exiting successfully. Buy a developer a beer!
