                               Psi4 1.3.2 release

  ==> Input File <==

--------------------------------------------------------------------------
#psi4
#
memory 32 gb

molecule  {
-2 1
  O        2.8770000    -0.6176760    -0.6980330
  O       -2.2079270    -0.9616680     0.8025740
  O        2.2079310     0.9617400     0.8024790
  O       -2.8769990     0.6175240    -0.6981300
  C        0.5553630    -0.5657334    -0.0631201
  C       -0.5469140     0.5337860    -0.1005900
  C        2.0084700    -0.0044810     0.0018080
  C       -2.0084780     0.0045020     0.0018680
  H        0.4732740    -1.1622260    -0.9983970
  H        0.3493020    -1.1927530     0.7554060
  H       -0.4732950     1.1622160    -0.9984660
  H       -0.3492490     1.1928820     0.7553450
units angstrom
no_reorient  #important for SAPT in psi4, default
symmetry c1  #important for SAPT in psi4, default
}

set PROPERTIES_ORIGIN ["COM"]
properties('MP2/aug-cc-pvtz', properties = ['dipole'])
--------------------------------------------------------------------------

    Molecular point group: c1
  Charge       = -2
  Multiplicity = 1
  Basis Set: AUG-CC-PVTZ
    Blend: AUG-CC-PVTZ
  Basis Set: (AUG-CC-PVTZ AUX)
    Blend: AUG-CC-PVTZ-JKFIT

    Orbital Energies [Eh]
    ---------------------

    Doubly Occupied:

       1A    -20.188558     2A    -20.188076     3A    -20.186663
       4A    -20.186140     5A    -11.028775     6A    -11.028294
       7A    -10.926873     8A    -10.924494     9A     -1.051940
      10A     -1.050399    11A     -0.952312    12A     -0.951891
      13A     -0.733168    14A     -0.586077    15A     -0.404676
      16A     -0.399734    17A     -0.332137    18A     -0.325923
      19A     -0.296514    20A     -0.288809    21A     -0.278664
      22A     -0.246857    23A     -0.233651    24A     -0.191468
      25A     -0.177818    26A     -0.110427    27A     -0.099543
      28A     -0.095948    29A     -0.088911    30A     -0.087642
      31A     -0.074738

  @DF-RHF Final Energy:  -453.39411075924841

   => Energetics <=

    Nuclear Repulsion Energy =            337.5571938317481226
    One-Electron Energy =               -1314.4683689314526873
    Two-Electron Energy =                 523.5170643404561588
    Total Energy =                       -453.3941107592484059
  Basis Set: (AUG-CC-PVTZ AUX)
    Blend: AUG-CC-PVTZ-RI
    Molecular point group: c1

    Geometry (in Angstrom), charge = -2, multiplicity = 1:

       Center              X                  Y                   Z               Mass
    ------------   -----------------  -----------------  -----------------  -----------------
         O            2.876125908223    -0.614363584806    -0.706056833989    15.994914619570
         O           -2.208801091777    -0.958355584806     0.794550166011    15.994914619570
         O            2.207056908223     0.965052415194     0.794455166011    15.994914619570
         O           -2.877873091777     0.620836415194    -0.706153833989    15.994914619570
         C            0.554488908223    -0.562420984806    -0.071143933989    12.000000000000
         C           -0.547788091777     0.537098415194    -0.108613833989    12.000000000000
         C            2.007595908223    -0.001168584806    -0.006215833989    12.000000000000
         C           -2.009352091777     0.007814415194    -0.006155833989    12.000000000000
         H            0.472399908223    -1.158913584806    -1.006420833989     1.007825032230
         H            0.348427908223    -1.189440584806     0.747382166011     1.007825032230
         H           -0.474169091777     1.165528415194    -1.006489833989     1.007825032230
         H           -0.350123091777     1.196194415194     0.747321166011     1.007825032230

  Basis Set: AUG-CC-PVTZ
    Blend: AUG-CC-PVTZ
  Basis Set: (AUG-CC-PVTZ AUX)
    Blend: AUG-CC-PVTZ-JKFIT
	 Reference Energy          =    -453.3941107592484059 [Eh]
	 Singles Energy            =      -0.0000000000000000 [Eh]
	 Same-Spin Energy          =      -0.4504744184180271 [Eh]
	 Opposite-Spin Energy      =      -1.3274790786006112 [Eh]
	 Correlation Energy        =      -1.7779534970186384 [Eh]
	 Total Energy              =    -455.1720642562670491 [Eh]

	 ================> DF-SCS-MP2 Energies <==================
	-----------------------------------------------------------
	 SCS Same-Spin Scale       =       0.3333333333333333 [-]
	 SCS Opposite-Spin Scale   =       1.2000000000000000 [-]
	 SCS Same-Spin Energy      =      -0.1501581394726757 [Eh]
	 SCS Opposite-Spin Energy  =      -1.5929748943207334 [Eh]
	 SCS Correlation Energy    =      -1.7431330337934090 [Eh]
	 SCS Total Energy          =    -455.1372437930418187 [Eh]
	-----------------------------------------------------------

  Dipole Moment: [D]
     X:     0.0404      Y:    -0.0432      Z:    -0.1359     Total:     0.1482

*** Psi4 exiting successfully. Buy a developer a beer!
