                               Psi4 1.3.2 release

  ==> Input File <==

--------------------------------------------------------------------------
#psi4
#
memory 32 gb

molecule  {
-2 1
  O        2.8770000    -0.6176760    -0.6980330
  O       -2.2079270    -0.9616680     0.8025740
  O        2.2079310     0.9617400     0.8024790
  O       -2.8769990     0.6175240    -0.6981300
  C        0.5469100    -0.5337200    -0.1005860
  C       -0.5469140     0.5337860    -0.1005900
  C        2.0084700    -0.0044810     0.0018080
  C       -2.0084780     0.0045020     0.0018680
  H        0.4732740    -1.1622260    -0.9983970
  H        0.3493020    -1.1927530     0.7554060
  H       -0.4732950     1.1622160    -0.9984660
  H       -0.3492490     1.1928820     0.7553450
units angstrom
no_reorient  #important for SAPT in psi4, default
symmetry c1  #important for SAPT in psi4, default
}

set PROPERTIES_ORIGIN ["COM"]
properties('MP2/aug-cc-pvtz', properties = ['dipole'])
--------------------------------------------------------------------------

    Molecular point group: c1
  Charge       = -2
  Multiplicity = 1
  Basis Set: AUG-CC-PVTZ
    Blend: AUG-CC-PVTZ
  Basis Set: (AUG-CC-PVTZ AUX)
    Blend: AUG-CC-PVTZ-JKFIT

    Orbital Energies [Eh]
    ---------------------

    Doubly Occupied:

       1A    -20.188452     2A    -20.188448     3A    -20.186482
       4A    -20.186481     5A    -11.028842     6A    -11.028840
       7A    -10.926046     8A    -10.925434     9A     -1.052085
      10A     -1.050566    11A     -0.952298    12A     -0.952137
      13A     -0.737522    14A     -0.584100    15A     -0.403090
      16A     -0.401033    17A     -0.330997    18A     -0.326762
      19A     -0.299120    20A     -0.288102    21A     -0.276951
      22A     -0.246528    23A     -0.235853    24A     -0.187772
      25A     -0.179014    26A     -0.110604    27A     -0.099948
      28A     -0.096485    29A     -0.089044    30A     -0.087884
      31A     -0.074928

  @DF-RHF Final Energy:  -453.39627221650153

   => Energetics <=

    Nuclear Repulsion Energy =            337.8118921540971087
    One-Electron Energy =               -1314.9726384777527528
    Two-Electron Energy =                 523.7644741071541148
    Total Energy =                       -453.3962722165015293
  Basis Set: (AUG-CC-PVTZ AUX)
    Blend: AUG-CC-PVTZ-RI
    Molecular point group: c1

    Geometry (in Angstrom), charge = -2, multiplicity = 1:

       Center              X                  Y                   Z               Mass
    ------------   -----------------  -----------------  -----------------  -----------------
         O            2.877000273897    -0.617675003008    -0.702181417344    15.994914619570
         O           -2.207926726103    -0.961667003008     0.798425582656    15.994914619570
         O            2.207931273897     0.961740996992     0.798330582656    15.994914619570
         O           -2.876998726103     0.617524996992    -0.702278417344    15.994914619570
         C            0.546910273897    -0.533719003008    -0.104734417344    12.000000000000
         C           -0.546913726103     0.533786996992    -0.104738417344    12.000000000000
         C            2.008470273897    -0.004480003008    -0.002340417344    12.000000000000
         C           -2.008477726103     0.004502996992    -0.002280417344    12.000000000000
         H            0.473274273897    -1.162225003008    -1.002545417344     1.007825032230
         H            0.349302273897    -1.192752003008     0.751257582656     1.007825032230
         H           -0.473294726103     1.162216996992    -1.002614417344     1.007825032230
         H           -0.349248726103     1.192882996992     0.751196582656     1.007825032230

  Basis Set: AUG-CC-PVTZ
    Blend: AUG-CC-PVTZ
  Basis Set: (AUG-CC-PVTZ AUX)
    Blend: AUG-CC-PVTZ-JKFIT
	 Reference Energy          =    -453.3962722165015293 [Eh]
	 Singles Energy            =      -0.0000000000000000 [Eh]
	 Same-Spin Energy          =      -0.4506628489843088 [Eh]
	 Opposite-Spin Energy      =      -1.3275525840841442 [Eh]
	 Correlation Energy        =      -1.7782154330684530 [Eh]
	 Total Energy              =    -455.1744876495699828 [Eh]

	 ================> DF-SCS-MP2 Energies <==================
	-----------------------------------------------------------
	 SCS Same-Spin Scale       =       0.3333333333333333 [-]
	 SCS Opposite-Spin Scale   =       1.2000000000000000 [-]
	 SCS Same-Spin Energy      =      -0.1502209496614362 [Eh]
	 SCS Opposite-Spin Energy  =      -1.5930631009009730 [Eh]
	 SCS Correlation Energy    =      -1.7432840505624092 [Eh]
	 SCS Total Energy          =    -455.1395562670639379 [Eh]
	-----------------------------------------------------------

  Dipole Moment: [D]
     X:    -0.0000      Y:     0.0001      Z:    -0.2075     Total:     0.2075

*** Psi4 exiting successfully. Buy a developer a beer!
