                               Psi4 1.3.2 release

  ==> Input File <==

--------------------------------------------------------------------------
#psi4
#
memory 32 gb

molecule  {
-2 1
  O        2.8770000    -0.6176760    -0.6980330
  O       -2.2079270    -0.9616680     0.8025740
  O        2.2079310     0.9617400     0.8024790
  O       -2.8769990     0.6175240    -0.6981300
  C        0.5638159    -0.5977467    -0.0256542
  C       -0.5469140     0.5337860    -0.1005900
  C        2.0084700    -0.0044810     0.0018080
  C       -2.0084780     0.0045020     0.0018680
  H        0.4732740    -1.1622260    -0.9983970
  H        0.3493020    -1.1927530     0.7554060
  H       -0.4732950     1.1622160    -0.9984660
  H       -0.3492490     1.1928820     0.7553450
units angstrom
no_reorient  #important for SAPT in psi4, default
symmetry c1  #important for SAPT in psi4, default
}

set PROPERTIES_ORIGIN ["COM"]
properties('MP2/aug-cc-pvtz', properties = ['dipole'])
--------------------------------------------------------------------------

    Molecular point group: c1
  Charge       = -2
  Multiplicity = 1
  Basis Set: AUG-CC-PVTZ
    Blend: AUG-CC-PVTZ
  Basis Set: (AUG-CC-PVTZ AUX)
    Blend: AUG-CC-PVTZ-JKFIT

    Orbital Energies [Eh]
    ---------------------

    Doubly Occupied:

       1A    -20.188783     2A    -20.187737     3A    -20.186943
       4A    -20.185803     5A    -11.029170     6A    -11.027800
       7A    -10.928109     8A    -10.923848     9A     -1.051918
      10A     -1.050212    11A     -0.952490    12A     -0.951600
      13A     -0.729359    14A     -0.588379    15A     -0.407929
      16A     -0.398465    17A     -0.334322    18A     -0.324200
      19A     -0.294387    20A     -0.289617    21A     -0.280299
      22A     -0.247395    23A     -0.231475    24A     -0.198026
      25A     -0.171487    26A     -0.110258    27A     -0.099093
      28A     -0.095434    29A     -0.088818    30A     -0.087407
      31A     -0.074314

  @DF-RHF Final Energy:  -453.38625501830353

   => Energetics <=

    Nuclear Repulsion Energy =            337.2839681071924360
    One-Electron Energy =               -1313.9102919836125238
    Two-Electron Energy =                 523.2400688581166150
    Total Energy =                       -453.3862550183034728
  Basis Set: (AUG-CC-PVTZ AUX)
    Blend: AUG-CC-PVTZ-RI
    Molecular point group: c1

    Geometry (in Angstrom), charge = -2, multiplicity = 1:

       Center              X                  Y                   Z               Mass
    ------------   -----------------  -----------------  -----------------  -----------------
         O            2.875251552893    -0.611052176947    -0.709932250634    15.994914619570
         O           -2.209675447107    -0.955044176947     0.790674749366    15.994914619570
         O            2.206182552893     0.968363823053     0.790579749366    15.994914619570
         O           -2.878747447107     0.624147823053    -0.710029250634    15.994914619570
         C            0.562067452893    -0.591122876947    -0.037553450634    12.000000000000
         C           -0.548662447107     0.540409823053    -0.112489250634    12.000000000000
         C            2.006721552893     0.002142823053    -0.010091250634    12.000000000000
         C           -2.010226447107     0.011125823053    -0.010031250634    12.000000000000
         H            0.471525552893    -1.155602176947    -1.010296250634     1.007825032230
         H            0.347553552893    -1.186129176947     0.743506749366     1.007825032230
         H           -0.475043447107     1.168839823053    -1.010365250634     1.007825032230
         H           -0.350997447107     1.199505823053     0.743445749366     1.007825032230

  Basis Set: AUG-CC-PVTZ
    Blend: AUG-CC-PVTZ
  Basis Set: (AUG-CC-PVTZ AUX)
    Blend: AUG-CC-PVTZ-JKFIT
	 Reference Energy          =    -453.3862550183035296 [Eh]
	 Singles Energy            =      -0.0000000000000000 [Eh]
	 Same-Spin Energy          =      -0.4504036270018533 [Eh]
	 Opposite-Spin Energy      =      -1.3276999045052627 [Eh]
	 Correlation Energy        =      -1.7781035315071159 [Eh]
	 Total Energy              =    -455.1643585498106290 [Eh]

	 ================> DF-SCS-MP2 Energies <==================
	-----------------------------------------------------------
	 SCS Same-Spin Scale       =       0.3333333333333333 [-]
	 SCS Opposite-Spin Scale   =       1.2000000000000000 [-]
	 SCS Same-Spin Energy      =      -0.1501345423339511 [Eh]
	 SCS Opposite-Spin Energy  =      -1.5932398854063152 [Eh]
	 SCS Correlation Energy    =      -1.7433744277402663 [Eh]
	 SCS Total Energy          =    -455.1296294460437935 [Eh]
	-----------------------------------------------------------

  Dipole Moment: [D]
     X:     0.0824      Y:    -0.0782      Z:    -0.0666     Total:     0.1317

*** Psi4 exiting successfully. Buy a developer a beer!
