                               Psi4 1.3.2 release

  ==> Input File <==

--------------------------------------------------------------------------
#psi4
#
memory 32 gb

molecule  {
0 1
  F        0.8801740    -2.1570240    -0.2741980
  O        1.6462780     0.5481910    -0.4350190
  O       -0.2367630     2.4625430    -0.1451660
  C        0.3476580     0.1463710    -0.1857710
  C       -0.6195240     1.1555560    -0.0645140
  C       -0.0440700    -1.1842474    -0.0291533
  C       -1.9594950     0.8272070     0.1461580
  C       -1.3851280    -1.5362190     0.0940810
  C       -2.3313710    -0.5151580     0.2215980
  C        2.5704260     0.1676860     0.6054290
  H       -2.6878360     1.6271100     0.2387920
  H       -1.6577150    -2.5857400     0.1384780
  H       -3.3736110    -0.7729470     0.3882060
  H        2.6849170    -0.9163680     0.6377720
  H        2.2243420     0.5379400     1.5755890
  H        3.5186220     0.6362700     0.3424670
  H        0.7214210     2.4415090    -0.3472440
units angstrom
no_reorient  #important for SAPT in psi4, default
symmetry c1  #important for SAPT in psi4, default
}

set PROPERTIES_ORIGIN ["COM"]
properties('MP2/aug-cc-pvtz', properties = ['dipole'])
--------------------------------------------------------------------------

    Molecular point group: c1
  Charge       = 0
  Multiplicity = 1
  Basis Set: AUG-CC-PVTZ
    Blend: AUG-CC-PVTZ
  Basis Set: (AUG-CC-PVTZ AUX)
    Blend: AUG-CC-PVTZ-JKFIT

    Orbital Energies [Eh]
    ---------------------

    Doubly Occupied:

       1A    -26.316761     2A    -20.599411     3A    -20.595585
       4A    -11.339312     5A    -11.315117     6A    -11.305217
       7A    -11.291986     8A    -11.254788     9A    -11.245226
      10A    -11.240735    11A     -1.627915    12A     -1.426979
      13A     -1.394721    14A     -1.158624    15A     -1.029888
      16A     -1.021454    17A     -0.947927    18A     -0.853317
      19A     -0.849156    20A     -0.759185    21A     -0.745854
      22A     -0.710524    23A     -0.699134    24A     -0.676448
      25A     -0.653695    26A     -0.647014    27A     -0.634933
      28A     -0.620794    29A     -0.589688    30A     -0.573683
      31A     -0.554057    32A     -0.540454    33A     -0.520042
      34A     -0.491097    35A     -0.473912    36A     -0.343502
      37A     -0.324580

  @DF-RHF Final Energy:  -518.47617060346636

   => Energetics <=

    Nuclear Repulsion Energy =            528.9609224666526188
    One-Electron Energy =               -1760.1287569729979623
    Two-Electron Energy =                 712.6916639028789859
    Total Energy =                       -518.4761706034663575
  Basis Set: (AUG-CC-PVTZ AUX)
    Blend: AUG-CC-PVTZ-RI
    Molecular point group: c1

    Geometry (in Angstrom), charge = 0, multiplicity = 1:

       Center              X                  Y                   Z               Mass
    ------------   -----------------  -----------------  -----------------  -----------------
         F            0.882636243858    -2.135101877252    -0.259849745850    18.998403162730
         O            1.648740243858     0.570113122748    -0.420670745850    15.994914619570
         O           -0.234300756142     2.484465122748    -0.130817745850    15.994914619570
         C            0.350120243858     0.168293122748    -0.171422745850    12.000000000000
         C           -0.617061756142     1.177478122748    -0.050165745850    12.000000000000
         C           -0.041607756142    -1.162325277252    -0.014805045850    12.000000000000
         C           -1.957032756142     0.849129122748     0.160506254150    12.000000000000
         C           -1.382665756142    -1.514296877252     0.108429254150    12.000000000000
         C           -2.328908756142    -0.493235877252     0.235946254150    12.000000000000
         C            2.572888243858     0.189608122748     0.619777254150    12.000000000000
         H           -2.685373756142     1.649032122748     0.253140254150     1.007825032230
         H           -1.655252756142    -2.563817877252     0.152826254150     1.007825032230
         H           -3.371148756142    -0.751024877252     0.402554254150     1.007825032230
         H            2.687379243858    -0.894445877252     0.652120254150     1.007825032230
         H            2.226804243858     0.559862122748     1.589937254150     1.007825032230
         H            3.521084243858     0.658192122748     0.356815254150     1.007825032230
         H            0.723883243858     2.463431122748    -0.332895745850     1.007825032230

  Basis Set: AUG-CC-PVTZ
    Blend: AUG-CC-PVTZ
  Basis Set: (AUG-CC-PVTZ AUX)
    Blend: AUG-CC-PVTZ-JKFIT
	 Reference Energy          =    -518.4761706034663575 [Eh]
	 Singles Energy            =      -0.0000000000000000 [Eh]
	 Same-Spin Energy          =      -0.5091555612828178 [Eh]
	 Opposite-Spin Energy      =      -1.5388505166669266 [Eh]
	 Correlation Energy        =      -2.0480060779497444 [Eh]
	 Total Energy              =    -520.5241766814160655 [Eh]

	 ================> DF-SCS-MP2 Energies <==================
	-----------------------------------------------------------
	 SCS Same-Spin Scale       =       0.3333333333333333 [-]
	 SCS Opposite-Spin Scale   =       1.2000000000000000 [-]
	 SCS Same-Spin Energy      =      -0.1697185204276059 [Eh]
	 SCS Opposite-Spin Energy  =      -1.8466206200003119 [Eh]
	 SCS Correlation Energy    =      -2.0163391404279176 [Eh]
	 SCS Total Energy          =    -520.4925097438942885 [Eh]
	-----------------------------------------------------------

  Dipole Moment: [D]
     X:     0.6433      Y:    -0.1327      Z:     1.1982     Total:     1.3664

*** Psi4 exiting successfully. Buy a developer a beer!
