                               Psi4 1.3.2 release

  ==> Input File <==

--------------------------------------------------------------------------
#psi4
#
memory 32 gb

molecule  {
0 1
  F        0.8801740    -2.1570240    -0.2741980
  O        1.6462780     0.5481910    -0.4350190
  O       -0.2367630     2.4625430    -0.1451660
  C        0.3476580     0.1463710    -0.1857710
  C       -0.6195240     1.1555560    -0.0645140
  C       -0.0193695    -1.1823476     0.1187868
  C       -1.9594950     0.8272070     0.1461580
  C       -1.3851280    -1.5362190     0.0940810
  C       -2.3313710    -0.5151580     0.2215980
  C        2.5704260     0.1676860     0.6054290
  H       -2.6878360     1.6271100     0.2387920
  H       -1.6577150    -2.5857400     0.1384780
  H       -3.3736110    -0.7729470     0.3882060
  H        2.6849170    -0.9163680     0.6377720
  H        2.2243420     0.5379400     1.5755890
  H        3.5186220     0.6362700     0.3424670
  H        0.7214210     2.4415090    -0.3472440
units angstrom
no_reorient  #important for SAPT in psi4, default
symmetry c1  #important for SAPT in psi4, default
}

set PROPERTIES_ORIGIN ["COM"]
properties('MP2/aug-cc-pvtz', properties = ['dipole'])
--------------------------------------------------------------------------

    Molecular point group: c1
  Charge       = 0
  Multiplicity = 1
  Basis Set: AUG-CC-PVTZ
    Blend: AUG-CC-PVTZ
  Basis Set: (AUG-CC-PVTZ AUX)
    Blend: AUG-CC-PVTZ-JKFIT

    Orbital Energies [Eh]
    ---------------------

    Doubly Occupied:

       1A    -26.308909     2A    -20.600872     3A    -20.595326
       4A    -11.339893     5A    -11.314476     6A    -11.311140
       7A    -11.292880     8A    -11.254116     9A    -11.250947
      10A    -11.245160    11A     -1.614843    12A     -1.427830
      13A     -1.395317    14A     -1.156933    15A     -1.028731
      16A     -1.020166    17A     -0.949046    18A     -0.850163
      19A     -0.846748    20A     -0.757343    21A     -0.737763
      22A     -0.709058    23A     -0.690945    24A     -0.673139
      25A     -0.653722    26A     -0.646869    27A     -0.632658
      28A     -0.619573    29A     -0.589569    30A     -0.573497
      31A     -0.554224    32A     -0.540144    33A     -0.520387
      34A     -0.490972    35A     -0.473945    36A     -0.344267
      37A     -0.322860

  @DF-RHF Final Energy:  -518.45903767057951

   => Energetics <=

    Nuclear Repulsion Energy =            528.3184092069378721
    One-Electron Energy =               -1758.8860312405195145
    Two-Electron Energy =                 712.1085843630022509
    Total Energy =                       -518.4590376705795052
  Basis Set: (AUG-CC-PVTZ AUX)
    Blend: AUG-CC-PVTZ-RI
    Molecular point group: c1

    Geometry (in Angstrom), charge = 0, multiplicity = 1:

       Center              X                  Y                   Z               Mass
    ------------   -----------------  -----------------  -----------------  -----------------
         F            0.880549509671    -2.135262375121    -0.272347940796    18.998403162730
         O            1.646653509671     0.569952624879    -0.433168940796    15.994914619570
         O           -0.236387490329     2.484304624879    -0.143315940796    15.994914619570
         C            0.348033509671     0.168132624879    -0.183920940796    12.000000000000
         C           -0.619148490329     1.177317624879    -0.062663940796    12.000000000000
         C           -0.018993990329    -1.160585975121     0.120636859204    12.000000000000
         C           -1.959119490329     0.848968624879     0.148008059204    12.000000000000
         C           -1.384752490329    -1.514457375121     0.095931059204    12.000000000000
         C           -2.330995490329    -0.493396375121     0.223448059204    12.000000000000
         C            2.570801509671     0.189447624879     0.607279059204    12.000000000000
         H           -2.687460490329     1.648871624879     0.240642059204     1.007825032230
         H           -1.657339490329    -2.563978375121     0.140328059204     1.007825032230
         H           -3.373235490329    -0.751185375121     0.390056059204     1.007825032230
         H            2.685292509671    -0.894606375121     0.639622059204     1.007825032230
         H            2.224717509671     0.559701624879     1.577439059204     1.007825032230
         H            3.518997509671     0.658031624879     0.344317059204     1.007825032230
         H            0.721796509671     2.463270624879    -0.345393940796     1.007825032230

  Basis Set: AUG-CC-PVTZ
    Blend: AUG-CC-PVTZ
  Basis Set: (AUG-CC-PVTZ AUX)
    Blend: AUG-CC-PVTZ-JKFIT
	 Reference Energy          =    -518.4590376705795052 [Eh]
	 Singles Energy            =      -0.0000000000000000 [Eh]
	 Same-Spin Energy          =      -0.5101721638513216 [Eh]
	 Opposite-Spin Energy      =      -1.5419538640905883 [Eh]
	 Correlation Energy        =      -2.0521260279419100 [Eh]
	 Total Energy              =    -520.5111636985213863 [Eh]

	 ================> DF-SCS-MP2 Energies <==================
	-----------------------------------------------------------
	 SCS Same-Spin Scale       =       0.3333333333333333 [-]
	 SCS Opposite-Spin Scale   =       1.2000000000000000 [-]
	 SCS Same-Spin Energy      =      -0.1700573879504405 [Eh]
	 SCS Opposite-Spin Energy  =      -1.8503446369087060 [Eh]
	 SCS Correlation Energy    =      -2.0204020248591466 [Eh]
	 SCS Total Energy          =    -520.4794396954386002 [Eh]
	-----------------------------------------------------------

  Dipole Moment: [D]
     X:     0.5500      Y:     0.0206      Z:     1.2413     Total:     1.3579

*** Psi4 exiting successfully. Buy a developer a beer!
