                               Psi4 1.3.2 release

  ==> Input File <==

--------------------------------------------------------------------------
#psi4
#
memory 32 gb

molecule  {
0 1
  F        0.8801740    -2.1570240    -0.2741980
  O        1.6462780     0.5481910    -0.4350190
  O       -0.2367630     2.4625430    -0.1451660
  C        0.3476580     0.1463710    -0.1857710
  C       -0.6195240     1.1555560    -0.0645140
  C       -0.0605370    -1.1855140    -0.1277800
  C       -1.9594950     0.8272070     0.1461580
  C       -1.3530799    -1.5363886     0.2914965
  C       -2.3313710    -0.5151580     0.2215980
  C        2.5704260     0.1676860     0.6054290
  H       -2.6878360     1.6271100     0.2387920
  H       -1.6577150    -2.5857400     0.1384780
  H       -3.3736110    -0.7729470     0.3882060
  H        2.6849170    -0.9163680     0.6377720
  H        2.2243420     0.5379400     1.5755890
  H        3.5186220     0.6362700     0.3424670
  H        0.7214210     2.4415090    -0.3472440
units angstrom
no_reorient  #important for SAPT in psi4, default
symmetry c1  #important for SAPT in psi4, default
}

set PROPERTIES_ORIGIN ["COM"]
properties('MP2/aug-cc-pvtz', properties = ['dipole'])
--------------------------------------------------------------------------

    Molecular point group: c1
  Charge       = 0
  Multiplicity = 1
  Basis Set: AUG-CC-PVTZ
    Blend: AUG-CC-PVTZ
  Basis Set: (AUG-CC-PVTZ AUX)
    Blend: AUG-CC-PVTZ-JKFIT

    Orbital Energies [Eh]
    ---------------------

    Doubly Occupied:

       1A    -26.319068     2A    -20.598917     3A    -20.597776
       4A    -11.343097     5A    -11.318217     6A    -11.303684
       7A    -11.291426     8A    -11.259079     9A    -11.247215
      10A    -11.239915    11A     -1.631284    12A     -1.427625
      13A     -1.395549    14A     -1.157236    15A     -1.030054
      16A     -1.019921    17A     -0.946819    18A     -0.853762
      19A     -0.848394    20A     -0.758882    21A     -0.747765
      22A     -0.712190    23A     -0.699201    24A     -0.675403
      25A     -0.654084    26A     -0.645332    27A     -0.632133
      28A     -0.620955    29A     -0.590950    30A     -0.571897
      31A     -0.552158    32A     -0.539644    33A     -0.519735
      34A     -0.485649    35A     -0.474574    36A     -0.342998
      37A     -0.325797

  @DF-RHF Final Energy:  -518.46682620659806

   => Energetics <=

    Nuclear Repulsion Energy =            528.5357419790249196
    One-Electron Energy =               -1759.2483651187637861
    Two-Electron Energy =                 712.2457969331406957
    Total Energy =                       -518.4668262065980571
  Basis Set: (AUG-CC-PVTZ AUX)
    Blend: AUG-CC-PVTZ-RI
    Molecular point group: c1

    Geometry (in Angstrom), charge = 0, multiplicity = 1:

       Center              X                  Y                   Z               Mass
    ------------   -----------------  -----------------  -----------------  -----------------
         F            0.881319929854    -2.134980544986    -0.268195567442    18.998403162730
         O            1.647423929854     0.570234455014    -0.429016567442    15.994914619570
         O           -0.235617070146     2.484586455014    -0.139163567442    15.994914619570
         C            0.348803929854     0.168414455014    -0.179768567442    12.000000000000
         C           -0.618378070146     1.177599455014    -0.058511567442    12.000000000000
         C           -0.059391070146    -1.163470544986    -0.121777567442    12.000000000000
         C           -1.958349070146     0.849250455014     0.152160432558    12.000000000000
         C           -1.351933970146    -1.514345144986     0.297498932558    12.000000000000
         C           -2.330225070146    -0.493114544986     0.227600432558    12.000000000000
         C            2.571571929854     0.189729455014     0.611431432558    12.000000000000
         H           -2.686690070146     1.649153455014     0.244794432558     1.007825032230
         H           -1.656569070146    -2.563696544986     0.144480432558     1.007825032230
         H           -3.372465070146    -0.750903544986     0.394208432558     1.007825032230
         H            2.686062929854    -0.894324544986     0.643774432558     1.007825032230
         H            2.225487929854     0.559983455014     1.581591432558     1.007825032230
         H            3.519767929854     0.658313455014     0.348469432558     1.007825032230
         H            0.722566929854     2.463552455014    -0.341241567442     1.007825032230

  Basis Set: AUG-CC-PVTZ
    Blend: AUG-CC-PVTZ
  Basis Set: (AUG-CC-PVTZ AUX)
    Blend: AUG-CC-PVTZ-JKFIT
	 Reference Energy          =    -518.4668262065980571 [Eh]
	 Singles Energy            =      -0.0000000000000000 [Eh]
	 Same-Spin Energy          =      -0.5094691192938227 [Eh]
	 Opposite-Spin Energy      =      -1.5402963004936205 [Eh]
	 Correlation Energy        =      -2.0497654197874433 [Eh]
	 Total Energy              =    -520.5165916263855479 [Eh]

	 ================> DF-SCS-MP2 Energies <==================
	-----------------------------------------------------------
	 SCS Same-Spin Scale       =       0.3333333333333333 [-]
	 SCS Opposite-Spin Scale   =       1.2000000000000000 [-]
	 SCS Same-Spin Energy      =      -0.1698230397646076 [Eh]
	 SCS Opposite-Spin Energy  =      -1.8483555605923445 [Eh]
	 SCS Correlation Energy    =      -2.0181786003569520 [Eh]
	 SCS Total Energy          =    -520.4850048069549757 [Eh]
	-----------------------------------------------------------

  Dipole Moment: [D]
     X:     0.6717      Y:    -0.0497      Z:     1.0189     Total:     1.2214

*** Psi4 exiting successfully. Buy a developer a beer!
