                               Psi4 1.3.2 release

  ==> Input File <==

--------------------------------------------------------------------------
#psi4
#
memory 32 gb

molecule  {
0 1
  F        0.8801740    -2.1570240    -0.2741980
  O        1.6462780     0.5481910    -0.4350190
  O       -0.2367630     2.4625430    -0.1451660
  C        0.3476580     0.1463710    -0.1857710
  C       -0.6195240     1.1555560    -0.0645140
  C       -0.0605370    -1.1855140    -0.1277800
  C       -1.9594950     0.8272070     0.1461580
  C       -1.3610919    -1.5363462     0.2421426
  C       -2.3313710    -0.5151580     0.2215980
  C        2.5704260     0.1676860     0.6054290
  H       -2.6878360     1.6271100     0.2387920
  H       -1.6577150    -2.5857400     0.1384780
  H       -3.3736110    -0.7729470     0.3882060
  H        2.6849170    -0.9163680     0.6377720
  H        2.2243420     0.5379400     1.5755890
  H        3.5186220     0.6362700     0.3424670
  H        0.7214210     2.4415090    -0.3472440
units angstrom
no_reorient  #important for SAPT in psi4, default
symmetry c1  #important for SAPT in psi4, default
}

set PROPERTIES_ORIGIN ["COM"]
properties('MP2/aug-cc-pvtz', properties = ['dipole'])
--------------------------------------------------------------------------

    Molecular point group: c1
  Charge       = 0
  Multiplicity = 1
  Basis Set: AUG-CC-PVTZ
    Blend: AUG-CC-PVTZ
  Basis Set: (AUG-CC-PVTZ AUX)
    Blend: AUG-CC-PVTZ-JKFIT

    Orbital Energies [Eh]
    ---------------------

    Doubly Occupied:

       1A    -26.318739     2A    -20.598860     3A    -20.596900
       4A    -11.341585     5A    -11.317019     6A    -11.303696
       7A    -11.291379     8A    -11.257493     9A    -11.245867
      10A    -11.239883    11A     -1.630992    12A     -1.427199
      13A     -1.395093    14A     -1.157919    15A     -1.030029
      16A     -1.020728    17A     -0.946887    18A     -0.853775
      19A     -0.848862    20A     -0.759077    21A     -0.747622
      22A     -0.712001    23A     -0.699495    24A     -0.676000
      25A     -0.653973    26A     -0.645688    27A     -0.633386
      28A     -0.620992    29A     -0.590445    30A     -0.572703
      31A     -0.552829    32A     -0.540264    33A     -0.519861
      34A     -0.487263    35A     -0.474289    36A     -0.343222
      37A     -0.325476

  @DF-RHF Final Energy:  -518.47209988055829

   => Energetics <=

    Nuclear Repulsion Energy =            528.7366264369096598
    One-Electron Energy =               -1759.6624714808490353
    Two-Electron Energy =                 712.4537451633809724
    Total Energy =                       -518.4720998805582894
  Basis Set: (AUG-CC-PVTZ AUX)
    Blend: AUG-CC-PVTZ-RI
    Molecular point group: c1

    Geometry (in Angstrom), charge = 0, multiplicity = 1:

       Center              X                  Y                   Z               Mass
    ------------   -----------------  -----------------  -----------------  -----------------
         F            0.881996795274    -2.134984127000    -0.264026078145    18.998403162730
         O            1.648100795274     0.570230873000    -0.424847078145    15.994914619570
         O           -0.234940204726     2.484582873000    -0.134994078145    15.994914619570
         C            0.349480795274     0.168410873000    -0.175599078145    12.000000000000
         C           -0.617701204726     1.177595873000    -0.054342078145    12.000000000000
         C           -0.058714204726    -1.163474127000    -0.117608078145    12.000000000000
         C           -1.957672204726     0.849246873000     0.156329921855    12.000000000000
         C           -1.359269104726    -1.514306327000     0.252314521855    12.000000000000
         C           -2.329548204726    -0.493118127000     0.231769921855    12.000000000000
         C            2.572248795274     0.189725873000     0.615600921855    12.000000000000
         H           -2.686013204726     1.649149873000     0.248963921855     1.007825032230
         H           -1.655892204726    -2.563700127000     0.148649921855     1.007825032230
         H           -3.371788204726    -0.750907127000     0.398377921855     1.007825032230
         H            2.686739795274    -0.894328127000     0.647943921855     1.007825032230
         H            2.226164795274     0.559979873000     1.585760921855     1.007825032230
         H            3.520444795274     0.658309873000     0.352638921855     1.007825032230
         H            0.723243795274     2.463548873000    -0.337072078145     1.007825032230

  Basis Set: AUG-CC-PVTZ
    Blend: AUG-CC-PVTZ
  Basis Set: (AUG-CC-PVTZ AUX)
    Blend: AUG-CC-PVTZ-JKFIT
	 Reference Energy          =    -518.4720998805582894 [Eh]
	 Singles Energy            =      -0.0000000000000000 [Eh]
	 Same-Spin Energy          =      -0.5092323232466432 [Eh]
	 Opposite-Spin Energy      =      -1.5394693924644560 [Eh]
	 Correlation Energy        =      -2.0487017157110992 [Eh]
	 Total Energy              =    -520.5208015962693935 [Eh]

	 ================> DF-SCS-MP2 Energies <==================
	-----------------------------------------------------------
	 SCS Same-Spin Scale       =       0.3333333333333333 [-]
	 SCS Opposite-Spin Scale   =       1.2000000000000000 [-]
	 SCS Same-Spin Energy      =      -0.1697441077488811 [Eh]
	 SCS Opposite-Spin Energy  =      -1.8473632709573471 [Eh]
	 SCS Correlation Energy    =      -2.0171073787062284 [Eh]
	 SCS Total Energy          =    -520.4892072592645036 [Eh]
	-----------------------------------------------------------

  Dipole Moment: [D]
     X:     0.6583      Y:    -0.0992      Z:     1.0588     Total:     1.2507

*** Psi4 exiting successfully. Buy a developer a beer!
