                               Psi4 1.3.2 release

  ==> Input File <==

--------------------------------------------------------------------------
#psi4
#
memory 32 gb

molecule  {
0 1
  F        0.8801740    -2.1570240    -0.2741980
  O        1.6462780     0.5481910    -0.4350190
  O       -0.2367630     2.4625430    -0.1451660
  C        0.3476580     0.1463710    -0.1857710
  C       -0.6195240     1.1555560    -0.0645140
  C       -0.0605370    -1.1855140    -0.1277800
  C       -1.9594950     0.8272070     0.1461580
  C       -1.3450678    -1.5364310     0.3408504
  C       -2.3313710    -0.5151580     0.2215980
  C        2.5704260     0.1676860     0.6054290
  H       -2.6878360     1.6271100     0.2387920
  H       -1.6577150    -2.5857400     0.1384780
  H       -3.3736110    -0.7729470     0.3882060
  H        2.6849170    -0.9163680     0.6377720
  H        2.2243420     0.5379400     1.5755890
  H        3.5186220     0.6362700     0.3424670
  H        0.7214210     2.4415090    -0.3472440
units angstrom
no_reorient  #important for SAPT in psi4, default
symmetry c1  #important for SAPT in psi4, default
}

set PROPERTIES_ORIGIN ["COM"]
properties('MP2/aug-cc-pvtz', properties = ['dipole'])
--------------------------------------------------------------------------

    Molecular point group: c1
  Charge       = 0
  Multiplicity = 1
  Basis Set: AUG-CC-PVTZ
    Blend: AUG-CC-PVTZ
  Basis Set: (AUG-CC-PVTZ AUX)
    Blend: AUG-CC-PVTZ-JKFIT

    Orbital Energies [Eh]
    ---------------------

    Doubly Occupied:

       1A    -26.319478     2A    -20.599015     3A    -20.598902
       4A    -11.344951     5A    -11.319751     6A    -11.303687
       7A    -11.291502     8A    -11.261022     9A    -11.248875
      10A    -11.239972    11A     -1.631642    12A     -1.428192
      13A     -1.396134    14A     -1.156413    15A     -1.030114
      16A     -1.018861    17A     -0.946756    18A     -0.853745
      19A     -0.847860    20A     -0.758698    21A     -0.747975
      22A     -0.712394    23A     -0.698876    24A     -0.674750
      25A     -0.654228    26A     -0.644979    27A     -0.630573
      28A     -0.620948    29A     -0.591612    30A     -0.570926
      31A     -0.551337    32A     -0.538650    33A     -0.519486
      34A     -0.483776    35A     -0.474829    36A     -0.342728
      37A     -0.326245

  @DF-RHF Final Energy:  -518.46004436770806

   => Energetics <=

    Nuclear Repulsion Energy =            528.2805278413949281
    One-Electron Energy =               -1758.7213813944331378
    Two-Electron Energy =                 711.9808091853302585
    Total Energy =                       -518.4600443677080648
  Basis Set: (AUG-CC-PVTZ AUX)
    Blend: AUG-CC-PVTZ-RI
    Molecular point group: c1

    Geometry (in Angstrom), charge = 0, multiplicity = 1:

       Center              X                  Y                   Z               Mass
    ------------   -----------------  -----------------  -----------------  -----------------
         F            0.880643055986    -2.134976962972    -0.272365056739    18.998403162730
         O            1.646747055986     0.570238037028    -0.433186056739    15.994914619570
         O           -0.236293944014     2.484590037028    -0.143333056739    15.994914619570
         C            0.348127055986     0.168418037028    -0.183938056739    12.000000000000
         C           -0.619054944014     1.177603037028    -0.062681056739    12.000000000000
         C           -0.060067944014    -1.163466962972    -0.125947056739    12.000000000000
         C           -1.959025944014     0.849254037028     0.147990943261    12.000000000000
         C           -1.344598744014    -1.514383962972     0.342683343261    12.000000000000
         C           -2.330901944014    -0.493110962972     0.223430943261    12.000000000000
         C            2.570895055986     0.189733037028     0.607261943261    12.000000000000
         H           -2.687366944014     1.649157037028     0.240624943261     1.007825032230
         H           -1.657245944014    -2.563692962972     0.140310943261     1.007825032230
         H           -3.373141944014    -0.750899962972     0.390038943261     1.007825032230
         H            2.685386055986    -0.894320962972     0.639604943261     1.007825032230
         H            2.224811055986     0.559987037028     1.577421943261     1.007825032230
         H            3.519091055986     0.658317037028     0.344299943261     1.007825032230
         H            0.721890055986     2.463556037028    -0.345411056739     1.007825032230

  Basis Set: AUG-CC-PVTZ
    Blend: AUG-CC-PVTZ
  Basis Set: (AUG-CC-PVTZ AUX)
    Blend: AUG-CC-PVTZ-JKFIT
	 Reference Energy          =    -518.4600443677080648 [Eh]
	 Singles Energy            =      -0.0000000000000000 [Eh]
	 Same-Spin Energy          =      -0.5097610465342060 [Eh]
	 Opposite-Spin Energy      =      -1.5413283867222676 [Eh]
	 Correlation Energy        =      -2.0510894332564735 [Eh]
	 Total Energy              =    -520.5111338009645578 [Eh]

	 ================> DF-SCS-MP2 Energies <==================
	-----------------------------------------------------------
	 SCS Same-Spin Scale       =       0.3333333333333333 [-]
	 SCS Opposite-Spin Scale   =       1.2000000000000000 [-]
	 SCS Same-Spin Energy      =      -0.1699203488447353 [Eh]
	 SCS Opposite-Spin Energy  =      -1.8495940640667210 [Eh]
	 SCS Correlation Energy    =      -2.0195144129114562 [Eh]
	 SCS Total Energy          =    -520.4795587806195272 [Eh]
	-----------------------------------------------------------

  Dipole Moment: [D]
     X:     0.6900      Y:     0.0127      Z:     0.9772     Total:     1.1964

*** Psi4 exiting successfully. Buy a developer a beer!
