                               Psi4 1.3.2 release

  ==> Input File <==

--------------------------------------------------------------------------
#psi4
#
memory 32 gb

molecule  {
0 1
  F        0.8801740    -2.1570240    -0.2741980
  O        1.6462780     0.5481910    -0.4350190
  O       -0.2367630     2.4625430    -0.1451660
  C        0.3476580     0.1463710    -0.1857710
  C       -0.6195240     1.1555560    -0.0645140
  C       -0.0276030    -1.1829809     0.0694735
  C       -1.9594950     0.8272070     0.1461580
  C       -1.3851280    -1.5362190     0.0940810
  C       -2.3313710    -0.5151580     0.2215980
  C        2.5704260     0.1676860     0.6054290
  H       -2.6878360     1.6271100     0.2387920
  H       -1.6577150    -2.5857400     0.1384780
  H       -3.3736110    -0.7729470     0.3882060
  H        2.6849170    -0.9163680     0.6377720
  H        2.2243420     0.5379400     1.5755890
  H        3.5186220     0.6362700     0.3424670
  H        0.7214210     2.4415090    -0.3472440
units angstrom
no_reorient  #important for SAPT in psi4, default
symmetry c1  #important for SAPT in psi4, default
}

set PROPERTIES_ORIGIN ["COM"]
properties('MP2/aug-cc-pvtz', properties = ['dipole'])
--------------------------------------------------------------------------

    Molecular point group: c1
  Charge       = 0
  Multiplicity = 1
  Basis Set: AUG-CC-PVTZ
    Blend: AUG-CC-PVTZ
  Basis Set: (AUG-CC-PVTZ AUX)
    Blend: AUG-CC-PVTZ-JKFIT

    Orbital Energies [Eh]
    ---------------------

    Doubly Occupied:

       1A    -26.312263     2A    -20.600291     3A    -20.595409
       4A    -11.339660     5A    -11.314690     6A    -11.308706
       7A    -11.292595     8A    -11.254325     9A    -11.248575
      10A    -11.243248    11A     -1.620360    12A     -1.427486
      13A     -1.395078    14A     -1.157624    15A     -1.029211
      16A     -1.020705    17A     -0.948705    18A     -0.851433
      19A     -0.847776    20A     -0.758121    21A     -0.741131
      22A     -0.709543    23A     -0.694532    24A     -0.674611
      25A     -0.653765    26A     -0.647049    27A     -0.633661
      28A     -0.620067    29A     -0.589584    30A     -0.573551
      31A     -0.554219    32A     -0.540203    33A     -0.520320
      34A     -0.491099    35A     -0.474103    36A     -0.343886
      37A     -0.323530

  @DF-RHF Final Energy:  -518.46641271543137

   => Energetics <=

    Nuclear Repulsion Energy =            528.6086962398297828
    One-Electron Energy =               -1759.4479940478163371
    Two-Electron Energy =                 712.3728850925550660
    Total Energy =                       -518.4664127154313746
  Basis Set: (AUG-CC-PVTZ AUX)
    Blend: AUG-CC-PVTZ-RI
    Molecular point group: c1

    Geometry (in Angstrom), charge = 0, multiplicity = 1:

       Center              X                  Y                   Z               Mass
    ------------   -----------------  -----------------  -----------------  -----------------
         F            0.881245087733    -2.135208873015    -0.268181881446    18.998403162730
         O            1.647349087733     0.570006126985    -0.429002881446    15.994914619570
         O           -0.235691912267     2.484358126985    -0.139149881446    15.994914619570
         C            0.348729087733     0.168186126985    -0.179754881446    12.000000000000
         C           -0.618452912267     1.177371126985    -0.058497881446    12.000000000000
         C           -0.026531912267    -1.161165773015     0.075489618554    12.000000000000
         C           -1.958423912267     0.849022126985     0.152174118554    12.000000000000
         C           -1.384056912267    -1.514403873015     0.100097118554    12.000000000000
         C           -2.330299912267    -0.493342873015     0.227614118554    12.000000000000
         C            2.571497087733     0.189501126985     0.611445118554    12.000000000000
         H           -2.686764912267     1.648925126985     0.244808118554     1.007825032230
         H           -1.656643912267    -2.563924873015     0.144494118554     1.007825032230
         H           -3.372539912267    -0.751131873015     0.394222118554     1.007825032230
         H            2.685988087733    -0.894552873015     0.643788118554     1.007825032230
         H            2.225413087733     0.559755126985     1.581605118554     1.007825032230
         H            3.519693087733     0.658085126985     0.348483118554     1.007825032230
         H            0.722492087733     2.463324126985    -0.341227881446     1.007825032230

  Basis Set: AUG-CC-PVTZ
    Blend: AUG-CC-PVTZ
  Basis Set: (AUG-CC-PVTZ AUX)
    Blend: AUG-CC-PVTZ-JKFIT
	 Reference Energy          =    -518.4664127154313746 [Eh]
	 Singles Energy            =      -0.0000000000000000 [Eh]
	 Same-Spin Energy          =      -0.5097613903801341 [Eh]
	 Opposite-Spin Energy      =      -1.5406192821142848 [Eh]
	 Correlation Energy        =      -2.0503806724944189 [Eh]
	 Total Energy              =    -520.5167933879257589 [Eh]

	 ================> DF-SCS-MP2 Energies <==================
	-----------------------------------------------------------
	 SCS Same-Spin Scale       =       0.3333333333333333 [-]
	 SCS Opposite-Spin Scale   =       1.2000000000000000 [-]
	 SCS Same-Spin Energy      =      -0.1699204634600447 [Eh]
	 SCS Opposite-Spin Energy  =      -1.8487431385371416 [Eh]
	 SCS Correlation Energy    =      -2.0186636019971864 [Eh]
	 SCS Total Energy          =    -520.4850763174285930 [Eh]
	-----------------------------------------------------------

  Dipole Moment: [D]
     X:     0.5922      Y:    -0.0441      Z:     1.2278     Total:     1.3639

*** Psi4 exiting successfully. Buy a developer a beer!
