                               Psi4 1.3.2 release

  ==> Input File <==

--------------------------------------------------------------------------
#psi4
#
memory 32 gb

molecule  {
0 1
  F        0.8801740    -2.1570240    -0.2741980
  O        1.6462780     0.5481910    -0.4350190
  O       -0.2367630     2.4625430    -0.1451660
  C        0.3476580     0.1463710    -0.1857710
  C       -0.6195240     1.1555560    -0.0645140
  C       -0.0523035    -1.1848807    -0.0784666
  C       -1.9594950     0.8272070     0.1461580
  C       -1.3851280    -1.5362190     0.0940810
  C       -2.3313710    -0.5151580     0.2215980
  C        2.5704260     0.1676860     0.6054290
  H       -2.6878360     1.6271100     0.2387920
  H       -1.6577150    -2.5857400     0.1384780
  H       -3.3736110    -0.7729470     0.3882060
  H        2.6849170    -0.9163680     0.6377720
  H        2.2243420     0.5379400     1.5755890
  H        3.5186220     0.6362700     0.3424670
  H        0.7214210     2.4415090    -0.3472440
units angstrom
no_reorient  #important for SAPT in psi4, default
symmetry c1  #important for SAPT in psi4, default
}

set PROPERTIES_ORIGIN ["COM"]
properties('MP2/aug-cc-pvtz', properties = ['dipole'])
--------------------------------------------------------------------------

    Molecular point group: c1
  Charge       = 0
  Multiplicity = 1
  Basis Set: AUG-CC-PVTZ
    Blend: AUG-CC-PVTZ
  Basis Set: (AUG-CC-PVTZ AUX)
    Blend: AUG-CC-PVTZ-JKFIT

    Orbital Energies [Eh]
    ---------------------

    Doubly Occupied:

       1A    -26.317896     2A    -20.599102     3A    -20.595660
       4A    -11.339277     5A    -11.315279     6A    -11.304225
       7A    -11.291681     8A    -11.254981     9A    -11.244322
      10A    -11.240097    11A     -1.629864    12A     -1.426807
      13A     -1.394596    14A     -1.158884    15A     -1.030050
      16A     -1.021663    17A     -0.947503    18A     -0.853746
      19A     -0.849518    20A     -0.759438    21A     -0.747074
      22A     -0.710981    23A     -0.700095    24A     -0.676830
      25A     -0.653684    26A     -0.646792    27A     -0.635194
      28A     -0.621037    29A     -0.589766    30A     -0.573715
      31A     -0.553936    32A     -0.540646    33A     -0.519873
      34A     -0.490936    35A     -0.473600    36A     -0.343450
      37A     -0.324930

  @DF-RHF Final Energy:  -518.47852325216718

   => Energetics <=

    Nuclear Repulsion Energy =            529.0185662815229080
    One-Electron Energy =               -1760.2399177204142688
    Two-Electron Energy =                 712.7428281867241822
    Total Energy =                       -518.4785232521671787
  Basis Set: (AUG-CC-PVTZ AUX)
    Blend: AUG-CC-PVTZ-RI
    Molecular point group: c1

    Geometry (in Angstrom), charge = 0, multiplicity = 1:

       Center              X                  Y                   Z               Mass
    ------------   -----------------  -----------------  -----------------  -----------------
         F            0.883331821920    -2.135048375146    -0.255683686501    18.998403162730
         O            1.649435821920     0.570166624854    -0.416504686501    15.994914619570
         O           -0.233605178080     2.484518624854    -0.126651686501    15.994914619570
         C            0.350815821920     0.168346624854    -0.167256686501    12.000000000000
         C           -0.616366178080     1.177531624854    -0.045999686501    12.000000000000
         C           -0.049145678080    -1.162905075146    -0.059952286501    12.000000000000
         C           -1.956337178080     0.849182624854     0.164672313499    12.000000000000
         C           -1.381970178080    -1.514243375146     0.112595313499    12.000000000000
         C           -2.328213178080    -0.493182375146     0.240112313499    12.000000000000
         C            2.573583821920     0.189661624854     0.623943313499    12.000000000000
         H           -2.684678178080     1.649085624854     0.257306313499     1.007825032230
         H           -1.654557178080    -2.563764375146     0.156992313499     1.007825032230
         H           -3.370453178080    -0.750971375146     0.406720313499     1.007825032230
         H            2.688074821920    -0.894392375146     0.656286313499     1.007825032230
         H            2.227499821920     0.559915624854     1.594103313499     1.007825032230
         H            3.521779821920     0.658245624854     0.360981313499     1.007825032230
         H            0.724578821920     2.463484624854    -0.328729686501     1.007825032230

  Basis Set: AUG-CC-PVTZ
    Blend: AUG-CC-PVTZ
  Basis Set: (AUG-CC-PVTZ AUX)
    Blend: AUG-CC-PVTZ-JKFIT
	 Reference Energy          =    -518.4785232521671787 [Eh]
	 Singles Energy            =      -0.0000000000000000 [Eh]
	 Same-Spin Energy          =      -0.5089813818830482 [Eh]
	 Opposite-Spin Energy      =      -1.5384597726191569 [Eh]
	 Correlation Energy        =      -2.0474411545022049 [Eh]
	 Total Energy              =    -520.5259644066693454 [Eh]

	 ================> DF-SCS-MP2 Energies <==================
	-----------------------------------------------------------
	 SCS Same-Spin Scale       =       0.3333333333333333 [-]
	 SCS Opposite-Spin Scale   =       1.2000000000000000 [-]
	 SCS Same-Spin Energy      =      -0.1696604606276827 [Eh]
	 SCS Opposite-Spin Energy  =      -1.8461517271429881 [Eh]
	 SCS Correlation Energy    =      -2.0158121877706709 [Eh]
	 SCS Total Energy          =    -520.4943354399377995 [Eh]
	-----------------------------------------------------------

  Dipole Moment: [D]
     X:     0.6516      Y:    -0.1563      Z:     1.1832     Total:     1.3598

*** Psi4 exiting successfully. Buy a developer a beer!
