                               Psi4 1.3.2 release

  ==> Input File <==

--------------------------------------------------------------------------
#psi4
#
memory 32 gb

molecule  {
0 1
  F        0.8801740    -2.1570240    -0.2741980
  O        1.6462780     0.5481910    -0.4350190
  O       -0.2367630     2.4625430    -0.1451660
  C        0.3476580     0.1463710    -0.1857710
  C       -0.6195240     1.1555560    -0.0645140
  C       -0.0605370    -1.1855140    -0.1277800
  C       -1.9965374     0.8221939    -0.1010317
  C       -1.3851280    -1.5362190     0.0940810
  C       -2.3313710    -0.5151580     0.2215980
  C        2.5704260     0.1676860     0.6054290
  H       -2.6878360     1.6271100     0.2387920
  H       -1.6577150    -2.5857400     0.1384780
  H       -3.3736110    -0.7729470     0.3882060
  H        2.6849170    -0.9163680     0.6377720
  H        2.2243420     0.5379400     1.5755890
  H        3.5186220     0.6362700     0.3424670
  H        0.7214210     2.4415090    -0.3472440
units angstrom
no_reorient  #important for SAPT in psi4, default
symmetry c1  #important for SAPT in psi4, default
}

set PROPERTIES_ORIGIN ["COM"]
properties('MP2/aug-cc-pvtz', properties = ['dipole'])
--------------------------------------------------------------------------

    Molecular point group: c1
  Charge       = 0
  Multiplicity = 1
  Basis Set: AUG-CC-PVTZ
    Blend: AUG-CC-PVTZ
  Basis Set: (AUG-CC-PVTZ AUX)
    Blend: AUG-CC-PVTZ-JKFIT

    Orbital Energies [Eh]
    ---------------------

    Doubly Occupied:

       1A    -26.320567     2A    -20.599851     3A    -20.597188
       4A    -11.342861     5A    -11.320148     6A    -11.303627
       7A    -11.291711     8A    -11.259750     9A    -11.244507
      10A    -11.243956    11A     -1.632691    12A     -1.427582
      13A     -1.395435    14A     -1.157474    15A     -1.028930
      16A     -1.019796    17A     -0.947117    18A     -0.852968
      19A     -0.848386    20A     -0.759948    21A     -0.748560
      22A     -0.710549    23A     -0.701035    24A     -0.677581
      25A     -0.653171    26A     -0.641276    27A     -0.634481
      28A     -0.621797    29A     -0.591027    30A     -0.571035
      31A     -0.551243    32A     -0.537391    33A     -0.516595
      34A     -0.486163    35A     -0.474866    36A     -0.343616
      37A     -0.325304

  @DF-RHF Final Energy:  -518.46137657290853

   => Energetics <=

    Nuclear Repulsion Energy =            528.2328619506052974
    One-Electron Energy =               -1758.6281144673353083
    Two-Electron Energy =                 711.9338759438215902
    Total Energy =                       -518.4613765729085344
  Basis Set: (AUG-CC-PVTZ AUX)
    Blend: AUG-CC-PVTZ-RI
    Molecular point group: c1

    Geometry (in Angstrom), charge = 0, multiplicity = 1:

       Center              X                  Y                   Z               Mass
    ------------   -----------------  -----------------  -----------------  -----------------
         F            0.887156795842    -2.134571359057    -0.230634673111    18.998403162730
         O            1.653260795842     0.570643640943    -0.391455673111    15.994914619570
         O           -0.229780204158     2.484995640943    -0.101602673111    15.994914619570
         C            0.354640795842     0.168823640943    -0.142207673111    12.000000000000
         C           -0.612541204158     1.178008640943    -0.020950673111    12.000000000000
         C           -0.053554204158    -1.163061359057    -0.084216673111    12.000000000000
         C           -1.989554604158     0.844646540943    -0.057468373111    12.000000000000
         C           -1.378145204158    -1.513766359057     0.137644326889    12.000000000000
         C           -2.324388204158    -0.492705359057     0.265161326889    12.000000000000
         C            2.577408795842     0.190138640943     0.648992326889    12.000000000000
         H           -2.680853204158     1.649562640943     0.282355326889     1.007825032230
         H           -1.650732204158    -2.563287359057     0.182041326889     1.007825032230
         H           -3.366628204158    -0.750494359057     0.431769326889     1.007825032230
         H            2.691899795842    -0.893915359057     0.681335326889     1.007825032230
         H            2.231324795842     0.560392640943     1.619152326889     1.007825032230
         H            3.525604795842     0.658722640943     0.386030326889     1.007825032230
         H            0.728403795842     2.463961640943    -0.303680673111     1.007825032230

  Basis Set: AUG-CC-PVTZ
    Blend: AUG-CC-PVTZ
  Basis Set: (AUG-CC-PVTZ AUX)
    Blend: AUG-CC-PVTZ-JKFIT
	 Reference Energy          =    -518.4613765729085344 [Eh]
	 Singles Energy            =      -0.0000000000000000 [Eh]
	 Same-Spin Energy          =      -0.5097418283441320 [Eh]
	 Opposite-Spin Energy      =      -1.5409169798123916 [Eh]
	 Correlation Energy        =      -2.0506588081565233 [Eh]
	 Total Energy              =    -520.5120353810650613 [Eh]

	 ================> DF-SCS-MP2 Energies <==================
	-----------------------------------------------------------
	 SCS Same-Spin Scale       =       0.3333333333333333 [-]
	 SCS Opposite-Spin Scale   =       1.2000000000000000 [-]
	 SCS Same-Spin Energy      =      -0.1699139427813773 [Eh]
	 SCS Opposite-Spin Energy  =      -1.8491003757748699 [Eh]
	 SCS Correlation Energy    =      -2.0190143185562470 [Eh]
	 SCS Total Energy          =    -520.4803908914648218 [Eh]
	-----------------------------------------------------------

  Dipole Moment: [D]
     X:     0.7980      Y:    -0.2496      Z:     1.3369     Total:     1.5769

*** Psi4 exiting successfully. Buy a developer a beer!
