                               Psi4 1.3.2 release

  ==> Input File <==

--------------------------------------------------------------------------
#psi4
#
memory 32 gb

molecule  {
0 1
  F        0.8801740    -2.1570240    -0.2741980
  O        1.6462780     0.5481910    -0.4350190
  O       -0.2367630     2.4625430    -0.1451660
  C        0.3476580     0.1463710    -0.1857710
  C       -0.6195240     1.1555560    -0.0645140
  C       -0.0358365    -1.1836141     0.0201601
  C       -1.9594950     0.8272070     0.1461580
  C       -1.3851280    -1.5362190     0.0940810
  C       -2.3313710    -0.5151580     0.2215980
  C        2.5704260     0.1676860     0.6054290
  H       -2.6878360     1.6271100     0.2387920
  H       -1.6577150    -2.5857400     0.1384780
  H       -3.3736110    -0.7729470     0.3882060
  H        2.6849170    -0.9163680     0.6377720
  H        2.2243420     0.5379400     1.5755890
  H        3.5186220     0.6362700     0.3424670
  H        0.7214210     2.4415090    -0.3472440
units angstrom
no_reorient  #important for SAPT in psi4, default
symmetry c1  #important for SAPT in psi4, default
}

set PROPERTIES_ORIGIN ["COM"]
properties('MP2/aug-cc-pvtz', properties = ['dipole'])
--------------------------------------------------------------------------

    Molecular point group: c1
  Charge       = 0
  Multiplicity = 1
  Basis Set: AUG-CC-PVTZ
    Blend: AUG-CC-PVTZ
  Basis Set: (AUG-CC-PVTZ AUX)
    Blend: AUG-CC-PVTZ-JKFIT

    Orbital Energies [Eh]
    ---------------------

    Doubly Occupied:

       1A    -26.314882     2A    -20.599806     3A    -20.595498
       4A    -11.339452     5A    -11.314916     6A    -11.306717
       7A    -11.292294     8A    -11.254563     9A    -11.246651
      10A    -11.241780    11A     -1.624734    12A     -1.427204
      13A     -1.394881    14A     -1.158197    15A     -1.029604
      16A     -1.021134    17A     -0.948329    18A     -0.852522
      19A     -0.848573    20A     -0.758741    21A     -0.743857
      22A     -0.710030    23A     -0.697282    24A     -0.675711
      25A     -0.653736    26A     -0.647096    27A     -0.634421
      28A     -0.620472    29A     -0.589625    30A     -0.573622
      31A     -0.554156    32A     -0.540306    33A     -0.520198
      34A     -0.491145    35A     -0.474087    36A     -0.343640
      37A     -0.324109

  @DF-RHF Final Energy:  -518.47212979844176

   => Energetics <=

    Nuclear Repulsion Energy =            528.8237013521832068
    One-Electron Energy =               -1759.8637292248265567
    Two-Electron Energy =                 712.5678980742015938
    Total Energy =                       -518.4721297984417561
  Basis Set: (AUG-CC-PVTZ AUX)
    Blend: AUG-CC-PVTZ-RI
    Molecular point group: c1

    Geometry (in Angstrom), charge = 0, multiplicity = 1:

       Center              X                  Y                   Z               Mass
    ------------   -----------------  -----------------  -----------------  -----------------
         F            0.881940665795    -2.135155379358    -0.264015813648    18.998403162730
         O            1.648044665795     0.570059620642    -0.424836813648    15.994914619570
         O           -0.234996334205     2.484411620642    -0.134983813648    15.994914619570
         C            0.349424665795     0.168239620642    -0.175588813648    12.000000000000
         C           -0.617757334205     1.177424620642    -0.054331813648    12.000000000000
         C           -0.034069834205    -1.161745479358     0.030342286352    12.000000000000
         C           -1.957728334205     0.849075620642     0.156340186352    12.000000000000
         C           -1.383361334205    -1.514350379358     0.104263186352    12.000000000000
         C           -2.329604334205    -0.493289379358     0.231780186352    12.000000000000
         C            2.572192665795     0.189554620642     0.615611186352    12.000000000000
         H           -2.686069334205     1.648978620642     0.248974186352     1.007825032230
         H           -1.655948334205    -2.563871379358     0.148660186352     1.007825032230
         H           -3.371844334205    -0.751078379358     0.398388186352     1.007825032230
         H            2.686683665795    -0.894499379358     0.647954186352     1.007825032230
         H            2.226108665795     0.559808620642     1.585771186352     1.007825032230
         H            3.520388665795     0.658138620642     0.352649186352     1.007825032230
         H            0.723187665795     2.463377620642    -0.337061813648     1.007825032230

  Basis Set: AUG-CC-PVTZ
    Blend: AUG-CC-PVTZ
  Basis Set: (AUG-CC-PVTZ AUX)
    Blend: AUG-CC-PVTZ-JKFIT
	 Reference Energy          =    -518.4721297984417561 [Eh]
	 Singles Energy            =      -0.0000000000000000 [Eh]
	 Same-Spin Energy          =      -0.5094186785170438 [Eh]
	 Opposite-Spin Energy      =      -1.5395731101051013 [Eh]
	 Correlation Energy        =      -2.0489917886221454 [Eh]
	 Total Energy              =    -520.5211215870639307 [Eh]

	 ================> DF-SCS-MP2 Energies <==================
	-----------------------------------------------------------
	 SCS Same-Spin Scale       =       0.3333333333333333 [-]
	 SCS Opposite-Spin Scale   =       1.2000000000000000 [-]
	 SCS Same-Spin Energy      =      -0.1698062261723479 [Eh]
	 SCS Opposite-Spin Energy  =      -1.8474877321261216 [Eh]
	 SCS Correlation Energy    =      -2.0172939582984695 [Eh]
	 SCS Total Energy          =    -520.4894237567402797 [Eh]
	-----------------------------------------------------------

  Dipole Moment: [D]
     X:     0.6234      Y:    -0.0953      Z:     1.2133     Total:     1.3674

*** Psi4 exiting successfully. Buy a developer a beer!
