                               Psi4 1.3.2 release

  ==> Input File <==

--------------------------------------------------------------------------
#psi4
#
memory 32 gb

molecule  {
0 1
  F        0.8801740    -2.1570240    -0.2741980
  O        1.6462780     0.5481910    -0.4350190
  O       -0.2367630     2.4625430    -0.1451660
  C        0.3476580     0.1463710    -0.1857710
  C       -0.6195240     1.1555560    -0.0645140
  C       -0.0605370    -1.1855140    -0.1277800
  C       -1.9891289     0.8231965    -0.0515937
  C       -1.3851280    -1.5362190     0.0940810
  C       -2.3313710    -0.5151580     0.2215980
  C        2.5704260     0.1676860     0.6054290
  H       -2.6878360     1.6271100     0.2387920
  H       -1.6577150    -2.5857400     0.1384780
  H       -3.3736110    -0.7729470     0.3882060
  H        2.6849170    -0.9163680     0.6377720
  H        2.2243420     0.5379400     1.5755890
  H        3.5186220     0.6362700     0.3424670
  H        0.7214210     2.4415090    -0.3472440
units angstrom
no_reorient  #important for SAPT in psi4, default
symmetry c1  #important for SAPT in psi4, default
}

set PROPERTIES_ORIGIN ["COM"]
properties('MP2/aug-cc-pvtz', properties = ['dipole'])
--------------------------------------------------------------------------

    Molecular point group: c1
  Charge       = 0
  Multiplicity = 1
  Basis Set: AUG-CC-PVTZ
    Blend: AUG-CC-PVTZ
  Basis Set: (AUG-CC-PVTZ AUX)
    Blend: AUG-CC-PVTZ-JKFIT

    Orbital Energies [Eh]
    ---------------------

    Doubly Occupied:

       1A    -26.319728     2A    -20.599594     3A    -20.596601
       4A    -11.341578     5A    -11.318406     6A    -11.303646
       7A    -11.291576     8A    -11.258074     9A    -11.243941
      10A    -11.242847    11A     -1.631908    12A     -1.427259
      13A     -1.395096    14A     -1.157993    15A     -1.029269
      16A     -1.020581    17A     -0.947088    18A     -0.853199
      19A     -0.848839    20A     -0.759761    21A     -0.748175
      22A     -0.710752    23A     -0.700697    24A     -0.677391
      25A     -0.653075    26A     -0.643268    27A     -0.634692
      28A     -0.621707    29A     -0.590755    30A     -0.571773
      31A     -0.552192    32A     -0.538467    33A     -0.517912
      34A     -0.487440    35A     -0.474606    36A     -0.343516
      37A     -0.325286

  @DF-RHF Final Energy:  -518.46795057518534

   => Energetics <=

    Nuclear Repulsion Energy =            528.4975909259517266
    One-Electron Energy =               -1759.1737133383655873
    Two-Electron Energy =                 712.2081718372285195
    Total Energy =                       -518.4679505751853412
  Basis Set: (AUG-CC-PVTZ AUX)
    Blend: AUG-CC-PVTZ-RI
    Molecular point group: c1

    Geometry (in Angstrom), charge = 0, multiplicity = 1:

       Center              X                  Y                   Z               Mass
    ------------   -----------------  -----------------  -----------------  -----------------
         F            0.886530914980    -2.134656060164    -0.234811267298    18.998403162730
         O            1.652634914980     0.570558939836    -0.395632267298    15.994914619570
         O           -0.230406085020     2.484910939836    -0.105779267298    15.994914619570
         C            0.354014914980     0.168738939836    -0.146384267298    12.000000000000
         C           -0.613167085020     1.177923939836    -0.025127267298    12.000000000000
         C           -0.054180085020    -1.163146060164    -0.088393267298    12.000000000000
         C           -1.982771985020     0.845564439836    -0.012206967298    12.000000000000
         C           -1.378771085020    -1.513851060164     0.133467732702    12.000000000000
         C           -2.325014085020    -0.492790060164     0.260984732702    12.000000000000
         C            2.576782914980     0.190053939836     0.644815732702    12.000000000000
         H           -2.681479085020     1.649477939836     0.278178732702     1.007825032230
         H           -1.651358085020    -2.563372060164     0.177864732702     1.007825032230
         H           -3.367254085020    -0.750579060164     0.427592732702     1.007825032230
         H            2.691273914980    -0.894000060164     0.677158732702     1.007825032230
         H            2.230698914980     0.560307939836     1.614975732702     1.007825032230
         H            3.524978914980     0.658637939836     0.381853732702     1.007825032230
         H            0.727777914980     2.463876939836    -0.307857267298     1.007825032230

  Basis Set: AUG-CC-PVTZ
    Blend: AUG-CC-PVTZ
  Basis Set: (AUG-CC-PVTZ AUX)
    Blend: AUG-CC-PVTZ-JKFIT
	 Reference Energy          =    -518.4679505751853412 [Eh]
	 Singles Energy            =      -0.0000000000000000 [Eh]
	 Same-Spin Energy          =      -0.5094473522123737 [Eh]
	 Opposite-Spin Energy      =      -1.5399562914047151 [Eh]
	 Correlation Energy        =      -2.0494036436170888 [Eh]
	 Total Energy              =    -520.5173542188024385 [Eh]

	 ================> DF-SCS-MP2 Energies <==================
	-----------------------------------------------------------
	 SCS Same-Spin Scale       =       0.3333333333333333 [-]
	 SCS Opposite-Spin Scale   =       1.2000000000000000 [-]
	 SCS Same-Spin Energy      =      -0.1698157840707912 [Eh]
	 SCS Opposite-Spin Energy  =      -1.8479475496856581 [Eh]
	 SCS Correlation Energy    =      -2.0177633337564496 [Eh]
	 SCS Total Energy          =    -520.4857139089417615 [Eh]
	-----------------------------------------------------------

  Dipole Moment: [D]
     X:     0.7482      Y:    -0.2201      Z:     1.3040     Total:     1.5194

*** Psi4 exiting successfully. Buy a developer a beer!
