                               Psi4 1.3.2 release

  ==> Input File <==

--------------------------------------------------------------------------
#psi4
#
memory 32 gb

molecule  {
0 1
  F        0.8801740    -2.1570240    -0.2741980
  O        1.6462780     0.5481910    -0.4350190
  O       -0.2367630     2.4625430    -0.1451660
  C        0.3476580     0.1463710    -0.1857710
  C       -0.6195240     1.1555560    -0.0645140
  C       -0.0605370    -1.1855140    -0.1277800
  C       -1.9594950     0.8272070     0.1461580
  C       -1.3691039    -1.5363038     0.1927888
  C       -2.3313710    -0.5151580     0.2215980
  C        2.5704260     0.1676860     0.6054290
  H       -2.6878360     1.6271100     0.2387920
  H       -1.6577150    -2.5857400     0.1384780
  H       -3.3736110    -0.7729470     0.3882060
  H        2.6849170    -0.9163680     0.6377720
  H        2.2243420     0.5379400     1.5755890
  H        3.5186220     0.6362700     0.3424670
  H        0.7214210     2.4415090    -0.3472440
units angstrom
no_reorient  #important for SAPT in psi4, default
symmetry c1  #important for SAPT in psi4, default
}

set PROPERTIES_ORIGIN ["COM"]
properties('MP2/aug-cc-pvtz', properties = ['dipole'])
--------------------------------------------------------------------------

    Molecular point group: c1
  Charge       = 0
  Multiplicity = 1
  Basis Set: AUG-CC-PVTZ
    Blend: AUG-CC-PVTZ
  Basis Set: (AUG-CC-PVTZ AUX)
    Blend: AUG-CC-PVTZ-JKFIT

    Orbital Energies [Eh]
    ---------------------

    Doubly Occupied:

       1A    -26.318496     2A    -20.598836     3A    -20.596268
       4A    -11.340446     5A    -11.316152     6A    -11.303715
       7A    -11.291357     8A    -11.256292     9A    -11.244860
      10A    -11.239868    11A     -1.630771    12A     -1.426906
      13A     -1.394767    14A     -1.158444    15A     -1.030031
      16A     -1.021297    17A     -0.946954    18A     -0.853783
      19A     -0.849238    20A     -0.759256    21A     -0.747535
      22A     -0.711807    23A     -0.699755    24A     -0.676476
      25A     -0.653882    26A     -0.646011    27A     -0.634311
      28A     -0.621053    29A     -0.590097    30A     -0.573289
      31A     -0.553328    32A     -0.540630    33A     -0.519889
      34A     -0.488627    35A     -0.473967    36A     -0.343383
      37A     -0.325268

  @DF-RHF Final Energy:  -518.47589782479656

   => Energetics <=

    Nuclear Repulsion Energy =            528.8811618912427548
    One-Electron Energy =               -1759.9600274368106056
    Two-Electron Energy =                 712.6029677207712894
    Total Energy =                       -518.4758978247965615
  Basis Set: (AUG-CC-PVTZ AUX)
    Blend: AUG-CC-PVTZ-RI
    Molecular point group: c1

    Geometry (in Angstrom), charge = 0, multiplicity = 1:

       Center              X                  Y                   Z               Mass
    ------------   -----------------  -----------------  -----------------  -----------------
         F            0.882673660694    -2.134987709013    -0.259856597296    18.998403162730
         O            1.648777660694     0.570227290987    -0.420677597296    15.994914619570
         O           -0.234263339306     2.484579290987    -0.130824597296    15.994914619570
         C            0.350157660694     0.168407290987    -0.171429597296    12.000000000000
         C           -0.617024339306     1.177592290987    -0.050172597296    12.000000000000
         C           -0.058037339306    -1.163477709013    -0.113438597296    12.000000000000
         C           -1.956995339306     0.849243290987     0.160499402704    12.000000000000
         C           -1.366604239306    -1.514267509013     0.207130202704    12.000000000000
         C           -2.328871339306    -0.493121709013     0.235939402704    12.000000000000
         C            2.572925660694     0.189722290987     0.619770402704    12.000000000000
         H           -2.685336339306     1.649146290987     0.253133402704     1.007825032230
         H           -1.655215339306    -2.563703709013     0.152819402704     1.007825032230
         H           -3.371111339306    -0.750910709013     0.402547402704     1.007825032230
         H            2.687416660694    -0.894331709013     0.652113402704     1.007825032230
         H            2.226841660694     0.559976290987     1.589930402704     1.007825032230
         H            3.521121660694     0.658306290987     0.356808402704     1.007825032230
         H            0.723920660694     2.463545290987    -0.332902597296     1.007825032230

  Basis Set: AUG-CC-PVTZ
    Blend: AUG-CC-PVTZ
  Basis Set: (AUG-CC-PVTZ AUX)
    Blend: AUG-CC-PVTZ-JKFIT
	 Reference Energy          =    -518.4758978247965615 [Eh]
	 Singles Energy            =      -0.0000000000000000 [Eh]
	 Same-Spin Energy          =      -0.5090563915243095 [Eh]
	 Opposite-Spin Energy      =      -1.5388614592211081 [Eh]
	 Correlation Energy        =      -2.0479178507454177 [Eh]
	 Total Energy              =    -520.5238156755419823 [Eh]

	 ================> DF-SCS-MP2 Energies <==================
	-----------------------------------------------------------
	 SCS Same-Spin Scale       =       0.3333333333333333 [-]
	 SCS Opposite-Spin Scale   =       1.2000000000000000 [-]
	 SCS Same-Spin Energy      =      -0.1696854638414365 [Eh]
	 SCS Opposite-Spin Energy  =      -1.8466337510653297 [Eh]
	 SCS Correlation Energy    =      -2.0163192149067664 [Eh]
	 SCS Total Energy          =    -520.4922170397032914 [Eh]
	-----------------------------------------------------------

  Dipole Moment: [D]
     X:     0.6499      Y:    -0.1352      Z:     1.0971     Total:     1.2822

*** Psi4 exiting successfully. Buy a developer a beer!
