                               Psi4 1.3.2 release

  ==> Input File <==

--------------------------------------------------------------------------
#psi4
#
memory 32 gb

molecule  {
0 1
  F        0.8801740    -2.1570240    -0.2741980
  O        1.6462780     0.5481910    -0.4350190
  O       -0.2367630     2.4625430    -0.1451660
  C        0.3476580     0.1463710    -0.1857710
  C       -0.6195240     1.1555560    -0.0645140
  C       -0.0605370    -1.1855140    -0.1277800
  C       -1.9669035     0.8262044     0.0967201
  C       -1.3851280    -1.5362190     0.0940810
  C       -2.3313710    -0.5151580     0.2215980
  C        2.5704260     0.1676860     0.6054290
  H       -2.6878360     1.6271100     0.2387920
  H       -1.6577150    -2.5857400     0.1384780
  H       -3.3736110    -0.7729470     0.3882060
  H        2.6849170    -0.9163680     0.6377720
  H        2.2243420     0.5379400     1.5755890
  H        3.5186220     0.6362700     0.3424670
  H        0.7214210     2.4415090    -0.3472440
units angstrom
no_reorient  #important for SAPT in psi4, default
symmetry c1  #important for SAPT in psi4, default
}

set PROPERTIES_ORIGIN ["COM"]
properties('MP2/aug-cc-pvtz', properties = ['dipole'])
--------------------------------------------------------------------------

    Molecular point group: c1
  Charge       = 0
  Multiplicity = 1
  Basis Set: AUG-CC-PVTZ
    Blend: AUG-CC-PVTZ
  Basis Set: (AUG-CC-PVTZ AUX)
    Blend: AUG-CC-PVTZ-JKFIT

    Orbital Energies [Eh]
    ---------------------

    Doubly Occupied:

       1A    -26.318365     2A    -20.599017     3A    -20.595723
       4A    -11.339492     5A    -11.315519     6A    -11.303732
       7A    -11.291388     8A    -11.255272     9A    -11.243952
      10A    -11.240022    11A     -1.630636    12A     -1.426725
      13A     -1.394541    14A     -1.158914    15A     -1.030032
      16A     -1.021687    17A     -0.947073    18A     -0.853729
      19A     -0.849601    20A     -0.759497    21A     -0.747547
      22A     -0.711304    23A     -0.700207    24A     -0.676979
      25A     -0.653434    26A     -0.646458    27A     -0.635120
      28A     -0.621357    29A     -0.590063    30A     -0.573468
      31A     -0.553627    32A     -0.540662    33A     -0.519646
      34A     -0.490097    35A     -0.473597    36A     -0.343456
      37A     -0.325212

  @DF-RHF Final Energy:  -518.47857344796921

   => Energetics <=

    Nuclear Repulsion Energy =            528.9579326718123866
    One-Electron Energy =               -1760.1187096317132728
    Two-Electron Energy =                 712.6822035119316752
    Total Energy =                       -518.4785734479692110
  Basis Set: (AUG-CC-PVTZ AUX)
    Blend: AUG-CC-PVTZ-RI
    Molecular point group: c1

    Geometry (in Angstrom), charge = 0, multiplicity = 1:

       Center              X                  Y                   Z               Mass
    ------------   -----------------  -----------------  -----------------  -----------------
         F            0.884653280844    -2.134910171934    -0.247341032964    18.998403162730
         O            1.650757280844     0.570304828066    -0.408162032964    15.994914619570
         O           -0.232283719156     2.484656828066    -0.118309032964    15.994914619570
         C            0.352137280844     0.168484828066    -0.158914032964    12.000000000000
         C           -0.615044719156     1.177669828066    -0.037657032964    12.000000000000
         C           -0.056057719156    -1.163400171934    -0.100923032964    12.000000000000
         C           -1.962424219156     0.848318228066     0.123577067036    12.000000000000
         C           -1.380648719156    -1.514105171934     0.120937967036    12.000000000000
         C           -2.326891719156    -0.493044171934     0.248454967036    12.000000000000
         C            2.574905280844     0.189799828066     0.632285967036    12.000000000000
         H           -2.683356719156     1.649223828066     0.265648967036     1.007825032230
         H           -1.653235719156    -2.563626171934     0.165334967036     1.007825032230
         H           -3.369131719156    -0.750833171934     0.415062967036     1.007825032230
         H            2.689396280844    -0.894254171934     0.664628967036     1.007825032230
         H            2.228821280844     0.560053828066     1.602445967036     1.007825032230
         H            3.523101280844     0.658383828066     0.369323967036     1.007825032230
         H            0.725900280844     2.463622828066    -0.320387032964     1.007825032230

  Basis Set: AUG-CC-PVTZ
    Blend: AUG-CC-PVTZ
  Basis Set: (AUG-CC-PVTZ AUX)
    Blend: AUG-CC-PVTZ-JKFIT
	 Reference Energy          =    -518.4785734479692110 [Eh]
	 Singles Energy            =      -0.0000000000000000 [Eh]
	 Same-Spin Energy          =      -0.5089373472155652 [Eh]
	 Opposite-Spin Energy      =      -1.5384094854419714 [Eh]
	 Correlation Energy        =      -2.0473468326575368 [Eh]
	 Total Energy              =    -520.5259202806267922 [Eh]

	 ================> DF-SCS-MP2 Energies <==================
	-----------------------------------------------------------
	 SCS Same-Spin Scale       =       0.3333333333333333 [-]
	 SCS Opposite-Spin Scale   =       1.2000000000000000 [-]
	 SCS Same-Spin Energy      =      -0.1696457824051884 [Eh]
	 SCS Opposite-Spin Energy  =      -1.8460913825303655 [Eh]
	 SCS Correlation Energy    =      -2.0157371649355538 [Eh]
	 SCS Total Energy          =    -520.4943106129047692 [Eh]
	-----------------------------------------------------------

  Dipole Moment: [D]
     X:     0.6582      Y:    -0.1696      Z:     1.2038     Total:     1.3824

*** Psi4 exiting successfully. Buy a developer a beer!
