                               Psi4 1.3.2 release

  ==> Input File <==

--------------------------------------------------------------------------
#psi4
#
memory 32 gb

molecule  {
0 1
  F        0.8801740    -2.1570240    -0.2741980
  O        1.6462780     0.5481910    -0.4350190
  O       -0.2367630     2.4625430    -0.1451660
  C        0.3476580     0.1463710    -0.1857710
  C       -0.6195240     1.1555560    -0.0645140
  C       -0.0605370    -1.1855140    -0.1277800
  C       -1.9743120     0.8252018     0.0472821
  C       -1.3851280    -1.5362190     0.0940810
  C       -2.3313710    -0.5151580     0.2215980
  C        2.5704260     0.1676860     0.6054290
  H       -2.6878360     1.6271100     0.2387920
  H       -1.6577150    -2.5857400     0.1384780
  H       -3.3736110    -0.7729470     0.3882060
  H        2.6849170    -0.9163680     0.6377720
  H        2.2243420     0.5379400     1.5755890
  H        3.5186220     0.6362700     0.3424670
  H        0.7214210     2.4415090    -0.3472440
units angstrom
no_reorient  #important for SAPT in psi4, default
symmetry c1  #important for SAPT in psi4, default
}

set PROPERTIES_ORIGIN ["COM"]
properties('MP2/aug-cc-pvtz', properties = ['dipole'])
--------------------------------------------------------------------------

    Molecular point group: c1
  Charge       = 0
  Multiplicity = 1
  Basis Set: AUG-CC-PVTZ
    Blend: AUG-CC-PVTZ
  Basis Set: (AUG-CC-PVTZ AUX)
    Blend: AUG-CC-PVTZ-JKFIT

    Orbital Energies [Eh]
    ---------------------

    Doubly Occupied:

       1A    -26.318631     2A    -20.599181     3A    -20.595868
       4A    -11.339897     5A    -11.316071     6A    -11.303706
       7A    -11.291418     8A    -11.255816     9A    -11.243947
      10A    -11.240585    11A     -1.630884    12A     -1.426832
      13A     -1.394650    14A     -1.158728    15A     -1.029862
      16A     -1.021483    17A     -0.947074    18A     -0.853605
      19A     -0.849452    20A     -0.759541    21A     -0.747675
      22A     -0.711180    23A     -0.700281    24A     -0.677102
      25A     -0.653200    26A     -0.645941    27A     -0.635007
      28A     -0.621489    29A     -0.590278    30A     -0.573047
      31A     -0.553323    32A     -0.540158    33A     -0.519361
      34A     -0.489390    35A     -0.473974    36A     -0.343453
      37A     -0.325249

  @DF-RHF Final Energy:  -518.47651715127915

   => Energetics <=

    Nuclear Repulsion Energy =            528.8617372275033404
    One-Electron Energy =               -1759.9218257531185827
    Two-Electron Energy =                 712.5835713743362021
    Total Energy =                       -518.4765171512791539
  Basis Set: (AUG-CC-PVTZ AUX)
    Blend: AUG-CC-PVTZ-RI
    Molecular point group: c1

    Geometry (in Angstrom), charge = 0, multiplicity = 1:

       Center              X                  Y                   Z               Mass
    ------------   -----------------  -----------------  -----------------  -----------------
         F            0.885279161705    -2.134825470827    -0.243164438776    18.998403162730
         O            1.651383161705     0.570389529173    -0.403985438776    15.994914619570
         O           -0.231657838295     2.484741529173    -0.114132438776    15.994914619570
         C            0.352763161705     0.168569529173    -0.154737438776    12.000000000000
         C           -0.614418838295     1.177754529173    -0.033480438776    12.000000000000
         C           -0.055431838295    -1.163315470827    -0.096746438776    12.000000000000
         C           -1.969206838295     0.847400329173     0.078315661224    12.000000000000
         C           -1.380022838295    -1.514020470827     0.125114561224    12.000000000000
         C           -2.326265838295    -0.492959470827     0.252631561224    12.000000000000
         C            2.575531161705     0.189884529173     0.636462561224    12.000000000000
         H           -2.682730838295     1.649308529173     0.269825561224     1.007825032230
         H           -1.652609838295    -2.563541470827     0.169511561224     1.007825032230
         H           -3.368505838295    -0.750748470827     0.419239561224     1.007825032230
         H            2.690022161705    -0.894169470827     0.668805561224     1.007825032230
         H            2.229447161705     0.560138529173     1.606622561224     1.007825032230
         H            3.523727161705     0.658468529173     0.373500561224     1.007825032230
         H            0.726526161705     2.463707529173    -0.316210438776     1.007825032230

  Basis Set: AUG-CC-PVTZ
    Blend: AUG-CC-PVTZ
  Basis Set: (AUG-CC-PVTZ AUX)
    Blend: AUG-CC-PVTZ-JKFIT
	 Reference Energy          =    -518.4765171512791539 [Eh]
	 Singles Energy            =      -0.0000000000000000 [Eh]
	 Same-Spin Energy          =      -0.5090412045618147 [Eh]
	 Opposite-Spin Energy      =      -1.5386878226555836 [Eh]
	 Correlation Energy        =      -2.0477290272173985 [Eh]
	 Total Energy              =    -520.5242461784965826 [Eh]

	 ================> DF-SCS-MP2 Energies <==================
	-----------------------------------------------------------
	 SCS Same-Spin Scale       =       0.3333333333333333 [-]
	 SCS Opposite-Spin Scale   =       1.2000000000000000 [-]
	 SCS Same-Spin Energy      =      -0.1696804015206049 [Eh]
	 SCS Opposite-Spin Energy  =      -1.8464253871867002 [Eh]
	 SCS Correlation Energy    =      -2.0161057887073053 [Eh]
	 SCS Total Energy          =    -520.4926229399864042 [Eh]
	-----------------------------------------------------------

  Dipole Moment: [D]
     X:     0.6781      Y:    -0.1799      Z:     1.2376     Total:     1.4226

*** Psi4 exiting successfully. Buy a developer a beer!
