                               Psi4 1.3.2 release

  ==> Input File <==

--------------------------------------------------------------------------
#psi4
#
memory 32 gb

molecule  {
0 1
  F        0.8801740    -2.1570240    -0.2741980
  O        1.6462780     0.5481910    -0.4350190
  O       -0.2367630     2.4625430    -0.1451660
  C        0.3476580     0.1463710    -0.1857710
  C       -0.6195240     1.1555560    -0.0645140
  C       -0.0605370    -1.1855140    -0.1277800
  C       -1.9817205     0.8241991    -0.0021558
  C       -1.3851280    -1.5362190     0.0940810
  C       -2.3313710    -0.5151580     0.2215980
  C        2.5704260     0.1676860     0.6054290
  H       -2.6878360     1.6271100     0.2387920
  H       -1.6577150    -2.5857400     0.1384780
  H       -3.3736110    -0.7729470     0.3882060
  H        2.6849170    -0.9163680     0.6377720
  H        2.2243420     0.5379400     1.5755890
  H        3.5186220     0.6362700     0.3424670
  H        0.7214210     2.4415090    -0.3472440
units angstrom
no_reorient  #important for SAPT in psi4, default
symmetry c1  #important for SAPT in psi4, default
}

set PROPERTIES_ORIGIN ["COM"]
properties('MP2/aug-cc-pvtz', properties = ['dipole'])
--------------------------------------------------------------------------

    Molecular point group: c1
  Charge       = 0
  Multiplicity = 1
  Basis Set: AUG-CC-PVTZ
    Blend: AUG-CC-PVTZ
  Basis Set: (AUG-CC-PVTZ AUX)
    Blend: AUG-CC-PVTZ-JKFIT

    Orbital Energies [Eh]
    ---------------------

    Doubly Occupied:

       1A    -26.319084     2A    -20.599372     3A    -20.596160
       4A    -11.340591     5A    -11.317039     6A    -11.303674
       7A    -11.291480     8A    -11.256755     9A    -11.243940
      10A    -11.241532    11A     -1.631307    12A     -1.427009
      13A     -1.394834    14A     -1.158417    15A     -1.029596
      16A     -1.021126    17A     -0.947077    18A     -0.853420
      19A     -0.849197    20A     -0.759628    21A     -0.747882
      22A     -0.710981    23A     -0.700444    24A     -0.677236
      25A     -0.653079    26A     -0.644860    27A     -0.634865
      28A     -0.621605    29A     -0.590507    30A     -0.572467
      31A     -0.552862    32A     -0.539409    33A     -0.518806
      34A     -0.488509    35A     -0.474309    36A     -0.343468
      37A     -0.325271

  @DF-RHF Final Energy:  -518.47298623125346

   => Energetics <=

    Nuclear Repulsion Energy =            528.7078356920364968
    One-Electron Energy =               -1759.6060528588875513
    Two-Electron Energy =                 712.4252309355975967
    Total Energy =                       -518.4729862312534578
  Basis Set: (AUG-CC-PVTZ AUX)
    Blend: AUG-CC-PVTZ-RI
    Molecular point group: c1

    Geometry (in Angstrom), charge = 0, multiplicity = 1:

       Center              X                  Y                   Z               Mass
    ------------   -----------------  -----------------  -----------------  -----------------
         F            0.885905042567    -2.134740761271    -0.238987853037    18.998403162730
         O            1.652009042567     0.570474238729    -0.399808853037    15.994914619570
         O           -0.231031957433     2.484826238729    -0.109955853037    15.994914619570
         C            0.353389042567     0.168654238729    -0.150560853037    12.000000000000
         C           -0.613792957433     1.177839238729    -0.029303853037    12.000000000000
         C           -0.054805957433    -1.163230761271    -0.092569853037    12.000000000000
         C           -1.975989457433     0.846482338729     0.033054346963    12.000000000000
         C           -1.379396957433    -1.513935761271     0.129291146963    12.000000000000
         C           -2.325639957433    -0.492874761271     0.256808146963    12.000000000000
         C            2.576157042567     0.189969238729     0.640639146963    12.000000000000
         H           -2.682104957433     1.649393238729     0.274002146963     1.007825032230
         H           -1.651983957433    -2.563456761271     0.173688146963     1.007825032230
         H           -3.367879957433    -0.750663761271     0.423416146963     1.007825032230
         H            2.690648042567    -0.894084761271     0.672982146963     1.007825032230
         H            2.230073042567     0.560223238729     1.610799146963     1.007825032230
         H            3.524353042567     0.658553238729     0.377677146963     1.007825032230
         H            0.727152042567     2.463792238729    -0.312033853037     1.007825032230

  Basis Set: AUG-CC-PVTZ
    Blend: AUG-CC-PVTZ
  Basis Set: (AUG-CC-PVTZ AUX)
    Blend: AUG-CC-PVTZ-JKFIT
	 Reference Energy          =    -518.4729862312534578 [Eh]
	 Singles Energy            =      -0.0000000000000000 [Eh]
	 Same-Spin Energy          =      -0.5092123772480237 [Eh]
	 Opposite-Spin Energy      =      -1.5392080308984419 [Eh]
	 Correlation Energy        =      -2.0484204081464656 [Eh]
	 Total Energy              =    -520.5214066393999701 [Eh]

	 ================> DF-SCS-MP2 Energies <==================
	-----------------------------------------------------------
	 SCS Same-Spin Scale       =       0.3333333333333333 [-]
	 SCS Opposite-Spin Scale   =       1.2000000000000000 [-]
	 SCS Same-Spin Energy      =      -0.1697374590826746 [Eh]
	 SCS Opposite-Spin Energy  =      -1.8470496370781302 [Eh]
	 SCS Correlation Energy    =      -2.0167870961608045 [Eh]
	 SCS Total Energy          =    -520.4897733274142411 [Eh]
	-----------------------------------------------------------

  Dipole Moment: [D]
     X:     0.7081      Y:    -0.1968      Z:     1.2709     Total:     1.4681

*** Psi4 exiting successfully. Buy a developer a beer!
