                               Psi4 1.3.2 release

  ==> Input File <==

--------------------------------------------------------------------------
#psi4
#
memory 32 gb

molecule  {
0 1
  F        0.8801740    -2.1570240    -0.2741980
  O        1.6462780     0.5481910    -0.4350190
  O       -0.2367630     2.4625430    -0.1451660
  C        0.3476580     0.1463710    -0.1857710
  C       -0.6195240     1.1555560    -0.0645140
  C       -0.0605370    -1.1855140    -0.1277800
  C       -1.9594950     0.8272070     0.1461580
  C       -1.3771160    -1.5362614     0.1434349
  C       -2.3313710    -0.5151580     0.2215980
  C        2.5704260     0.1676860     0.6054290
  H       -2.6878360     1.6271100     0.2387920
  H       -1.6577150    -2.5857400     0.1384780
  H       -3.3736110    -0.7729470     0.3882060
  H        2.6849170    -0.9163680     0.6377720
  H        2.2243420     0.5379400     1.5755890
  H        3.5186220     0.6362700     0.3424670
  H        0.7214210     2.4415090    -0.3472440
units angstrom
no_reorient  #important for SAPT in psi4, default
symmetry c1  #important for SAPT in psi4, default
}

set PROPERTIES_ORIGIN ["COM"]
properties('MP2/aug-cc-pvtz', properties = ['dipole'])
--------------------------------------------------------------------------

    Molecular point group: c1
  Charge       = 0
  Multiplicity = 1
  Basis Set: AUG-CC-PVTZ
    Blend: AUG-CC-PVTZ
  Basis Set: (AUG-CC-PVTZ AUX)
    Blend: AUG-CC-PVTZ-JKFIT

    Orbital Energies [Eh]
    ---------------------

    Doubly Occupied:

       1A    -26.318342     2A    -20.598844     3A    -20.595876
       4A    -11.339703     5A    -11.315611     6A    -11.303734
       7A    -11.291359     8A    -11.255500     9A    -11.244215
      10A    -11.239859    11A     -1.630625    12A     -1.426737
      13A     -1.394571    14A     -1.158795    15A     -1.030051
      16A     -1.021637    17A     -0.947014    18A     -0.853784
      19A     -0.849503    20A     -0.759399    21A     -0.747494
      22A     -0.711588    23A     -0.699990    24A     -0.676776
      25A     -0.653804    26A     -0.646266    27A     -0.634912
      28A     -0.621127    29A     -0.589903    30A     -0.573627
      31A     -0.553651    32A     -0.540821    33A     -0.519835
      34A     -0.489750    35A     -0.473599    36A     -0.343467
      37A     -0.325163

  @DF-RHF Final Energy:  -518.47824934890173

   => Energetics <=

    Nuclear Repulsion Energy =            528.9678176240373659
    One-Electron Energy =               -1760.1382678676941396
    Two-Electron Energy =                 712.6922008947551603
    Total Energy =                       -518.4782493489017270
  Basis Set: (AUG-CC-PVTZ AUX)
    Blend: AUG-CC-PVTZ-RI
    Molecular point group: c1

    Geometry (in Angstrom), charge = 0, multiplicity = 1:

       Center              X                  Y                   Z               Mass
    ------------   -----------------  -----------------  -----------------  -----------------
         F            0.883350534562    -2.134991291027    -0.255687108000    18.998403162730
         O            1.649454534562     0.570223708973    -0.416508108000    15.994914619570
         O           -0.233586465438     2.484575708973    -0.126655108000    15.994914619570
         C            0.350834534562     0.168403708973    -0.167260108000    12.000000000000
         C           -0.616347465438     1.177588708973    -0.046003108000    12.000000000000
         C           -0.057360465438    -1.163481291027    -0.109269108000    12.000000000000
         C           -1.956318465438     0.849239708973     0.164668892000    12.000000000000
         C           -1.373939465438    -1.514228691027     0.161945792000    12.000000000000
         C           -2.328194465438    -0.493125291027     0.240108892000    12.000000000000
         C            2.573602534562     0.189718708973     0.623939892000    12.000000000000
         H           -2.684659465438     1.649142708973     0.257302892000     1.007825032230
         H           -1.654538465438    -2.563707291027     0.156988892000     1.007825032230
         H           -3.370434465438    -0.750914291027     0.406716892000     1.007825032230
         H            2.688093534562    -0.894335291027     0.656282892000     1.007825032230
         H            2.227518534562     0.559972708973     1.594099892000     1.007825032230
         H            3.521798534562     0.658302708973     0.360977892000     1.007825032230
         H            0.724597534562     2.463541708973    -0.328733108000     1.007825032230

  Basis Set: AUG-CC-PVTZ
    Blend: AUG-CC-PVTZ
  Basis Set: (AUG-CC-PVTZ AUX)
    Blend: AUG-CC-PVTZ-JKFIT
	 Reference Energy          =    -518.4782493489017270 [Eh]
	 Singles Energy            =      -0.0000000000000000 [Eh]
	 Same-Spin Energy          =      -0.5089456931675649 [Eh]
	 Opposite-Spin Energy      =      -1.5384871169169623 [Eh]
	 Correlation Energy        =      -2.0474328100845272 [Eh]
	 Total Energy              =    -520.5256821589862284 [Eh]

	 ================> DF-SCS-MP2 Energies <==================
	-----------------------------------------------------------
	 SCS Same-Spin Scale       =       0.3333333333333333 [-]
	 SCS Opposite-Spin Scale   =       1.2000000000000000 [-]
	 SCS Same-Spin Energy      =      -0.1696485643891883 [Eh]
	 SCS Opposite-Spin Energy  =      -1.8461845403003547 [Eh]
	 SCS Correlation Energy    =      -2.0158331046895430 [Eh]
	 SCS Total Energy          =    -520.4940824535913180 [Eh]
	-----------------------------------------------------------

  Dipole Moment: [D]
     X:     0.6465      Y:    -0.1575      Z:     1.1337     Total:     1.3146

*** Psi4 exiting successfully. Buy a developer a beer!
