                               Psi4 1.3.2 release

  ==> Input File <==

--------------------------------------------------------------------------
#psi4
#
memory 32 gb

molecule  {
0 1
  C       -0.0780906    -0.2533641     2.0573382
  C        0.0286840     0.2411780    -2.0603400
  C       -0.0085460    -0.0710180     0.6065120
  C        0.0083230     0.0709880    -0.6065210
  H        0.6094240     0.4998650     2.5507040
  H       -1.0423040    -0.1255070     2.4547460
  H        0.3310900    -1.2345700     2.3438760
  H        1.0026040    -0.0362040    -2.4740330
  H       -0.1698780     1.2809150    -2.3362450
  H       -0.7303240    -0.3844080    -2.5390350
units angstrom
no_reorient  #important for SAPT in psi4, default
symmetry c1  #important for SAPT in psi4, default
}

set PROPERTIES_ORIGIN ["COM"]
properties('MP2/aug-cc-pvtz', properties = ['dipole'])
--------------------------------------------------------------------------

    Molecular point group: c1
  Charge       = 0
  Multiplicity = 1
  Basis Set: AUG-CC-PVTZ
    Blend: AUG-CC-PVTZ
  Basis Set: (AUG-CC-PVTZ AUX)
    Blend: AUG-CC-PVTZ-JKFIT

    Orbital Energies [Eh]
    ---------------------

    Doubly Occupied:

       1A    -11.244443     2A    -11.244087     3A    -11.223228
       4A    -11.219830     5A     -1.058511     6A     -1.001395
       7A     -0.911901     8A     -0.654751     9A     -0.601628
      10A     -0.592383    11A     -0.585505    12A     -0.577431
      13A     -0.563417    14A     -0.360213    15A     -0.357247

  @DF-RHF Final Energy:  -154.96122330547377

   => Energetics <=

    Nuclear Repulsion Energy =             99.5047198276805460
    One-Electron Energy =                -404.5399463361001722
    Two-Electron Energy =                 150.0740032029458462
    Total Energy =                       -154.9612233054737658
  Basis Set: (AUG-CC-PVTZ AUX)
    Blend: AUG-CC-PVTZ-RI
    Molecular point group: c1

    Geometry (in Angstrom), charge = 0, multiplicity = 1:

       Center              X                  Y                   Z               Mass
    ------------   -----------------  -----------------  -----------------  -----------------
         C           -0.067082792733    -0.250653466238     2.058006443040    12.000000000000
         C            0.039691807267     0.243888633762    -2.059671756960    12.000000000000
         C            0.002461807267    -0.068307366238     0.607180243040    12.000000000000
         C            0.019330807267     0.073698633762    -0.605852756960    12.000000000000
         H            0.620431807267     0.502575633762     2.551372243040     1.007825032230
         H           -1.031296192733    -0.122796366238     2.455414243040     1.007825032230
         H            0.342097807267    -1.231859366238     2.344544243040     1.007825032230
         H            1.013611807267    -0.033493366238    -2.473364756960     1.007825032230
         H           -0.158870192733     1.283625633762    -2.335576756960     1.007825032230
         H           -0.719316192733    -0.381697366238    -2.538366756960     1.007825032230

  Basis Set: AUG-CC-PVTZ
    Blend: AUG-CC-PVTZ
  Basis Set: (AUG-CC-PVTZ AUX)
    Blend: AUG-CC-PVTZ-JKFIT
	 Reference Energy          =    -154.9612233054737658 [Eh]
	 Singles Energy            =      -0.0000000000000000 [Eh]
	 Same-Spin Energy          =      -0.1621912014696871 [Eh]
	 Opposite-Spin Energy      =      -0.5763402790636449 [Eh]
	 Correlation Energy        =      -0.7385314805333321 [Eh]
	 Total Energy              =    -155.6997547860071052 [Eh]

	 ================> DF-SCS-MP2 Energies <==================
	-----------------------------------------------------------
	 SCS Same-Spin Scale       =       0.3333333333333333 [-]
	 SCS Opposite-Spin Scale   =       1.2000000000000000 [-]
	 SCS Same-Spin Energy      =      -0.0540637338232290 [Eh]
	 SCS Opposite-Spin Energy  =      -0.6916083348763739 [Eh]
	 SCS Correlation Energy    =      -0.7456720686996029 [Eh]
	 SCS Total Energy          =    -155.7068953741733708 [Eh]
	-----------------------------------------------------------

  Dipole Moment: [D]
     X:    -0.0281      Y:    -0.0085      Z:    -0.0056     Total:     0.0298

*** Psi4 exiting successfully. Buy a developer a beer!
