                               Psi4 1.3.2 release

  ==> Input File <==

--------------------------------------------------------------------------
#psi4
#
memory 32 gb

molecule  {
0 1
  C       -0.0533336    -0.2472904     2.0590633
  C        0.0286840     0.2411780    -2.0603400
  C       -0.0085460    -0.0710180     0.6065120
  C        0.0083230     0.0709880    -0.6065210
  H        0.6094240     0.4998650     2.5507040
  H       -1.0423040    -0.1255070     2.4547460
  H        0.3310900    -1.2345700     2.3438760
  H        1.0026040    -0.0362040    -2.4740330
  H       -0.1698780     1.2809150    -2.3362450
  H       -0.7303240    -0.3844080    -2.5390350
units angstrom
no_reorient  #important for SAPT in psi4, default
symmetry c1  #important for SAPT in psi4, default
}

set PROPERTIES_ORIGIN ["COM"]
properties('MP2/aug-cc-pvtz', properties = ['dipole'])
--------------------------------------------------------------------------

    Molecular point group: c1
  Charge       = 0
  Multiplicity = 1
  Basis Set: AUG-CC-PVTZ
    Blend: AUG-CC-PVTZ
  Basis Set: (AUG-CC-PVTZ AUX)
    Blend: AUG-CC-PVTZ-JKFIT

    Orbital Energies [Eh]
    ---------------------

    Doubly Occupied:

       1A    -11.244142     2A    -11.244053     3A    -11.223136
       4A    -11.219739     5A     -1.058422     6A     -1.001278
       7A     -0.911748     8A     -0.653877     9A     -0.597000
      10A     -0.592013    11A     -0.586999    12A     -0.576054
      13A     -0.569018    14A     -0.359545    15A     -0.358057

  @DF-RHF Final Energy:  -154.96327337242283

   => Energetics <=

    Nuclear Repulsion Energy =             99.5028382921674108
    One-Electron Energy =                -404.5420610957279450
    Two-Electron Energy =                 150.0759494311376727
    Total Energy =                       -154.9632733724228331
  Basis Set: (AUG-CC-PVTZ AUX)
    Blend: AUG-CC-PVTZ-RI
    Molecular point group: c1

    Geometry (in Angstrom), charge = 0, multiplicity = 1:

       Center              X                  Y                   Z               Mass
    ------------   -----------------  -----------------  -----------------  -----------------
         C           -0.047822569127    -0.245928304865     2.059348520502    12.000000000000
         C            0.034195030873     0.242540095135    -2.060054779498    12.000000000000
         C           -0.003034969127    -0.069655904865     0.606797220502    12.000000000000
         C            0.013834030873     0.072350095135    -0.606235779498    12.000000000000
         H            0.614935030873     0.501227095135     2.550989220502     1.007825032230
         H           -1.036792969127    -0.124144904865     2.455031220502     1.007825032230
         H            0.336601030873    -1.233207904865     2.344161220502     1.007825032230
         H            1.008115030873    -0.034841904865    -2.473747779498     1.007825032230
         H           -0.164366969127     1.282277095135    -2.335959779498     1.007825032230
         H           -0.724812969127    -0.383045904865    -2.538749779498     1.007825032230

  Basis Set: AUG-CC-PVTZ
    Blend: AUG-CC-PVTZ
  Basis Set: (AUG-CC-PVTZ AUX)
    Blend: AUG-CC-PVTZ-JKFIT
	 Reference Energy          =    -154.9632733724228331 [Eh]
	 Singles Energy            =      -0.0000000000000000 [Eh]
	 Same-Spin Energy          =      -0.1621608793539311 [Eh]
	 Opposite-Spin Energy      =      -0.5762395885509000 [Eh]
	 Correlation Energy        =      -0.7384004679048310 [Eh]
	 Total Energy              =    -155.7016738403276577 [Eh]

	 ================> DF-SCS-MP2 Energies <==================
	-----------------------------------------------------------
	 SCS Same-Spin Scale       =       0.3333333333333333 [-]
	 SCS Opposite-Spin Scale   =       1.2000000000000000 [-]
	 SCS Same-Spin Energy      =      -0.0540536264513104 [Eh]
	 SCS Opposite-Spin Energy  =      -0.6914875062610799 [Eh]
	 SCS Correlation Energy    =      -0.7455411327123903 [Eh]
	 SCS Total Energy          =    -155.7088145051352228 [Eh]
	-----------------------------------------------------------

  Dipole Moment: [D]
     X:    -0.0141      Y:    -0.0040      Z:    -0.0017     Total:     0.0148

*** Psi4 exiting successfully. Buy a developer a beer!
