                               Psi4 1.3.2 release

  ==> Input File <==

--------------------------------------------------------------------------
#psi4
#
memory 32 gb

molecule  {
0 1
  C       -0.0285630    -0.2411630     2.0603460
  C        0.0286840     0.2411780    -2.0603400
  C       -0.0407443    -0.1104747     0.6023489
  C        0.0083230     0.0709880    -0.6065210
  H        0.6094240     0.4998650     2.5507040
  H       -1.0423040    -0.1255070     2.4547460
  H        0.3310900    -1.2345700     2.3438760
  H        1.0026040    -0.0362040    -2.4740330
  H       -0.1698780     1.2809150    -2.3362450
  H       -0.7303240    -0.3844080    -2.5390350
units angstrom
no_reorient  #important for SAPT in psi4, default
symmetry c1  #important for SAPT in psi4, default
}

set PROPERTIES_ORIGIN ["COM"]
properties('MP2/aug-cc-pvtz', properties = ['dipole'])
--------------------------------------------------------------------------

    Molecular point group: c1
  Charge       = 0
  Multiplicity = 1
  Basis Set: AUG-CC-PVTZ
    Blend: AUG-CC-PVTZ
  Basis Set: (AUG-CC-PVTZ AUX)
    Blend: AUG-CC-PVTZ-JKFIT

    Orbital Energies [Eh]
    ---------------------

    Doubly Occupied:

       1A    -11.244179     2A    -11.244024     3A    -11.223727
       4A    -11.220367     5A     -1.058316     6A     -1.001370
       7A     -0.911276     8A     -0.653880     9A     -0.596199
      10A     -0.589687    11A     -0.588907    12A     -0.573486
      13A     -0.572761    14A     -0.358689    15A     -0.358258

  @DF-RHF Final Energy:  -154.96316419702407

   => Energetics <=

    Nuclear Repulsion Energy =             99.4732535823109600
    One-Electron Energy =                -404.4825824086985904
    Two-Electron Energy =                 150.0461646293635454
    Total Energy =                       -154.9631641970240707
  Basis Set: (AUG-CC-PVTZ AUX)
    Blend: AUG-CC-PVTZ-RI
    Molecular point group: c1

    Geometry (in Angstrom), charge = 0, multiplicity = 1:

       Center              X                  Y                   Z               Mass
    ------------   -----------------  -----------------  -----------------  -----------------
         C           -0.021402802992    -0.232400827736     2.061270753350    12.000000000000
         C            0.035844197008     0.249940172264    -2.059415246650    12.000000000000
         C           -0.033584102992    -0.101712527736     0.603273653350    12.000000000000
         C            0.015483197008     0.079750172264    -0.605596246650    12.000000000000
         H            0.616584197008     0.508627172264     2.551628753350     1.007825032230
         H           -1.035143802992    -0.116744827736     2.455670753350     1.007825032230
         H            0.338250197008    -1.225807827736     2.344800753350     1.007825032230
         H            1.009764197008    -0.027441827736    -2.473108246650     1.007825032230
         H           -0.162717802992     1.289677172264    -2.335320246650     1.007825032230
         H           -0.723163802992    -0.375645827736    -2.538110246650     1.007825032230

  Basis Set: AUG-CC-PVTZ
    Blend: AUG-CC-PVTZ
  Basis Set: (AUG-CC-PVTZ AUX)
    Blend: AUG-CC-PVTZ-JKFIT
	 Reference Energy          =    -154.9631641970240707 [Eh]
	 Singles Energy            =      -0.0000000000000000 [Eh]
	 Same-Spin Energy          =      -0.1622539376876499 [Eh]
	 Opposite-Spin Energy      =      -0.5764776729916923 [Eh]
	 Correlation Energy        =      -0.7387316106793422 [Eh]
	 Total Energy              =    -155.7018958077034085 [Eh]

	 ================> DF-SCS-MP2 Energies <==================
	-----------------------------------------------------------
	 SCS Same-Spin Scale       =       0.3333333333333333 [-]
	 SCS Opposite-Spin Scale   =       1.2000000000000000 [-]
	 SCS Same-Spin Energy      =      -0.0540846458958833 [Eh]
	 SCS Opposite-Spin Energy  =      -0.6917732075900307 [Eh]
	 SCS Correlation Energy    =      -0.7458578534859139 [Eh]
	 SCS Total Energy          =    -155.7090220505099865 [Eh]
	-----------------------------------------------------------

  Dipole Moment: [D]
     X:     0.0287      Y:     0.0356      Z:    -0.0018     Total:     0.0457

*** Psi4 exiting successfully. Buy a developer a beer!
