                               Psi4 1.3.2 release

  ==> Input File <==

--------------------------------------------------------------------------
#psi4
#
memory 32 gb

molecule  {
0 1
  C       -0.0285630    -0.2411630     2.0603460
  C        0.0286840     0.2411780    -2.0603400
  C       -0.0085460    -0.0710180     0.6065120
  C        0.0083230     0.0709880    -0.6065210
  H        0.6094240     0.4998650     2.5507040
  H       -1.0423040    -0.1255070     2.4547460
  H        0.3310900    -1.2345700     2.3438760
  H        1.0026040    -0.0362040    -2.4740330
  H       -0.1698780     1.2809150    -2.3362450
  H       -0.7303240    -0.3844080    -2.5390350
units angstrom
no_reorient  #important for SAPT in psi4, default
symmetry c1  #important for SAPT in psi4, default
}

set PROPERTIES_ORIGIN ["COM"]
properties('MP2/aug-cc-pvtz', properties = ['dipole'])
--------------------------------------------------------------------------

    Molecular point group: c1
  Charge       = 0
  Multiplicity = 1
  Basis Set: AUG-CC-PVTZ
    Blend: AUG-CC-PVTZ
  Basis Set: (AUG-CC-PVTZ AUX)
    Blend: AUG-CC-PVTZ-JKFIT

    Orbital Energies [Eh]
    ---------------------

    Doubly Occupied:

       1A    -11.244042     2A    -11.244041     3A    -11.223105
       4A    -11.219708     5A     -1.058393     6A     -1.001240
       7A     -0.911699     8A     -0.653610     9A     -0.595497
      10A     -0.589534    11A     -0.589533    12A     -0.573368
      13A     -0.573367    14A     -0.358825    15A     -0.358825

  @DF-RHF Final Energy:  -154.96394869091714

   => Energetics <=

    Nuclear Repulsion Energy =             99.5022391313814722
    One-Electron Energy =                -404.5428040340563598
    Two-Electron Energy =                 150.0766162117577380
    Total Energy =                       -154.9639486909171353
  Basis Set: (AUG-CC-PVTZ AUX)
    Blend: AUG-CC-PVTZ-RI
    Molecular point group: c1

    Geometry (in Angstrom), charge = 0, multiplicity = 1:

       Center              X                  Y                   Z               Mass
    ------------   -----------------  -----------------  -----------------  -----------------
         C           -0.028551765119    -0.241161366459     2.060346423674    12.000000000000
         C            0.028695234881     0.241179633541    -2.060339576326    12.000000000000
         C           -0.008534765119    -0.071016366459     0.606512423674    12.000000000000
         C            0.008334234881     0.070989633541    -0.606520576326    12.000000000000
         H            0.609435234881     0.499866633541     2.550704423674     1.007825032230
         H           -1.042292765119    -0.125505366459     2.454746423674     1.007825032230
         H            0.331101234881    -1.234568366459     2.343876423674     1.007825032230
         H            1.002615234881    -0.036202366459    -2.474032576326     1.007825032230
         H           -0.169866765119     1.280916633541    -2.336244576326     1.007825032230
         H           -0.730312765119    -0.384406366459    -2.539034576326     1.007825032230

  Basis Set: AUG-CC-PVTZ
    Blend: AUG-CC-PVTZ
  Basis Set: (AUG-CC-PVTZ AUX)
    Blend: AUG-CC-PVTZ-JKFIT
	 Reference Energy          =    -154.9639486909171353 [Eh]
	 Singles Energy            =      -0.0000000000000000 [Eh]
	 Same-Spin Energy          =      -0.1621508399015257 [Eh]
	 Opposite-Spin Energy      =      -0.5762063247804716 [Eh]
	 Correlation Energy        =      -0.7383571646819973 [Eh]
	 Total Energy              =    -155.7023058555991213 [Eh]

	 ================> DF-SCS-MP2 Energies <==================
	-----------------------------------------------------------
	 SCS Same-Spin Scale       =       0.3333333333333333 [-]
	 SCS Opposite-Spin Scale   =       1.2000000000000000 [-]
	 SCS Same-Spin Energy      =      -0.0540502799671752 [Eh]
	 SCS Opposite-Spin Energy  =      -0.6914475897365659 [Eh]
	 SCS Correlation Energy    =      -0.7454978697037412 [Eh]
	 SCS Total Energy          =    -155.7094465606208757 [Eh]
	-----------------------------------------------------------

  Dipole Moment: [D]
     X:     0.0004      Y:     0.0001      Z:     0.0000     Total:     0.0004

*** Psi4 exiting successfully. Buy a developer a beer!
