                               Psi4 1.3.2 release

  ==> Input File <==

--------------------------------------------------------------------------
#psi4
#
memory 32 gb

molecule  {
0 1
  C       -0.0285630    -0.2411630     2.0603460
  C        0.0286840     0.2411780    -2.0603400
  C       -0.0729278    -0.1500907     0.5999622
  C        0.0083230     0.0709880    -0.6065210
  H        0.6094240     0.4998650     2.5507040
  H       -1.0423040    -0.1255070     2.4547460
  H        0.3310900    -1.2345700     2.3438760
  H        1.0026040    -0.0362040    -2.4740330
  H       -0.1698780     1.2809150    -2.3362450
  H       -0.7303240    -0.3844080    -2.5390350
units angstrom
no_reorient  #important for SAPT in psi4, default
symmetry c1  #important for SAPT in psi4, default
}

set PROPERTIES_ORIGIN ["COM"]
properties('MP2/aug-cc-pvtz', properties = ['dipole'])
--------------------------------------------------------------------------

    Molecular point group: c1
  Charge       = 0
  Multiplicity = 1
  Basis Set: AUG-CC-PVTZ
    Blend: AUG-CC-PVTZ
  Basis Set: (AUG-CC-PVTZ AUX)
    Blend: AUG-CC-PVTZ-JKFIT

    Orbital Energies [Eh]
    ---------------------

    Doubly Occupied:

       1A    -11.244590     2A    -11.243967     3A    -11.225600
       4A    -11.222300     5A     -1.058094     6A     -1.001760
       7A     -0.910010     8A     -0.654674     9A     -0.597699
      10A     -0.589871    11A     -0.587937    12A     -0.573713
      13A     -0.571048    14A     -0.357922    15A     -0.356963

  @DF-RHF Final Energy:  -154.96077465886032

   => Energetics <=

    Nuclear Repulsion Energy =             99.3872709654216919
    One-Electron Energy =                -404.3037938689181487
    Two-Electron Energy =                 149.9557482446361405
    Total Energy =                       -154.9607746588603163
  Basis Set: (AUG-CC-PVTZ AUX)
    Blend: AUG-CC-PVTZ-RI
    Molecular point group: c1

    Geometry (in Angstrom), charge = 0, multiplicity = 1:

       Center              X                  Y                   Z               Mass
    ------------   -----------------  -----------------  -----------------  -----------------
         C           -0.014257126897    -0.223604919766     2.061800670393    12.000000000000
         C            0.042989873103     0.258736080234    -2.058885329607    12.000000000000
         C           -0.058621926897    -0.132532619766     0.601416870393    12.000000000000
         C            0.022628873103     0.088546080234    -0.605066329607    12.000000000000
         H            0.623729873103     0.517423080234     2.552158670393     1.007825032230
         H           -1.027998126897    -0.107948919766     2.456200670393     1.007825032230
         H            0.345395873103    -1.217011919766     2.345330670393     1.007825032230
         H            1.016909873103    -0.018645919766    -2.472578329607     1.007825032230
         H           -0.155572126897     1.298473080234    -2.334790329607     1.007825032230
         H           -0.716018126897    -0.366849919766    -2.537580329607     1.007825032230

  Basis Set: AUG-CC-PVTZ
    Blend: AUG-CC-PVTZ
  Basis Set: (AUG-CC-PVTZ AUX)
    Blend: AUG-CC-PVTZ-JKFIT
	 Reference Energy          =    -154.9607746588603163 [Eh]
	 Singles Energy            =      -0.0000000000000000 [Eh]
	 Same-Spin Energy          =      -0.1625600392564480 [Eh]
	 Opposite-Spin Energy      =      -0.5772802379546018 [Eh]
	 Correlation Energy        =      -0.7398402772110498 [Eh]
	 Total Energy              =    -155.7006149360713607 [Eh]

	 ================> DF-SCS-MP2 Energies <==================
	-----------------------------------------------------------
	 SCS Same-Spin Scale       =       0.3333333333333333 [-]
	 SCS Opposite-Spin Scale   =       1.2000000000000000 [-]
	 SCS Same-Spin Energy      =      -0.0541866797521493 [Eh]
	 SCS Opposite-Spin Energy  =      -0.6927362855455221 [Eh]
	 SCS Correlation Energy    =      -0.7469229652976714 [Eh]
	 SCS Total Energy          =    -155.7076976241579871 [Eh]
	-----------------------------------------------------------

  Dipole Moment: [D]
     X:     0.0573      Y:     0.0728      Z:    -0.0158     Total:     0.0940

*** Psi4 exiting successfully. Buy a developer a beer!
