                               Psi4 1.3.2 release

  ==> Input File <==

--------------------------------------------------------------------------
#psi4
#
memory 32 gb

molecule  {
0 1
  C       -0.0285630    -0.2411630     2.0603460
  C        0.0286840     0.2411780    -2.0603400
  C        0.0557382     0.0072257     0.6201448
  C        0.0083230     0.0709880    -0.6065210
  H        0.6094240     0.4998650     2.5507040
  H       -1.0423040    -0.1255070     2.4547460
  H        0.3310900    -1.2345700     2.3438760
  H        1.0026040    -0.0362040    -2.4740330
  H       -0.1698780     1.2809150    -2.3362450
  H       -0.7303240    -0.3844080    -2.5390350
units angstrom
no_reorient  #important for SAPT in psi4, default
symmetry c1  #important for SAPT in psi4, default
}

set PROPERTIES_ORIGIN ["COM"]
properties('MP2/aug-cc-pvtz', properties = ['dipole'])
--------------------------------------------------------------------------

    Molecular point group: c1
  Charge       = 0
  Multiplicity = 1
  Basis Set: AUG-CC-PVTZ
    Blend: AUG-CC-PVTZ
  Basis Set: (AUG-CC-PVTZ AUX)
    Blend: AUG-CC-PVTZ-JKFIT

    Orbital Energies [Eh]
    ---------------------

    Doubly Occupied:

       1A    -11.244583     2A    -11.243957     3A    -11.225594
       4A    -11.222296     5A     -1.058093     6A     -1.001760
       7A     -0.910014     8A     -0.654684     9A     -0.597910
      10A     -0.589325    11A     -0.588266    12A     -0.573435
      13A     -0.571310    14A     -0.357745    15A     -0.357132

  @DF-RHF Final Energy:  -154.96075828147622

   => Energetics <=

    Nuclear Repulsion Energy =             99.3877306557199631
    One-Electron Energy =                -404.3047676310469001
    Two-Electron Energy =                 149.9562786938507202
    Total Energy =                       -154.9607582814762168
  Basis Set: (AUG-CC-PVTZ AUX)
    Blend: AUG-CC-PVTZ-RI
    Molecular point group: c1

    Geometry (in Angstrom), charge = 0, multiplicity = 1:

       Center              X                  Y                   Z               Mass
    ------------   -----------------  -----------------  -----------------  -----------------
         C           -0.042824733292    -0.258533750962     2.057319544277    12.000000000000
         C            0.014422266708     0.223807249038    -2.063366455723    12.000000000000
         C            0.041476466708    -0.010145050962     0.617118344277    12.000000000000
         C           -0.005938733292     0.053617249038    -0.609547455723    12.000000000000
         H            0.595162266708     0.482494249038     2.547677544277     1.007825032230
         H           -1.056565733292    -0.142877750962     2.451719544277     1.007825032230
         H            0.316828266708    -1.251940750962     2.340849544277     1.007825032230
         H            0.988342266708    -0.053574750962    -2.477059455723     1.007825032230
         H           -0.184139733292     1.263544249038    -2.339271455723     1.007825032230
         H           -0.744585733292    -0.401778750962    -2.542061455723     1.007825032230

  Basis Set: AUG-CC-PVTZ
    Blend: AUG-CC-PVTZ
  Basis Set: (AUG-CC-PVTZ AUX)
    Blend: AUG-CC-PVTZ-JKFIT
	 Reference Energy          =    -154.9607582814762168 [Eh]
	 Singles Energy            =      -0.0000000000000000 [Eh]
	 Same-Spin Energy          =      -0.1625636422425327 [Eh]
	 Opposite-Spin Energy      =      -0.5772844495371714 [Eh]
	 Correlation Energy        =      -0.7398480917797041 [Eh]
	 Total Energy              =    -155.7006063732559085 [Eh]

	 ================> DF-SCS-MP2 Energies <==================
	-----------------------------------------------------------
	 SCS Same-Spin Scale       =       0.3333333333333333 [-]
	 SCS Opposite-Spin Scale   =       1.2000000000000000 [-]
	 SCS Same-Spin Energy      =      -0.0541878807475109 [Eh]
	 SCS Opposite-Spin Energy  =      -0.6927413394446057 [Eh]
	 SCS Correlation Energy    =      -0.7469292201921166 [Eh]
	 SCS Total Energy          =    -155.7076875016683459 [Eh]
	-----------------------------------------------------------

  Dipole Moment: [D]
     X:    -0.0562      Y:    -0.0666      Z:    -0.0341     Total:     0.0936

*** Psi4 exiting successfully. Buy a developer a beer!
