                               Psi4 1.3.2 release

  ==> Input File <==

--------------------------------------------------------------------------
#psi4
#
memory 32 gb

molecule  {
0 1
  C       -0.0285630    -0.2411630     2.0603460
  C        0.0286840     0.2411780    -2.0603400
  C       -0.0071786    -0.0593952     0.5071992
  C        0.0083230     0.0709880    -0.6065210
  H        0.6094240     0.4998650     2.5507040
  H       -1.0423040    -0.1255070     2.4547460
  H        0.3310900    -1.2345700     2.3438760
  H        1.0026040    -0.0362040    -2.4740330
  H       -0.1698780     1.2809150    -2.3362450
  H       -0.7303240    -0.3844080    -2.5390350
units angstrom
no_reorient  #important for SAPT in psi4, default
symmetry c1  #important for SAPT in psi4, default
}

set PROPERTIES_ORIGIN ["COM"]
properties('MP2/aug-cc-pvtz', properties = ['dipole'])
--------------------------------------------------------------------------

    Molecular point group: c1
  Charge       = 0
  Multiplicity = 1
  Basis Set: AUG-CC-PVTZ
    Blend: AUG-CC-PVTZ
  Basis Set: (AUG-CC-PVTZ AUX)
    Blend: AUG-CC-PVTZ-JKFIT

    Orbital Energies [Eh]
    ---------------------

    Doubly Occupied:

       1A    -11.250453     2A    -11.238693     3A    -11.197351
       4A    -11.189199     5A     -1.065099     6A     -0.983935
       7A     -0.928134     8A     -0.635403     9A     -0.585933
      10A     -0.585932    11A     -0.580793    12A     -0.568199
      13A     -0.568198    14A     -0.385026    15A     -0.385026

  @DF-RHF Final Energy:  -154.95201247092817

   => Energetics <=

    Nuclear Repulsion Energy =            100.2441295185748942
    One-Electron Energy =                -406.0975341439578870
    Two-Electron Energy =                 150.9013921544548396
    Total Energy =                       -154.9520124709281674
  Basis Set: (AUG-CC-PVTZ AUX)
    Blend: AUG-CC-PVTZ-RI
    Molecular point group: c1

    Geometry (in Angstrom), charge = 0, multiplicity = 1:

       Center              X                  Y                   Z               Mass
    ------------   -----------------  -----------------  -----------------  -----------------
         C           -0.028855367818    -0.243741967205     2.082396763161    12.000000000000
         C            0.028391632182     0.238599032795    -2.038289236839    12.000000000000
         C           -0.007470967818    -0.061974167205     0.529249963161    12.000000000000
         C            0.008030632182     0.068409032795    -0.584470236839    12.000000000000
         H            0.609131632182     0.497286032795     2.572754763161     1.007825032230
         H           -1.042596367818    -0.128085967205     2.476796763161     1.007825032230
         H            0.330797632182    -1.237148967205     2.365926763161     1.007825032230
         H            1.002311632182    -0.038782967205    -2.451982236839     1.007825032230
         H           -0.170170367818     1.278336032795    -2.314194236839     1.007825032230
         H           -0.730616367818    -0.386986967205    -2.516984236839     1.007825032230

  Basis Set: AUG-CC-PVTZ
    Blend: AUG-CC-PVTZ
  Basis Set: (AUG-CC-PVTZ AUX)
    Blend: AUG-CC-PVTZ-JKFIT
	 Reference Energy          =    -154.9520124709281674 [Eh]
	 Singles Energy            =      -0.0000000000000000 [Eh]
	 Same-Spin Energy          =      -0.1576693216955369 [Eh]
	 Opposite-Spin Energy      =      -0.5684019714500359 [Eh]
	 Correlation Energy        =      -0.7260712931455728 [Eh]
	 Total Energy              =    -155.6780837640737332 [Eh]

	 ================> DF-SCS-MP2 Energies <==================
	-----------------------------------------------------------
	 SCS Same-Spin Scale       =       0.3333333333333333 [-]
	 SCS Opposite-Spin Scale   =       1.2000000000000000 [-]
	 SCS Same-Spin Energy      =      -0.0525564405651790 [Eh]
	 SCS Opposite-Spin Energy  =      -0.6820823657400431 [Eh]
	 SCS Correlation Energy    =      -0.7346388063052220 [Eh]
	 SCS Total Energy          =    -155.6866512772333806 [Eh]
	-----------------------------------------------------------

  Dipole Moment: [D]
     X:    -0.0003      Y:    -0.0057      Z:     0.0488     Total:     0.0491

*** Psi4 exiting successfully. Buy a developer a beer!
