                               Psi4 1.3.2 release

  ==> Input File <==

--------------------------------------------------------------------------
#psi4
#
memory 32 gb

molecule  {
0 1
  C       -0.0285630    -0.2411630     2.0603460
  C        0.0286840     0.2411780    -2.0603400
  C       -0.1050572    -0.1898176     0.5993547
  C        0.0083230     0.0709880    -0.6065210
  H        0.6094240     0.4998650     2.5507040
  H       -1.0423040    -0.1255070     2.4547460
  H        0.3310900    -1.2345700     2.3438760
  H        1.0026040    -0.0362040    -2.4740330
  H       -0.1698780     1.2809150    -2.3362450
  H       -0.7303240    -0.3844080    -2.5390350
units angstrom
no_reorient  #important for SAPT in psi4, default
symmetry c1  #important for SAPT in psi4, default
}

set PROPERTIES_ORIGIN ["COM"]
properties('MP2/aug-cc-pvtz', properties = ['dipole'])
--------------------------------------------------------------------------

    Molecular point group: c1
  Charge       = 0
  Multiplicity = 1
  Basis Set: AUG-CC-PVTZ
    Blend: AUG-CC-PVTZ
  Basis Set: (AUG-CC-PVTZ AUX)
    Blend: AUG-CC-PVTZ-JKFIT

    Orbital Energies [Eh]
    ---------------------

    Doubly Occupied:

       1A    -11.245263     2A    -11.243859     3A    -11.228755
       4A    -11.225382     5A     -1.057741     6A     -1.002404
       7A     -0.907900     8A     -0.655958     9A     -0.599370
      10A     -0.590097    11A     -0.587249    12A     -0.574041
      13A     -0.568245    14A     -0.356604    15A     -0.354974

  @DF-RHF Final Energy:  -154.95666353221341

   => Energetics <=

    Nuclear Repulsion Energy =             99.2465800352773613
    One-Electron Energy =                -404.0108048635129308
    Two-Electron Energy =                 149.8075612960221576
    Total Energy =                       -154.9566635322134118
  Basis Set: (AUG-CC-PVTZ AUX)
    Blend: AUG-CC-PVTZ-RI
    Molecular point group: c1

    Geometry (in Angstrom), charge = 0, multiplicity = 1:

       Center              X                  Y                   Z               Mass
    ------------   -----------------  -----------------  -----------------  -----------------
         C           -0.007123462581    -0.214784388759     2.061935553119    12.000000000000
         C            0.050123537419     0.267556611241    -2.058750446881    12.000000000000
         C           -0.083617662581    -0.163438988759     0.600944253119    12.000000000000
         C            0.029762537419     0.097366611241    -0.604931446881    12.000000000000
         H            0.630863537419     0.526243611241     2.552293553119     1.007825032230
         H           -1.020864462581    -0.099128388759     2.456335553119     1.007825032230
         H            0.352529537419    -1.208191388759     2.345465553119     1.007825032230
         H            1.024043537419    -0.009825388759    -2.472443446881     1.007825032230
         H           -0.148438462581     1.307293611241    -2.334655446881     1.007825032230
         H           -0.708884462581    -0.358029388759    -2.537445446881     1.007825032230

  Basis Set: AUG-CC-PVTZ
    Blend: AUG-CC-PVTZ
  Basis Set: (AUG-CC-PVTZ AUX)
    Blend: AUG-CC-PVTZ-JKFIT
	 Reference Energy          =    -154.9566635322134118 [Eh]
	 Singles Energy            =      -0.0000000000000000 [Eh]
	 Same-Spin Energy          =      -0.1630621988767741 [Eh]
	 Opposite-Spin Energy      =      -0.5785813900145484 [Eh]
	 Correlation Energy        =      -0.7416435888913226 [Eh]
	 Total Energy              =    -155.6983071211047331 [Eh]

	 ================> DF-SCS-MP2 Energies <==================
	-----------------------------------------------------------
	 SCS Same-Spin Scale       =       0.3333333333333333 [-]
	 SCS Opposite-Spin Scale   =       1.2000000000000000 [-]
	 SCS Same-Spin Energy      =      -0.0543540662922580 [Eh]
	 SCS Opposite-Spin Energy  =      -0.6942976680174581 [Eh]
	 SCS Correlation Energy    =      -0.7486517343097161 [Eh]
	 SCS Total Energy          =    -155.7053152665231153 [Eh]
	-----------------------------------------------------------

  Dipole Moment: [D]
     X:     0.0862      Y:     0.1118      Z:    -0.0413     Total:     0.1471

*** Psi4 exiting successfully. Buy a developer a beer!
