                               Psi4 1.3.2 release

  ==> Input File <==

--------------------------------------------------------------------------
#psi4
#
memory 32 gb

molecule  {
0 1
  C        0.1199246    -0.2033765     2.0587378
  C        0.0286840     0.2411780    -2.0603400
  C       -0.0085460    -0.0710180     0.6065120
  C        0.0083230     0.0709880    -0.6065210
  H        0.6094240     0.4998650     2.5507040
  H       -1.0423040    -0.1255070     2.4547460
  H        0.3310900    -1.2345700     2.3438760
  H        1.0026040    -0.0362040    -2.4740330
  H       -0.1698780     1.2809150    -2.3362450
  H       -0.7303240    -0.3844080    -2.5390350
units angstrom
no_reorient  #important for SAPT in psi4, default
symmetry c1  #important for SAPT in psi4, default
}

set PROPERTIES_ORIGIN ["COM"]
properties('MP2/aug-cc-pvtz', properties = ['dipole'])
--------------------------------------------------------------------------

    Molecular point group: c1
  Charge       = 0
  Multiplicity = 1
  Basis Set: AUG-CC-PVTZ
    Blend: AUG-CC-PVTZ
  Basis Set: (AUG-CC-PVTZ AUX)
    Blend: AUG-CC-PVTZ-JKFIT

    Orbital Energies [Eh]
    ---------------------

    Doubly Occupied:

       1A    -11.247686     2A    -11.244433     3A    -11.224202
       4A    -11.220716     5A     -1.059421     6A     -1.002527
       7A     -0.913322     8A     -0.663057     9A     -0.620048
      10A     -0.595234    11A     -0.583791    12A     -0.579948
      13A     -0.534518    14A     -0.362770    15A     -0.353019

  @DF-RHF Final Energy:  -154.94135710913292

   => Energetics <=

    Nuclear Repulsion Energy =             99.5182464758291729
    One-Electron Energy =                -404.5098266949346453
    Two-Electron Energy =                 150.0502231099725350
    Total Energy =                       -154.9413571091329231
  Basis Set: (AUG-CC-PVTZ AUX)
    Blend: AUG-CC-PVTZ-RI
    Molecular point group: c1

    Geometry (in Angstrom), charge = 0, multiplicity = 1:

       Center              X                  Y                   Z               Mass
    ------------   -----------------  -----------------  -----------------  -----------------
         C            0.086967254904    -0.211764572046     2.059095291000    12.000000000000
         C           -0.004273345096     0.232789927954    -2.059982509000    12.000000000000
         C           -0.041503345096    -0.079406072046     0.606869491000    12.000000000000
         C           -0.024634345096     0.062599927954    -0.606163509000    12.000000000000
         H            0.576466654904     0.491476927954     2.551061491000     1.007825032230
         H           -1.075261345096    -0.133895072046     2.455103491000     1.007825032230
         H            0.298132654904    -1.242958072046     2.344233491000     1.007825032230
         H            0.969646654904    -0.044592072046    -2.473675509000     1.007825032230
         H           -0.202835345096     1.272526927954    -2.335887509000     1.007825032230
         H           -0.763281345096    -0.392796072046    -2.538677509000     1.007825032230

  Basis Set: AUG-CC-PVTZ
    Blend: AUG-CC-PVTZ
  Basis Set: (AUG-CC-PVTZ AUX)
    Blend: AUG-CC-PVTZ-JKFIT
	 Reference Energy          =    -154.9413571091329231 [Eh]
	 Singles Energy            =      -0.0000000000000000 [Eh]
	 Same-Spin Energy          =      -0.1625044371626361 [Eh]
	 Opposite-Spin Energy      =      -0.5773713950781674 [Eh]
	 Correlation Energy        =      -0.7398758322408034 [Eh]
	 Total Energy              =    -155.6812329413737359 [Eh]

	 ================> DF-SCS-MP2 Energies <==================
	-----------------------------------------------------------
	 SCS Same-Spin Scale       =       0.3333333333333333 [-]
	 SCS Opposite-Spin Scale   =       1.2000000000000000 [-]
	 SCS Same-Spin Energy      =      -0.0541681457208787 [Eh]
	 SCS Opposite-Spin Energy  =      -0.6928456740938008 [Eh]
	 SCS Correlation Energy    =      -0.7470138198146795 [Eh]
	 SCS Total Energy          =    -155.6883709289475917 [Eh]
	-----------------------------------------------------------

  Dipole Moment: [D]
     X:     0.0954      Y:     0.0144      Z:    -0.0322     Total:     0.1017

*** Psi4 exiting successfully. Buy a developer a beer!
