                               Psi4 1.3.2 release

  ==> Input File <==

--------------------------------------------------------------------------
#psi4
#
memory 32 gb

molecule  {
0 1
  C       -0.1275334    -0.2653431     2.0525628
  C        0.0286840     0.2411780    -2.0603400
  C       -0.0085460    -0.0710180     0.6065120
  C        0.0083230     0.0709880    -0.6065210
  H        0.6094240     0.4998650     2.5507040
  H       -1.0423040    -0.1255070     2.4547460
  H        0.3310900    -1.2345700     2.3438760
  H        1.0026040    -0.0362040    -2.4740330
  H       -0.1698780     1.2809150    -2.3362450
  H       -0.7303240    -0.3844080    -2.5390350
units angstrom
no_reorient  #important for SAPT in psi4, default
symmetry c1  #important for SAPT in psi4, default
}

set PROPERTIES_ORIGIN ["COM"]
properties('MP2/aug-cc-pvtz', properties = ['dipole'])
--------------------------------------------------------------------------

    Molecular point group: c1
  Charge       = 0
  Multiplicity = 1
  Basis Set: AUG-CC-PVTZ
    Blend: AUG-CC-PVTZ
  Basis Set: (AUG-CC-PVTZ AUX)
    Blend: AUG-CC-PVTZ-JKFIT

    Orbital Energies [Eh]
    ---------------------

    Doubly Occupied:

       1A    -11.245641     2A    -11.244225     3A    -11.223607
       4A    -11.220191     5A     -1.058869     6A     -1.001873
       7A     -0.912531     8A     -0.658914     9A     -0.612112
      10A     -0.591482    11A     -0.584245    12A     -0.578400
      13A     -0.550539    14A     -0.361413    15A     -0.355479

  @DF-RHF Final Energy:  -154.95287438590097

   => Energetics <=

    Nuclear Repulsion Energy =             99.5126571260792900
    One-Electron Energy =                -404.5320207492058557
    Two-Electron Energy =                 150.0664892372255679
    Total Energy =                       -154.9528743859009694
  Basis Set: (AUG-CC-PVTZ AUX)
    Blend: AUG-CC-PVTZ-RI
    Molecular point group: c1

    Geometry (in Angstrom), charge = 0, multiplicity = 1:

       Center              X                  Y                   Z               Mass
    ------------   -----------------  -----------------  -----------------  -----------------
         C           -0.105547848423    -0.259972778698     2.054291321183    12.000000000000
         C            0.050669551577     0.246548321302    -2.058611478817    12.000000000000
         C            0.013439551577    -0.065647678698     0.608240521183    12.000000000000
         C            0.030308551577     0.076358321302    -0.604792478817    12.000000000000
         H            0.631409551577     0.505235321302     2.552432521183     1.007825032230
         H           -1.020318448423    -0.120136678698     2.456474521183     1.007825032230
         H            0.353075551577    -1.229199678698     2.345604521183     1.007825032230
         H            1.024589551577    -0.030833678698    -2.472304478817     1.007825032230
         H           -0.147892448423     1.286285321302    -2.334516478817     1.007825032230
         H           -0.708338448423    -0.379037678698    -2.537306478817     1.007825032230

  Basis Set: AUG-CC-PVTZ
    Blend: AUG-CC-PVTZ
  Basis Set: (AUG-CC-PVTZ AUX)
    Blend: AUG-CC-PVTZ-JKFIT
	 Reference Energy          =    -154.9528743859009694 [Eh]
	 Singles Energy            =      -0.0000000000000000 [Eh]
	 Same-Spin Energy          =      -0.1623135942486310 [Eh]
	 Opposite-Spin Energy      =      -0.5767481515073243 [Eh]
	 Correlation Energy        =      -0.7390617457559553 [Eh]
	 Total Energy              =    -155.6919361316569166 [Eh]

	 ================> DF-SCS-MP2 Energies <==================
	-----------------------------------------------------------
	 SCS Same-Spin Scale       =       0.3333333333333333 [-]
	 SCS Opposite-Spin Scale   =       1.2000000000000000 [-]
	 SCS Same-Spin Energy      =      -0.0541045314162103 [Eh]
	 SCS Opposite-Spin Energy  =      -0.6920977818087891 [Eh]
	 SCS Correlation Energy    =      -0.7462023132249994 [Eh]
	 SCS Total Energy          =    -155.6990766991259818 [Eh]
	-----------------------------------------------------------

  Dipole Moment: [D]
     X:    -0.0540      Y:    -0.0187      Z:    -0.0201     Total:     0.0605

*** Psi4 exiting successfully. Buy a developer a beer!
