                               Psi4 1.3.2 release

  ==> Input File <==

--------------------------------------------------------------------------
#psi4
#
memory 32 gb

molecule  {
0 1
  C       -0.0285630    -0.2411630     2.0603460
  C        0.0286840     0.2411780    -2.0603400
  C       -0.0099134    -0.0826408     0.7058248
  C        0.0083230     0.0709880    -0.6065210
  H        0.6094240     0.4998650     2.5507040
  H       -1.0423040    -0.1255070     2.4547460
  H        0.3310900    -1.2345700     2.3438760
  H        1.0026040    -0.0362040    -2.4740330
  H       -0.1698780     1.2809150    -2.3362450
  H       -0.7303240    -0.3844080    -2.5390350
units angstrom
no_reorient  #important for SAPT in psi4, default
symmetry c1  #important for SAPT in psi4, default
}

set PROPERTIES_ORIGIN ["COM"]
properties('MP2/aug-cc-pvtz', properties = ['dipole'])
--------------------------------------------------------------------------

    Molecular point group: c1
  Charge       = 0
  Multiplicity = 1
  Basis Set: AUG-CC-PVTZ
    Blend: AUG-CC-PVTZ
  Basis Set: (AUG-CC-PVTZ AUX)
    Blend: AUG-CC-PVTZ-JKFIT

    Orbital Energies [Eh]
    ---------------------

    Doubly Occupied:

       1A    -11.248951     2A    -11.248107     3A    -11.244043
       4A    -11.237606     5A     -1.067840     6A     -1.016299
       7A     -0.886664     8A     -0.672487     9A     -0.602991
      10A     -0.596717    11A     -0.596716    12A     -0.578413
      13A     -0.578412    14A     -0.334623    15A     -0.334622

  @DF-RHF Final Energy:  -154.92558239385508

   => Energetics <=

    Nuclear Repulsion Energy =             99.1303874426339462
    One-Electron Energy =                -403.6229587254521789
    Two-Electron Energy =                 149.5669888889631522
    Total Energy =                       -154.9255823938550805
  Basis Set: (AUG-CC-PVTZ AUX)
    Blend: AUG-CC-PVTZ-RI
    Molecular point group: c1

    Geometry (in Angstrom), charge = 0, multiplicity = 1:

       Center              X                  Y                   Z               Mass
    ------------   -----------------  -----------------  -----------------  -----------------
         C           -0.028248162419    -0.238580765713     2.038296084187    12.000000000000
         C            0.028998837581     0.243760234287    -2.082389915813    12.000000000000
         C           -0.009598562419    -0.080058565713     0.683774884187    12.000000000000
         C            0.008637837581     0.073570234287    -0.628570915813    12.000000000000
         H            0.609738837581     0.502447234287     2.528654084187     1.007825032230
         H           -1.041989162419    -0.122924765713     2.432696084187     1.007825032230
         H            0.331404837581    -1.231987765713     2.321826084187     1.007825032230
         H            1.002918837581    -0.033621765713    -2.496082915813     1.007825032230
         H           -0.169563162419     1.283497234287    -2.358294915813     1.007825032230
         H           -0.730009162419    -0.381825765713    -2.561084915813     1.007825032230

  Basis Set: AUG-CC-PVTZ
    Blend: AUG-CC-PVTZ
  Basis Set: (AUG-CC-PVTZ AUX)
    Blend: AUG-CC-PVTZ-JKFIT
	 Reference Energy          =    -154.9255823938550805 [Eh]
	 Singles Energy            =      -0.0000000000000000 [Eh]
	 Same-Spin Energy          =      -0.1678883794401166 [Eh]
	 Opposite-Spin Energy      =      -0.5862005870519688 [Eh]
	 Correlation Energy        =      -0.7540889664920853 [Eh]
	 Total Energy              =    -155.6796713603471574 [Eh]

	 ================> DF-SCS-MP2 Energies <==================
	-----------------------------------------------------------
	 SCS Same-Spin Scale       =       0.3333333333333333 [-]
	 SCS Opposite-Spin Scale   =       1.2000000000000000 [-]
	 SCS Same-Spin Energy      =      -0.0559627931467055 [Eh]
	 SCS Opposite-Spin Energy  =      -0.7034407044623625 [Eh]
	 SCS Correlation Energy    =      -0.7594034976090680 [Eh]
	 SCS Total Energy          =    -155.6849858914641516 [Eh]
	-----------------------------------------------------------

  Dipole Moment: [D]
     X:     0.0001      Y:    -0.0024      Z:     0.0209     Total:     0.0211

*** Psi4 exiting successfully. Buy a developer a beer!
