                               Psi4 1.3.2 release

  ==> Input File <==

--------------------------------------------------------------------------
#psi4
#
memory 32 gb

molecule  {
0 1
  C       -0.0285630    -0.2411630     2.0603460
  C        0.0286840     0.2411780    -2.0603400
  C       -0.0112808    -0.0942635     0.8051377
  C        0.0083230     0.0709880    -0.6065210
  H        0.6094240     0.4998650     2.5507040
  H       -1.0423040    -0.1255070     2.4547460
  H        0.3310900    -1.2345700     2.3438760
  H        1.0026040    -0.0362040    -2.4740330
  H       -0.1698780     1.2809150    -2.3362450
  H       -0.7303240    -0.3844080    -2.5390350
units angstrom
no_reorient  #important for SAPT in psi4, default
symmetry c1  #important for SAPT in psi4, default
}

set PROPERTIES_ORIGIN ["COM"]
properties('MP2/aug-cc-pvtz', properties = ['dipole'])
--------------------------------------------------------------------------

    Molecular point group: c1
  Charge       = 0
  Multiplicity = 1
  Basis Set: AUG-CC-PVTZ
    Blend: AUG-CC-PVTZ
  Basis Set: (AUG-CC-PVTZ AUX)
    Blend: AUG-CC-PVTZ-JKFIT

    Orbital Energies [Eh]
    ---------------------

    Doubly Occupied:

       1A    -11.270268     2A    -11.262637     3A    -11.251185
       4A    -11.232202     5A     -1.098881     6A     -1.021381
       7A     -0.857465     8A     -0.689953     9A     -0.610452
      10A     -0.610451    11A     -0.604440    12A     -0.581066
      13A     -0.581065    14A     -0.311477    15A     -0.311477

  @DF-RHF Final Energy:  -154.84545063014821

   => Energetics <=

    Nuclear Repulsion Energy =             99.1117655448885131
    One-Electron Energy =                -403.3256327028645387
    Two-Electron Energy =                 149.3684165278278329
    Total Energy =                       -154.8454506301482070
  Basis Set: (AUG-CC-PVTZ AUX)
    Blend: AUG-CC-PVTZ-RI
    Molecular point group: c1

    Geometry (in Angstrom), charge = 0, multiplicity = 1:

       Center              X                  Y                   Z               Mass
    ------------   -----------------  -----------------  -----------------  -----------------
         C           -0.027944559719    -0.236000187169     2.016245722497    12.000000000000
         C            0.029302440281     0.246340812831    -2.104440277503    12.000000000000
         C           -0.010662359719    -0.089100687169     0.761037422497    12.000000000000
         C            0.008941440281     0.076150812831    -0.650621277503    12.000000000000
         H            0.610042440281     0.505027812831     2.506603722497     1.007825032230
         H           -1.041685559719    -0.120344187169     2.410645722497     1.007825032230
         H            0.331708440281    -1.229407187169     2.299775722497     1.007825032230
         H            1.003222440281    -0.031041187169    -2.518133277503     1.007825032230
         H           -0.169259559719     1.286077812831    -2.380345277503     1.007825032230
         H           -0.729705559719    -0.379245187169    -2.583135277503     1.007825032230

  Basis Set: AUG-CC-PVTZ
    Blend: AUG-CC-PVTZ
  Basis Set: (AUG-CC-PVTZ AUX)
    Blend: AUG-CC-PVTZ-JKFIT
	 Reference Energy          =    -154.8454506301482070 [Eh]
	 Singles Energy            =      -0.0000000000000000 [Eh]
	 Same-Spin Energy          =      -0.1749036699413774 [Eh]
	 Opposite-Spin Energy      =      -0.5985733196040257 [Eh]
	 Correlation Energy        =      -0.7734769895454031 [Eh]
	 Total Energy              =    -155.6189276196936078 [Eh]

	 ================> DF-SCS-MP2 Energies <==================
	-----------------------------------------------------------
	 SCS Same-Spin Scale       =       0.3333333333333333 [-]
	 SCS Opposite-Spin Scale   =       1.2000000000000000 [-]
	 SCS Same-Spin Energy      =      -0.0583012233137925 [Eh]
	 SCS Opposite-Spin Energy  =      -0.7182879835248308 [Eh]
	 SCS Correlation Energy    =      -0.7765892068386233 [Eh]
	 SCS Total Energy          =    -155.6220398369868292 [Eh]
	-----------------------------------------------------------

  Dipole Moment: [D]
     X:    -0.0012      Y:    -0.0136      Z:     0.1168     Total:     0.1176

*** Psi4 exiting successfully. Buy a developer a beer!
