                               Psi4 1.3.2 release

  ==> Input File <==

--------------------------------------------------------------------------
#psi4
#
memory 32 gb

molecule  {
0 1
  C       -0.0285630    -0.2411630     2.0603460
  C        0.0286840     0.2411780    -2.0603400
  C        0.0236279    -0.0317686     0.6124464
  C        0.0083230     0.0709880    -0.6065210
  H        0.6094240     0.4998650     2.5507040
  H       -1.0423040    -0.1255070     2.4547460
  H        0.3310900    -1.2345700     2.3438760
  H        1.0026040    -0.0362040    -2.4740330
  H       -0.1698780     1.2809150    -2.3362450
  H       -0.7303240    -0.3844080    -2.5390350
units angstrom
no_reorient  #important for SAPT in psi4, default
symmetry c1  #important for SAPT in psi4, default
}

set PROPERTIES_ORIGIN ["COM"]
properties('MP2/aug-cc-pvtz', properties = ['dipole'])
--------------------------------------------------------------------------

    Molecular point group: c1
  Charge       = 0
  Multiplicity = 1
  Basis Set: AUG-CC-PVTZ
    Blend: AUG-CC-PVTZ
  Basis Set: (AUG-CC-PVTZ AUX)
    Blend: AUG-CC-PVTZ-JKFIT

    Orbital Energies [Eh]
    ---------------------

    Doubly Occupied:

       1A    -11.244178     2A    -11.244022     3A    -11.223724
       4A    -11.220364     5A     -1.058317     6A     -1.001370
       7A     -0.911278     8A     -0.653880     9A     -0.596241
      10A     -0.589411    11A     -0.589139    12A     -0.573355
      13A     -0.572890    14A     -0.358651    15A     -0.358299

  @DF-RHF Final Energy:  -154.96316474821310

   => Energetics <=

    Nuclear Repulsion Energy =             99.4734600722939746
    One-Electron Energy =                -404.4830118276876760
    Two-Electron Energy =                 150.0463870071806127
    Total Energy =                       -154.9631647482131029
  Basis Set: (AUG-CC-PVTZ AUX)
    Blend: AUG-CC-PVTZ-RI
    Molecular point group: c1

    Geometry (in Angstrom), charge = 0, multiplicity = 1:

       Center              X                  Y                   Z               Mass
    ------------   -----------------  -----------------  -----------------  -----------------
         C           -0.035695309733    -0.249875878532     2.059028813712    12.000000000000
         C            0.021551690267     0.232465121468    -2.061657186288    12.000000000000
         C            0.016495590267    -0.040481478532     0.611129213712    12.000000000000
         C            0.001190690267     0.062275121468    -0.607838186288    12.000000000000
         H            0.602291690267     0.491152121468     2.549386813712     1.007825032230
         H           -1.049436309733    -0.134219878532     2.453428813712     1.007825032230
         H            0.323957690267    -1.243282878532     2.342558813712     1.007825032230
         H            0.995471690267    -0.044916878532    -2.475350186288     1.007825032230
         H           -0.177010309733     1.272202121468    -2.337562186288     1.007825032230
         H           -0.737456309733    -0.393120878532    -2.540352186288     1.007825032230

  Basis Set: AUG-CC-PVTZ
    Blend: AUG-CC-PVTZ
  Basis Set: (AUG-CC-PVTZ AUX)
    Blend: AUG-CC-PVTZ-JKFIT
	 Reference Energy          =    -154.9631647482131029 [Eh]
	 Singles Energy            =      -0.0000000000000000 [Eh]
	 Same-Spin Energy          =      -0.1622539658552257 [Eh]
	 Opposite-Spin Energy      =      -0.5764767174150696 [Eh]
	 Correlation Energy        =      -0.7387306832702953 [Eh]
	 Total Energy              =    -155.7018954314833934 [Eh]

	 ================> DF-SCS-MP2 Energies <==================
	-----------------------------------------------------------
	 SCS Same-Spin Scale       =       0.3333333333333333 [-]
	 SCS Opposite-Spin Scale   =       1.2000000000000000 [-]
	 SCS Same-Spin Energy      =      -0.0540846552850752 [Eh]
	 SCS Opposite-Spin Energy  =      -0.6917720608980834 [Eh]
	 SCS Correlation Energy    =      -0.7458567161831586 [Eh]
	 SCS Total Energy          =    -155.7090214643962724 [Eh]
	-----------------------------------------------------------

  Dipole Moment: [D]
     X:    -0.0279      Y:    -0.0339      Z:    -0.0107     Total:     0.0452

*** Psi4 exiting successfully. Buy a developer a beer!
