                               Psi4 1.3.2 release

  ==> Input File <==

--------------------------------------------------------------------------
#psi4
#
memory 32 gb

molecule  {
0 1
  C        0.0209890    -0.2287546     2.0615825
  C        0.0286840     0.2411780    -2.0603400
  C       -0.0085460    -0.0710180     0.6065120
  C        0.0083230     0.0709880    -0.6065210
  H        0.6094240     0.4998650     2.5507040
  H       -1.0423040    -0.1255070     2.4547460
  H        0.3310900    -1.2345700     2.3438760
  H        1.0026040    -0.0362040    -2.4740330
  H       -0.1698780     1.2809150    -2.3362450
  H       -0.7303240    -0.3844080    -2.5390350
units angstrom
no_reorient  #important for SAPT in psi4, default
symmetry c1  #important for SAPT in psi4, default
}

set PROPERTIES_ORIGIN ["COM"]
properties('MP2/aug-cc-pvtz', properties = ['dipole'])
--------------------------------------------------------------------------

    Molecular point group: c1
  Charge       = 0
  Multiplicity = 1
  Basis Set: AUG-CC-PVTZ
    Blend: AUG-CC-PVTZ
  Basis Set: (AUG-CC-PVTZ AUX)
    Blend: AUG-CC-PVTZ-JKFIT

    Orbital Energies [Eh]
    ---------------------

    Doubly Occupied:

       1A    -11.244446     2A    -11.244086     3A    -11.223226
       4A    -11.219828     5A     -1.058510     6A     -1.001389
       7A     -0.911889     8A     -0.654582     9A     -0.600507
      10A     -0.594095    11A     -0.585329    12A     -0.577764
      13A     -0.562839    14A     -0.360253    15A     -0.357202

  @DF-RHF Final Energy:  -154.96132105909402

   => Energetics <=

    Nuclear Repulsion Energy =             99.5044383609049277
    One-Electron Energy =                -404.5396277850211391
    Two-Electron Energy =                 150.0738683650221788
    Total Energy =                       -154.9613210590940184
  Basis Set: (AUG-CC-PVTZ AUX)
    Blend: AUG-CC-PVTZ-RI
    Molecular point group: c1

    Geometry (in Angstrom), charge = 0, multiplicity = 1:

       Center              X                  Y                   Z               Mass
    ------------   -----------------  -----------------  -----------------  -----------------
         C            0.009998244984    -0.231507993328     2.061308384593    12.000000000000
         C            0.017693244984     0.238424606672    -2.060614115407    12.000000000000
         C           -0.019536755016    -0.073771393328     0.606237884593    12.000000000000
         C           -0.002667755016     0.068234606672    -0.606795115407    12.000000000000
         H            0.598433244984     0.497111606672     2.550429884593     1.007825032230
         H           -1.053294755016    -0.128260393328     2.454471884593     1.007825032230
         H            0.320099244984    -1.237323393328     2.343601884593     1.007825032230
         H            0.991613244984    -0.038957393328    -2.474307115407     1.007825032230
         H           -0.180868755016     1.278161606672    -2.336519115407     1.007825032230
         H           -0.741314755016    -0.387161393328    -2.539309115407     1.007825032230

  Basis Set: AUG-CC-PVTZ
    Blend: AUG-CC-PVTZ
  Basis Set: (AUG-CC-PVTZ AUX)
    Blend: AUG-CC-PVTZ-JKFIT
	 Reference Energy          =    -154.9613210590940184 [Eh]
	 Singles Energy            =      -0.0000000000000000 [Eh]
	 Same-Spin Energy          =      -0.1621906762487237 [Eh]
	 Opposite-Spin Energy      =      -0.5763377454660270 [Eh]
	 Correlation Energy        =      -0.7385284217147506 [Eh]
	 Total Energy              =    -155.6998494808087798 [Eh]

	 ================> DF-SCS-MP2 Energies <==================
	-----------------------------------------------------------
	 SCS Same-Spin Scale       =       0.3333333333333333 [-]
	 SCS Opposite-Spin Scale   =       1.2000000000000000 [-]
	 SCS Same-Spin Energy      =      -0.0540635587495746 [Eh]
	 SCS Opposite-Spin Energy  =      -0.6916052945592324 [Eh]
	 SCS Correlation Energy    =      -0.7456688533088069 [Eh]
	 SCS Total Energy          =    -155.7069899124028325 [Eh]
	-----------------------------------------------------------

  Dipole Moment: [D]
     X:     0.0309      Y:     0.0067      Z:    -0.0029     Total:     0.0317

*** Psi4 exiting successfully. Buy a developer a beer!
