                               Psi4 1.3.2 release

  ==> Input File <==

--------------------------------------------------------------------------
#psi4
#
memory 32 gb

molecule  {
0 1
  C       -0.0037863    -0.2349838     2.0611858
  C        0.0286840     0.2411780    -2.0603400
  C       -0.0085460    -0.0710180     0.6065120
  C        0.0083230     0.0709880    -0.6065210
  H        0.6094240     0.4998650     2.5507040
  H       -1.0423040    -0.1255070     2.4547460
  H        0.3310900    -1.2345700     2.3438760
  H        1.0026040    -0.0362040    -2.4740330
  H       -0.1698780     1.2809150    -2.3362450
  H       -0.7303240    -0.3844080    -2.5390350
units angstrom
no_reorient  #important for SAPT in psi4, default
symmetry c1  #important for SAPT in psi4, default
}

set PROPERTIES_ORIGIN ["COM"]
properties('MP2/aug-cc-pvtz', properties = ['dipole'])
--------------------------------------------------------------------------

    Molecular point group: c1
  Charge       = 0
  Multiplicity = 1
  Basis Set: AUG-CC-PVTZ
    Blend: AUG-CC-PVTZ
  Basis Set: (AUG-CC-PVTZ AUX)
    Blend: AUG-CC-PVTZ-JKFIT

    Orbital Energies [Eh]
    ---------------------

    Doubly Occupied:

       1A    -11.244142     2A    -11.244053     3A    -11.223136
       4A    -11.219739     5A     -1.058422     6A     -1.001277
       7A     -0.911747     8A     -0.653857     9A     -0.596594
      10A     -0.592595    11A     -0.586887    12A     -0.576166
      13A     -0.568861    14A     -0.359555    15A     -0.358046

  @DF-RHF Final Energy:  -154.96328497783892

   => Energetics <=

    Nuclear Repulsion Energy =             99.5028151734678374
    One-Electron Energy =                -404.5420441870020341
    Two-Electron Energy =                 150.0759440356952439
    Total Energy =                       -154.9632849778389243
  Basis Set: (AUG-CC-PVTZ AUX)
    Blend: AUG-CC-PVTZ-RI
    Molecular point group: c1

    Geometry (in Angstrom), charge = 0, multiplicity = 1:

       Center              X                  Y                   Z               Mass
    ------------   -----------------  -----------------  -----------------  -----------------
         C           -0.009276215488    -0.236354129164     2.060999763569    12.000000000000
         C            0.023194084512     0.239807670836    -2.060526036431    12.000000000000
         C           -0.014035915488    -0.072388329164     0.606325963569    12.000000000000
         C            0.002833084512     0.069617670836    -0.606707036431    12.000000000000
         H            0.603934084512     0.498494670836     2.550517963569     1.007825032230
         H           -1.047793915488    -0.126877329164     2.454559963569     1.007825032230
         H            0.325600084512    -1.235940329164     2.343689963569     1.007825032230
         H            0.997114084512    -0.037574329164    -2.474219036431     1.007825032230
         H           -0.175367915488     1.279544670836    -2.336431036431     1.007825032230
         H           -0.735813915488    -0.385778329164    -2.539221036431     1.007825032230

  Basis Set: AUG-CC-PVTZ
    Blend: AUG-CC-PVTZ
  Basis Set: (AUG-CC-PVTZ AUX)
    Blend: AUG-CC-PVTZ-JKFIT
	 Reference Energy          =    -154.9632849778389243 [Eh]
	 Singles Energy            =      -0.0000000000000000 [Eh]
	 Same-Spin Energy          =      -0.1621608471630097 [Eh]
	 Opposite-Spin Energy      =      -0.5762393750008004 [Eh]
	 Correlation Energy        =      -0.7384002221638101 [Eh]
	 Total Energy              =    -155.7016852000027427 [Eh]

	 ================> DF-SCS-MP2 Energies <==================
	-----------------------------------------------------------
	 SCS Same-Spin Scale       =       0.3333333333333333 [-]
	 SCS Opposite-Spin Scale   =       1.2000000000000000 [-]
	 SCS Same-Spin Energy      =      -0.0540536157210032 [Eh]
	 SCS Opposite-Spin Energy  =      -0.6914872500009605 [Eh]
	 SCS Correlation Energy    =      -0.7455408657219637 [Eh]
	 SCS Total Energy          =    -155.7088258435609021 [Eh]
	-----------------------------------------------------------

  Dipole Moment: [D]
     X:     0.0154      Y:     0.0036      Z:    -0.0004     Total:     0.0158

*** Psi4 exiting successfully. Buy a developer a beer!
