                               Psi4 1.3.2 release

  ==> Input File <==

--------------------------------------------------------------------------
#psi4
#
memory 32 gb

molecule  {
0 1
  C       -0.0285630    -0.2411630     2.0603460
  C        0.0286840     0.2411780    -2.0603400
  C       -0.0246446    -0.0907234     0.6042087
  C        0.0083230     0.0709880    -0.6065210
  H        0.6094240     0.4998650     2.5507040
  H       -1.0423040    -0.1255070     2.4547460
  H        0.3310900    -1.2345700     2.3438760
  H        1.0026040    -0.0362040    -2.4740330
  H       -0.1698780     1.2809150    -2.3362450
  H       -0.7303240    -0.3844080    -2.5390350
units angstrom
no_reorient  #important for SAPT in psi4, default
symmetry c1  #important for SAPT in psi4, default
}

set PROPERTIES_ORIGIN ["COM"]
properties('MP2/aug-cc-pvtz', properties = ['dipole'])
--------------------------------------------------------------------------

    Molecular point group: c1
  Charge       = 0
  Multiplicity = 1
  Basis Set: AUG-CC-PVTZ
    Blend: AUG-CC-PVTZ
  Basis Set: (AUG-CC-PVTZ AUX)
    Blend: AUG-CC-PVTZ-JKFIT

    Orbital Energies [Eh]
    ---------------------

    Doubly Occupied:

       1A    -11.244076     2A    -11.244037     3A    -11.223261
       4A    -11.219874     5A     -1.058373     6A     -1.001272
       7A     -0.911593     8A     -0.653678     9A     -0.595690
      10A     -0.589606    11A     -0.589324    12A     -0.573413
      13A     -0.573201    14A     -0.358839    15A     -0.358634

  @DF-RHF Final Energy:  -154.96375268253345

   => Energetics <=

    Nuclear Repulsion Energy =             99.4949557400748290
    One-Electron Energy =                -404.5276745673755272
    Two-Electron Energy =                 150.0689661447672449
    Total Energy =                       -154.9637526825334533
  Basis Set: (AUG-CC-PVTZ AUX)
    Blend: AUG-CC-PVTZ-RI
    Molecular point group: c1

    Geometry (in Angstrom), charge = 0, multiplicity = 1:

       Center              X                  Y                   Z               Mass
    ------------   -----------------  -----------------  -----------------  -----------------
         C           -0.024977406171    -0.236786192667     2.060857823483    12.000000000000
         C            0.032269593829     0.245554807333    -2.059828176517    12.000000000000
         C           -0.021059006171    -0.086346592667     0.604720523483    12.000000000000
         C            0.011908593829     0.075364807333    -0.606009176517    12.000000000000
         H            0.613009593829     0.504241807333     2.551215823483     1.007825032230
         H           -1.038718406171    -0.121130192667     2.455257823483     1.007825032230
         H            0.334675593829    -1.230193192667     2.344387823483     1.007825032230
         H            1.006189593829    -0.031827192667    -2.473521176517     1.007825032230
         H           -0.166292406171     1.285291807333    -2.335733176517     1.007825032230
         H           -0.726738406171    -0.380031192667    -2.538523176517     1.007825032230

  Basis Set: AUG-CC-PVTZ
    Blend: AUG-CC-PVTZ
  Basis Set: (AUG-CC-PVTZ AUX)
    Blend: AUG-CC-PVTZ-JKFIT
	 Reference Energy          =    -154.9637526825334533 [Eh]
	 Singles Energy            =      -0.0000000000000000 [Eh]
	 Same-Spin Energy          =      -0.1621767399541682 [Eh]
	 Opposite-Spin Energy      =      -0.5762744692477939 [Eh]
	 Correlation Energy        =      -0.7384512092019622 [Eh]
	 Total Energy              =    -155.7022038917354223 [Eh]

	 ================> DF-SCS-MP2 Energies <==================
	-----------------------------------------------------------
	 SCS Same-Spin Scale       =       0.3333333333333333 [-]
	 SCS Opposite-Spin Scale   =       1.2000000000000000 [-]
	 SCS Same-Spin Energy      =      -0.0540589133180561 [Eh]
	 SCS Opposite-Spin Energy  =      -0.6915293630973527 [Eh]
	 SCS Correlation Energy    =      -0.7455882764154087 [Eh]
	 SCS Total Energy          =    -155.7093409589488715 [Eh]
	-----------------------------------------------------------

  Dipole Moment: [D]
     X:     0.0145      Y:     0.0176      Z:     0.0007     Total:     0.0228

*** Psi4 exiting successfully. Buy a developer a beer!
