                               Psi4 1.3.2 release

  ==> Input File <==

--------------------------------------------------------------------------
#psi4
#
memory 32 gb

molecule  {
0 1
  C        0.0705049    -0.2161540     2.0610462
  C        0.0286840     0.2411780    -2.0603400
  C       -0.0085460    -0.0710180     0.6065120
  C        0.0083230     0.0709880    -0.6065210
  H        0.6094240     0.4998650     2.5507040
  H       -1.0423040    -0.1255070     2.4547460
  H        0.3310900    -1.2345700     2.3438760
  H        1.0026040    -0.0362040    -2.4740330
  H       -0.1698780     1.2809150    -2.3362450
  H       -0.7303240    -0.3844080    -2.5390350
units angstrom
no_reorient  #important for SAPT in psi4, default
symmetry c1  #important for SAPT in psi4, default
}

set PROPERTIES_ORIGIN ["COM"]
properties('MP2/aug-cc-pvtz', properties = ['dipole'])
--------------------------------------------------------------------------

    Molecular point group: c1
  Charge       = 0
  Multiplicity = 1
  Basis Set: AUG-CC-PVTZ
    Blend: AUG-CC-PVTZ
  Basis Set: (AUG-CC-PVTZ AUX)
    Blend: AUG-CC-PVTZ-JKFIT

    Orbital Energies [Eh]
    ---------------------

    Doubly Occupied:

       1A    -11.245661     2A    -11.244219     3A    -11.223590
       4A    -11.220175     5A     -1.058856     6A     -1.001826
       7A     -0.912440     8A     -0.657574     9A     -0.611010
      10A     -0.594927    11A     -0.584087    12A     -0.579264
      13A     -0.548847    14A     -0.361560    15A     -0.355287

  @DF-RHF Final Energy:  -154.95366382371586

   => Energetics <=

    Nuclear Repulsion Energy =             99.5102279312613263
    One-Electron Energy =                -404.5291353360143489
    Two-Electron Energy =                 150.0652435810371514
    Total Energy =                       -154.9536638237158570
  Basis Set: (AUG-CC-PVTZ AUX)
    Blend: AUG-CC-PVTZ-RI
    Molecular point group: c1

    Geometry (in Angstrom), charge = 0, multiplicity = 1:

       Center              X                  Y                   Z               Mass
    ------------   -----------------  -----------------  -----------------  -----------------
         C            0.048520170341    -0.221705094206     2.060891158842    12.000000000000
         C            0.006699270341     0.235626905794    -2.060495041158    12.000000000000
         C           -0.030530729659    -0.076569094206     0.606356958842    12.000000000000
         C           -0.013661729659     0.065436905794    -0.606676041158    12.000000000000
         H            0.587439270341     0.494313905794     2.550548958842     1.007825032230
         H           -1.064288729659    -0.131058094206     2.454590958842     1.007825032230
         H            0.309105270341    -1.240121094206     2.343720958842     1.007825032230
         H            0.980619270341    -0.041755094206    -2.474188041158     1.007825032230
         H           -0.191862729659     1.275363905794    -2.336400041158     1.007825032230
         H           -0.752308729659    -0.389959094206    -2.539190041158     1.007825032230

  Basis Set: AUG-CC-PVTZ
    Blend: AUG-CC-PVTZ
  Basis Set: (AUG-CC-PVTZ AUX)
    Blend: AUG-CC-PVTZ-JKFIT
	 Reference Energy          =    -154.9536638237158570 [Eh]
	 Singles Energy            =      -0.0000000000000000 [Eh]
	 Same-Spin Energy          =      -0.1623090101369185 [Eh]
	 Opposite-Spin Energy      =      -0.5767274662834614 [Eh]
	 Correlation Energy        =      -0.7390364764203798 [Eh]
	 Total Energy              =    -155.6927003001362380 [Eh]

	 ================> DF-SCS-MP2 Energies <==================
	-----------------------------------------------------------
	 SCS Same-Spin Scale       =       0.3333333333333333 [-]
	 SCS Opposite-Spin Scale   =       1.2000000000000000 [-]
	 SCS Same-Spin Energy      =      -0.0541030033789728 [Eh]
	 SCS Opposite-Spin Energy  =      -0.6920729595401537 [Eh]
	 SCS Correlation Energy    =      -0.7461759629191265 [Eh]
	 SCS Total Energy          =    -155.6998397866349819 [Eh]
	-----------------------------------------------------------

  Dipole Moment: [D]
     X:     0.0629      Y:     0.0114      Z:    -0.0139     Total:     0.0654

*** Psi4 exiting successfully. Buy a developer a beer!
