                               Psi4 1.3.2 release

  ==> Input File <==

--------------------------------------------------------------------------
#psi4
#
memory 32 gb

molecule  {
0 1
  C       -0.0285630    -0.2411630     2.0603460
  C        0.0286840     0.2411780    -2.0603400
  C        0.0877459     0.0459174     0.6295978
  C        0.0083230     0.0709880    -0.6065210
  H        0.6094240     0.4998650     2.5507040
  H       -1.0423040    -0.1255070     2.4547460
  H        0.3310900    -1.2345700     2.3438760
  H        1.0026040    -0.0362040    -2.4740330
  H       -0.1698780     1.2809150    -2.3362450
  H       -0.7303240    -0.3844080    -2.5390350
units angstrom
no_reorient  #important for SAPT in psi4, default
symmetry c1  #important for SAPT in psi4, default
}

set PROPERTIES_ORIGIN ["COM"]
properties('MP2/aug-cc-pvtz', properties = ['dipole'])
--------------------------------------------------------------------------

    Molecular point group: c1
  Charge       = 0
  Multiplicity = 1
  Basis Set: AUG-CC-PVTZ
    Blend: AUG-CC-PVTZ
  Basis Set: (AUG-CC-PVTZ AUX)
    Blend: AUG-CC-PVTZ-JKFIT

    Orbital Energies [Eh]
    ---------------------

    Doubly Occupied:

       1A    -11.245245     2A    -11.243826     3A    -11.228748
       4A    -11.225384     5A     -1.057737     6A     -1.002407
       7A     -0.907904     8A     -0.655993     9A     -0.599833
      10A     -0.589295    11A     -0.587600    12A     -0.573583
      13A     -0.568624    14A     -0.356140    15A     -0.355392

  @DF-RHF Final Energy:  -154.95659461936347

   => Energetics <=

    Nuclear Repulsion Energy =             99.2473856055544417
    One-Electron Energy =                -404.0125392320628634
    Two-Electron Energy =                 149.8085590071449644
    Total Energy =                       -154.9565946193634716
  Basis Set: (AUG-CC-PVTZ AUX)
    Blend: AUG-CC-PVTZ-RI
    Molecular point group: c1

    Geometry (in Angstrom), charge = 0, multiplicity = 1:

       Center              X                  Y                   Z               Mass
    ------------   -----------------  -----------------  -----------------  -----------------
         C           -0.049931376657    -0.267124437362     2.055220702444    12.000000000000
         C            0.007315623343     0.215216562638    -2.065465297556    12.000000000000
         C            0.066377523343     0.019955962638     0.624472502444    12.000000000000
         C           -0.013045376657     0.045026562638    -0.611646297556    12.000000000000
         H            0.588055623343     0.473903562638     2.545578702444     1.007825032230
         H           -1.063672376657    -0.151468437362     2.449620702444     1.007825032230
         H            0.309721623343    -1.260531437362     2.338750702444     1.007825032230
         H            0.981235623343    -0.062165437362    -2.479158297556     1.007825032230
         H           -0.191246376657     1.254953562638    -2.341370297556     1.007825032230
         H           -0.751692376657    -0.410369437362    -2.544160297556     1.007825032230

  Basis Set: AUG-CC-PVTZ
    Blend: AUG-CC-PVTZ
  Basis Set: (AUG-CC-PVTZ AUX)
    Blend: AUG-CC-PVTZ-JKFIT
	 Reference Energy          =    -154.9565946193634716 [Eh]
	 Singles Energy            =      -0.0000000000000000 [Eh]
	 Same-Spin Energy          =      -0.1630774087686609 [Eh]
	 Opposite-Spin Energy      =      -0.5786137231578690 [Eh]
	 Correlation Energy        =      -0.7416911319265299 [Eh]
	 Total Energy              =    -155.6982857512900011 [Eh]

	 ================> DF-SCS-MP2 Energies <==================
	-----------------------------------------------------------
	 SCS Same-Spin Scale       =       0.3333333333333333 [-]
	 SCS Opposite-Spin Scale   =       1.2000000000000000 [-]
	 SCS Same-Spin Energy      =      -0.0543591362562203 [Eh]
	 SCS Opposite-Spin Energy  =      -0.6943364677894427 [Eh]
	 SCS Correlation Energy    =      -0.7486956040456630 [Eh]
	 SCS Total Energy          =    -155.7052902234091221 [Eh]
	-----------------------------------------------------------

  Dipole Moment: [D]
     X:    -0.0849      Y:    -0.0982      Z:    -0.0698     Total:     0.1474

*** Psi4 exiting successfully. Buy a developer a beer!
