                               Psi4 1.4a3.dev225

  ==> Input File <==

--------------------------------------------------------------------------
#psi4
#
memory 32 gb

molecule  {
0 1
  C       -2.0745890    -0.0000210     0.0000350
  C        2.0745890     0.0000080     0.0001060
  C       -0.6607080     0.0000708     0.0000910
  C        0.6107070    -0.0000350    -0.0003900
  H       -2.4668790    -0.1865600     1.0039920
  H       -2.4669260     0.9626950    -0.3403450
  H       -2.4668230    -0.7762390    -0.6634810
  H        2.4670850    -0.8293730    -0.5954460
  H        2.4665040    -0.1012750     1.0163560
  H        2.4670400     0.9305920    -0.4201440
units angstrom
no_reorient  #important for SAPT in psi4, default
symmetry c1  #important for SAPT in psi4, default
}

set PROPERTIES_ORIGIN ["COM"]
properties('MP2/aug-cc-pvtz', properties = ['dipole'])
--------------------------------------------------------------------------

    Molecular point group: c1
  Charge       = 0
  Multiplicity = 1
  Basis Set: AUG-CC-PVTZ
    Blend: AUG-CC-PVTZ
  Basis Set: (AUG-CC-PVTZ AUX)
    Blend: AUG-CC-PVTZ-JKFIT

    Orbital Energies [Eh]
    ---------------------

    Doubly Occupied:

       1A    -11.246380     2A    -11.240859     3A    -11.236142
       4A    -11.232722     5A     -1.060422     6A     -1.009828
       7A     -0.900026     8A     -0.663182     9A     -0.600117
      10A     -0.592516    11A     -0.592508    12A     -0.576034
      13A     -0.576025    14A     -0.346576    15A     -0.346573

  @DF-RHF Final Energy:  -154.95029009130778

   => Energetics <=

    Nuclear Repulsion Energy =             99.2714742033928701
    One-Electron Energy =                -404.0037095285981081
    Two-Electron Energy =                 149.7819452338974600
    Total Energy =                       -154.9502900913077781
  Basis Set: (AUG-CC-PVTZ AUX)
    Blend: AUG-CC-PVTZ-RI
    Molecular point group: c1

    Geometry (in Angstrom), charge = 0, multiplicity = 1:

       Center              X                  Y                   Z               Mass
    ------------   -----------------  -----------------  -----------------  -----------------
         C           -2.063487337649    -0.000023078711     0.000052701407    12.000000000000
         C            2.085690662351     0.000005921289     0.000123701407    12.000000000000
         C           -0.649606337649     0.000068721289     0.000108701407    12.000000000000
         C            0.621808662351    -0.000037078711    -0.000372298593    12.000000000000
         H           -2.455777337649    -0.186562078711     1.004009701407     1.007825032230
         H           -2.455824337649     0.962692921289    -0.340327298593     1.007825032230
         H           -2.455721337649    -0.776241078711    -0.663463298593     1.007825032230
         H            2.478186662351    -0.829375078711    -0.595428298593     1.007825032230
         H            2.477605662351    -0.101277078711     1.016373701407     1.007825032230
         H            2.478141662351     0.930589921289    -0.420126298593     1.007825032230

  Basis Set: AUG-CC-PVTZ
    Blend: AUG-CC-PVTZ
  Basis Set: (AUG-CC-PVTZ AUX)
    Blend: AUG-CC-PVTZ-JKFIT
	 Reference Energy          =    -154.9502900913077781 [Eh]
	 Singles Energy            =      -0.0000000000000000 [Eh]
	 Same-Spin Energy          =      -0.1648591212094582 [Eh]
	 Opposite-Spin Energy      =      -0.5809044007587396 [Eh]
	 Correlation Energy        =      -0.7457635219681978 [Eh]
	 Total Energy              =    -155.6960536132759785 [Eh]

	 ================> DF-SCS-MP2 Energies <==================
	-----------------------------------------------------------
	 SCS Same-Spin Scale       =       0.3333333333333333 [-]
	 SCS Opposite-Spin Scale   =       1.2000000000000000 [-]
	 SCS Same-Spin Energy      =      -0.0549530404031527 [Eh]
	 SCS Opposite-Spin Energy  =      -0.6970852809104875 [Eh]
	 SCS Correlation Energy    =      -0.7520383213136402 [Eh]
	 SCS Total Energy          =    -155.7023284126214264 [Eh]
	-----------------------------------------------------------

  Dipole Moment: [D]
     X:    -0.0008      Y:    -0.0001      Z:     0.0005     Total:     0.0010

*** Psi4 exiting successfully. Buy a developer a beer!
