                               Psi4 1.4a3.dev225

  ==> Input File <==

--------------------------------------------------------------------------
#psi4
#
memory 32 gb

molecule  {
0 1
  C       -2.0745890    -0.0000210     0.0000350
  C        2.0745890     0.0000080     0.0001060
  C       -0.5907080     0.0000753     0.0000938
  C        0.6107070    -0.0000350    -0.0003900
  H       -2.4668790    -0.1865600     1.0039920
  H       -2.4669260     0.9626950    -0.3403450
  H       -2.4668230    -0.7762390    -0.6634810
  H        2.4670850    -0.8293730    -0.5954460
  H        2.4665040    -0.1012750     1.0163560
  H        2.4670400     0.9305920    -0.4201440
units angstrom
no_reorient  #important for SAPT in psi4, default
symmetry c1  #important for SAPT in psi4, default
}

set PROPERTIES_ORIGIN ["COM"]
properties('MP2/aug-cc-pvtz', properties = ['dipole'])
--------------------------------------------------------------------------

    Molecular point group: c1
  Charge       = 0
  Multiplicity = 1
  Basis Set: AUG-CC-PVTZ
    Blend: AUG-CC-PVTZ
  Basis Set: (AUG-CC-PVTZ AUX)
    Blend: AUG-CC-PVTZ-JKFIT

    Orbital Energies [Eh]
    ---------------------

    Doubly Occupied:

       1A    -11.245371     2A    -11.243071     3A    -11.217969
       4A    -11.214015     5A     -1.058815     6A     -0.997609
       7A     -0.915827     8A     -0.649886     9A     -0.593227
      10A     -0.588639    11A     -0.588633    12A     -0.572241
      13A     -0.572232    14A     -0.363901    15A     -0.363899

  @DF-RHF Final Energy:  -154.96608852329652

   => Energetics <=

    Nuclear Repulsion Energy =             99.6199330142123785
    One-Electron Energy =                -404.8013696171395281
    Two-Electron Energy =                 150.2153480796306155
    Total Energy =                       -154.9660885232965200
  Basis Set: (AUG-CC-PVTZ AUX)
    Blend: AUG-CC-PVTZ-RI
    Molecular point group: c1

    Geometry (in Angstrom), charge = 0, multiplicity = 1:

       Center              X                  Y                   Z               Mass
    ------------   -----------------  -----------------  -----------------  -----------------
         C           -2.079029380206    -0.000024077842     0.000052079725    12.000000000000
         C            2.070148619794     0.000004922158     0.000123079725    12.000000000000
         C           -0.595148380206     0.000072222158     0.000110879725    12.000000000000
         C            0.606266619794    -0.000038077842    -0.000372920275    12.000000000000
         H           -2.471319380206    -0.186563077842     1.004009079725     1.007825032230
         H           -2.471366380206     0.962691922158    -0.340327920275     1.007825032230
         H           -2.471263380206    -0.776242077842    -0.663463920275     1.007825032230
         H            2.462644619794    -0.829376077842    -0.595428920275     1.007825032230
         H            2.462063619794    -0.101278077842     1.016373079725     1.007825032230
         H            2.462599619794     0.930588922158    -0.420126920275     1.007825032230

  Basis Set: AUG-CC-PVTZ
    Blend: AUG-CC-PVTZ
  Basis Set: (AUG-CC-PVTZ AUX)
    Blend: AUG-CC-PVTZ-JKFIT
	 Reference Energy          =    -154.9660885232965200 [Eh]
	 Singles Energy            =      -0.0000000000000000 [Eh]
	 Same-Spin Energy          =      -0.1611573425093276 [Eh]
	 Opposite-Spin Energy      =      -0.5744775332735413 [Eh]
	 Correlation Energy        =      -0.7356348757828689 [Eh]
	 Total Energy              =    -155.7017233990793841 [Eh]

	 ================> DF-SCS-MP2 Energies <==================
	-----------------------------------------------------------
	 SCS Same-Spin Scale       =       0.3333333333333333 [-]
	 SCS Opposite-Spin Scale   =       1.2000000000000000 [-]
	 SCS Same-Spin Energy      =      -0.0537191141697759 [Eh]
	 SCS Opposite-Spin Energy  =      -0.6893730399282496 [Eh]
	 SCS Correlation Energy    =      -0.7430921540980254 [Eh]
	 SCS Total Energy          =    -155.7091806773945564 [Eh]
	-----------------------------------------------------------

  Dipole Moment: [D]
     X:    -0.0048      Y:    -0.0001      Z:     0.0005     Total:     0.0049

*** Psi4 exiting successfully. Buy a developer a beer!
