                               Psi4 1.3.2 release

  ==> Input File <==

--------------------------------------------------------------------------
#psi4
#
memory 32 gb

molecule  {
0 1
  C       -0.1768313    -0.2770853     2.0460257
  C        0.0286840     0.2411780    -2.0603400
  C       -0.0085460    -0.0710180     0.6065120
  C        0.0083230     0.0709880    -0.6065210
  H        0.6094240     0.4998650     2.5507040
  H       -1.0423040    -0.1255070     2.4547460
  H        0.3310900    -1.2345700     2.3438760
  H        1.0026040    -0.0362040    -2.4740330
  H       -0.1698780     1.2809150    -2.3362450
  H       -0.7303240    -0.3844080    -2.5390350
units angstrom
no_reorient  #important for SAPT in psi4, default
symmetry c1  #important for SAPT in psi4, default
}

set PROPERTIES_ORIGIN ["COM"]
properties('MP2/aug-cc-pvtz', properties = ['dipole'])
--------------------------------------------------------------------------

    Molecular point group: c1
  Charge       = 0
  Multiplicity = 1
  Basis Set: AUG-CC-PVTZ
    Blend: AUG-CC-PVTZ
  Basis Set: (AUG-CC-PVTZ AUX)
    Blend: AUG-CC-PVTZ-JKFIT

    Orbital Energies [Eh]
    ---------------------

    Doubly Occupied:

       1A    -11.247629     2A    -11.244456     3A    -11.224261
       4A    -11.220768     5A     -1.059467     6A     -1.002684
       7A     -0.913627     8A     -0.667130     9A     -0.619688
      10A     -0.590179    11A     -0.583923    12A     -0.578341
      13A     -0.537274    14A     -0.362459    15A     -0.353477

  @DF-RHF Final Energy:  -154.93870272510966

   => Energetics <=

    Nuclear Repulsion Energy =             99.5264481211090271
    One-Electron Energy =                -404.5195743228013612
    Two-Electron Energy =                 150.0544234765826843
    Total Energy =                       -154.9387027251096640
  Basis Set: (AUG-CC-PVTZ AUX)
    Blend: AUG-CC-PVTZ-RI
    Molecular point group: c1

    Geometry (in Angstrom), charge = 0, multiplicity = 1:

       Center              X                  Y                   Z               Mass
    ------------   -----------------  -----------------  -----------------  -----------------
         C           -0.143900176140    -0.269107867668     2.049205648131    12.000000000000
         C            0.061615123860     0.249155432332    -2.057160051869    12.000000000000
         C            0.024385123860    -0.063040567668     0.609691948131    12.000000000000
         C            0.041254123860     0.078965432332    -0.603341051869    12.000000000000
         H            0.642355123860     0.507842432332     2.553883948131     1.007825032230
         H           -1.009372876140    -0.117529567668     2.457925948131     1.007825032230
         H            0.364021123860    -1.226592567668     2.347055948131     1.007825032230
         H            1.035535123860    -0.028226567668    -2.470853051869     1.007825032230
         H           -0.136946876140     1.288892432332    -2.333065051869     1.007825032230
         H           -0.697392876140    -0.376430567668    -2.535855051869     1.007825032230

  Basis Set: AUG-CC-PVTZ
    Blend: AUG-CC-PVTZ
  Basis Set: (AUG-CC-PVTZ AUX)
    Blend: AUG-CC-PVTZ-JKFIT
	 Reference Energy          =    -154.9387027251096640 [Eh]
	 Singles Energy            =      -0.0000000000000000 [Eh]
	 Same-Spin Energy          =      -0.1625194174971754 [Eh]
	 Opposite-Spin Energy      =      -0.5774359840600375 [Eh]
	 Correlation Energy        =      -0.7399554015572128 [Eh]
	 Total Energy              =    -155.6786581266668748 [Eh]

	 ================> DF-SCS-MP2 Energies <==================
	-----------------------------------------------------------
	 SCS Same-Spin Scale       =       0.3333333333333333 [-]
	 SCS Opposite-Spin Scale   =       1.2000000000000000 [-]
	 SCS Same-Spin Energy      =      -0.0541731391657251 [Eh]
	 SCS Opposite-Spin Energy  =      -0.6929231808720450 [Eh]
	 SCS Correlation Energy    =      -0.7470963200377700 [Eh]
	 SCS Total Energy          =    -155.6857990451474336 [Eh]
	-----------------------------------------------------------

  Dipole Moment: [D]
     X:    -0.0772      Y:    -0.0298      Z:    -0.0433     Total:     0.0933

*** Psi4 exiting successfully. Buy a developer a beer!
