                               Psi4 1.3.2 release

  ==> Input File <==

--------------------------------------------------------------------------
#psi4
#
memory 32 gb

molecule  {
0 1
  C       -0.0285630    -0.2411630     2.0603460
  C        0.0286840     0.2411780    -2.0603400
  C        0.0075465    -0.0513644     0.6092582
  C        0.0083230     0.0709880    -0.6065210
  H        0.6094240     0.4998650     2.5507040
  H       -1.0423040    -0.1255070     2.4547460
  H        0.3310900    -1.2345700     2.3438760
  H        1.0026040    -0.0362040    -2.4740330
  H       -0.1698780     1.2809150    -2.3362450
  H       -0.7303240    -0.3844080    -2.5390350
units angstrom
no_reorient  #important for SAPT in psi4, default
symmetry c1  #important for SAPT in psi4, default
}

set PROPERTIES_ORIGIN ["COM"]
properties('MP2/aug-cc-pvtz', properties = ['dipole'])
--------------------------------------------------------------------------

    Molecular point group: c1
  Charge       = 0
  Multiplicity = 1
  Basis Set: AUG-CC-PVTZ
    Blend: AUG-CC-PVTZ
  Basis Set: (AUG-CC-PVTZ AUX)
    Blend: AUG-CC-PVTZ-JKFIT

    Orbital Energies [Eh]
    ---------------------

    Doubly Occupied:

       1A    -11.244075     2A    -11.244037     3A    -11.223259
       4A    -11.219872     5A     -1.058374     6A     -1.001272
       7A     -0.911594     8A     -0.653677     9A     -0.595696
      10A     -0.589468    11A     -0.589456    12A     -0.573349
      13A     -0.573265    14A     -0.358830    15A     -0.358645

  @DF-RHF Final Energy:  -154.96375404306161

   => Energetics <=

    Nuclear Repulsion Energy =             99.4950561916767526
    One-Electron Energy =                -404.5278821613014202
    Two-Electron Energy =                 150.0690719265630833
    Total Energy =                       -154.9637540430616127
  Basis Set: (AUG-CC-PVTZ AUX)
    Blend: AUG-CC-PVTZ-RI
    Molecular point group: c1

    Geometry (in Angstrom), charge = 0, multiplicity = 1:

       Center              X                  Y                   Z               Mass
    ------------   -----------------  -----------------  -----------------  -----------------
         C           -0.032124769688    -0.245525039139     2.059736687141    12.000000000000
         C            0.025122230312     0.236815960861    -2.060949312859    12.000000000000
         C            0.003984730312    -0.055726439139     0.608648887141    12.000000000000
         C            0.004761230312     0.066625960861    -0.607130312859    12.000000000000
         H            0.605862230312     0.495502960861     2.550094687141     1.007825032230
         H           -1.045865769688    -0.129869039139     2.454136687141     1.007825032230
         H            0.327528230312    -1.238932039139     2.343266687141     1.007825032230
         H            0.999042230312    -0.040566039139    -2.474642312859     1.007825032230
         H           -0.173439769688     1.276552960861    -2.336854312859     1.007825032230
         H           -0.733885769688    -0.388770039139    -2.539644312859     1.007825032230

  Basis Set: AUG-CC-PVTZ
    Blend: AUG-CC-PVTZ
  Basis Set: (AUG-CC-PVTZ AUX)
    Blend: AUG-CC-PVTZ-JKFIT
	 Reference Energy          =    -154.9637540430616127 [Eh]
	 Singles Energy            =      -0.0000000000000000 [Eh]
	 Same-Spin Energy          =      -0.1621765410969851 [Eh]
	 Opposite-Spin Energy      =      -0.5762738407114086 [Eh]
	 Correlation Energy        =      -0.7384503818083938 [Eh]
	 Total Energy              =    -155.7022044248700183 [Eh]

	 ================> DF-SCS-MP2 Energies <==================
	-----------------------------------------------------------
	 SCS Same-Spin Scale       =       0.3333333333333333 [-]
	 SCS Opposite-Spin Scale   =       1.2000000000000000 [-]
	 SCS Same-Spin Energy      =      -0.0540588470323284 [Eh]
	 SCS Opposite-Spin Energy  =      -0.6915286088536904 [Eh]
	 SCS Correlation Energy    =      -0.7455874558860187 [Eh]
	 SCS Total Energy          =    -155.7093414989476230 [Eh]
	-----------------------------------------------------------

  Dipole Moment: [D]
     X:    -0.0137      Y:    -0.0171      Z:    -0.0038     Total:     0.0223

*** Psi4 exiting successfully. Buy a developer a beer!
