                               Psi4 1.4a3.dev225

  ==> Input File <==

--------------------------------------------------------------------------
#psi4
#
memory 32 gb

molecule  {
0 1
  C       -2.0745890    -0.0000210     0.0000350
  C        2.0745890     0.0000080     0.0001060
  C       -0.6307080     0.0000727     0.0000922
  C        0.6107070    -0.0000350    -0.0003900
  H       -2.4668790    -0.1865600     1.0039920
  H       -2.4669260     0.9626950    -0.3403450
  H       -2.4668230    -0.7762390    -0.6634810
  H        2.4670850    -0.8293730    -0.5954460
  H        2.4665040    -0.1012750     1.0163560
  H        2.4670400     0.9305920    -0.4201440
units angstrom
no_reorient  #important for SAPT in psi4, default
symmetry c1  #important for SAPT in psi4, default
}

set PROPERTIES_ORIGIN ["COM"]
properties('MP2/aug-cc-pvtz', properties = ['dipole'])
--------------------------------------------------------------------------

    Molecular point group: c1
  Charge       = 0
  Multiplicity = 1
  Basis Set: AUG-CC-PVTZ
    Blend: AUG-CC-PVTZ
  Basis Set: (AUG-CC-PVTZ AUX)
    Blend: AUG-CC-PVTZ-JKFIT

    Orbital Energies [Eh]
    ---------------------

    Doubly Occupied:

       1A    -11.245027     2A    -11.242773     3A    -11.228334
       4A    -11.225175     5A     -1.058651     6A     -1.004827
       7A     -0.907281     8A     -0.657471     9A     -0.597583
      10A     -0.590619    11A     -0.590612    12A     -0.574432
      13A     -0.574424    14A     -0.353893    15A     -0.353890

  @DF-RHF Final Energy:  -154.95989185705844

   => Energetics <=

    Nuclear Repulsion Energy =             99.3989771725659352
    One-Electron Energy =                -404.3077520980639861
    Two-Electron Energy =                 149.9488830684396135
    Total Energy =                       -154.9598918570584374
  Basis Set: (AUG-CC-PVTZ AUX)
    Blend: AUG-CC-PVTZ-RI
    Molecular point group: c1

    Geometry (in Angstrom), charge = 0, multiplicity = 1:

       Center              X                  Y                   Z               Mass
    ------------   -----------------  -----------------  -----------------  -----------------
         C           -2.070148213030    -0.000023500567     0.000052434972    12.000000000000
         C            2.079029786970     0.000005499433     0.000123434972    12.000000000000
         C           -0.626267213030     0.000070199433     0.000109634972    12.000000000000
         C            0.615147786970    -0.000037500567    -0.000372565028    12.000000000000
         H           -2.462438213030    -0.186562500567     1.004009434972     1.007825032230
         H           -2.462485213030     0.962692499433    -0.340327565028     1.007825032230
         H           -2.462382213030    -0.776241500567    -0.663463565028     1.007825032230
         H            2.471525786970    -0.829375500567    -0.595428565028     1.007825032230
         H            2.470944786970    -0.101277500567     1.016373434972     1.007825032230
         H            2.471480786970     0.930589499433    -0.420126565028     1.007825032230

  Basis Set: AUG-CC-PVTZ
    Blend: AUG-CC-PVTZ
  Basis Set: (AUG-CC-PVTZ AUX)
    Blend: AUG-CC-PVTZ-JKFIT
	 Reference Energy          =    -154.9598918570584374 [Eh]
	 Singles Energy            =      -0.0000000000000000 [Eh]
	 Same-Spin Energy          =      -0.1631960588647160 [Eh]
	 Opposite-Spin Energy      =      -0.5780143577692372 [Eh]
	 Correlation Energy        =      -0.7412104166339532 [Eh]
	 Total Energy              =    -155.7011022736923849 [Eh]

	 ================> DF-SCS-MP2 Energies <==================
	-----------------------------------------------------------
	 SCS Same-Spin Scale       =       0.3333333333333333 [-]
	 SCS Opposite-Spin Scale   =       1.2000000000000000 [-]
	 SCS Same-Spin Energy      =      -0.0543986862882387 [Eh]
	 SCS Opposite-Spin Energy  =      -0.6936172293230846 [Eh]
	 SCS Correlation Energy    =      -0.7480159156113232 [Eh]
	 SCS Total Energy          =    -155.7079077726697562 [Eh]
	-----------------------------------------------------------

  Dipole Moment: [D]
     X:     0.0020      Y:    -0.0001      Z:     0.0005     Total:     0.0020

*** Psi4 exiting successfully. Buy a developer a beer!
