                               Psi4 1.4a3.dev225

  ==> Input File <==

--------------------------------------------------------------------------
#psi4
#
memory 32 gb

molecule  {
0 1
  C       -2.0745890    -0.0000210     0.0000350
  C        2.0745890     0.0000080     0.0001060
  C       -0.5607080     0.0000772     0.0000950
  C        0.6107070    -0.0000350    -0.0003900
  H       -2.4668790    -0.1865600     1.0039920
  H       -2.4669260     0.9626950    -0.3403450
  H       -2.4668230    -0.7762390    -0.6634810
  H        2.4670850    -0.8293730    -0.5954460
  H        2.4665040    -0.1012750     1.0163560
  H        2.4670400     0.9305920    -0.4201440
units angstrom
no_reorient  #important for SAPT in psi4, default
symmetry c1  #important for SAPT in psi4, default
}

set PROPERTIES_ORIGIN ["COM"]
properties('MP2/aug-cc-pvtz', properties = ['dipole'])
--------------------------------------------------------------------------

    Molecular point group: c1
  Charge       = 0
  Multiplicity = 1
  Basis Set: AUG-CC-PVTZ
    Blend: AUG-CC-PVTZ
  Basis Set: (AUG-CC-PVTZ AUX)
    Blend: AUG-CC-PVTZ-JKFIT

    Orbital Energies [Eh]
    ---------------------

    Doubly Occupied:

       1A    -11.247313     2A    -11.241501     3A    -11.210230
       4A    -11.204997     5A     -1.060417     6A     -0.992224
       7A     -0.921244     8A     -0.644315     9A     -0.589175
      10A     -0.587463    11A     -0.587456    12A     -0.570640
      13A     -0.570631    14A     -0.371635    15A     -0.371633

  @DF-RHF Final Energy:  -154.96528466249691

   => Energetics <=

    Nuclear Repulsion Energy =             99.8248458951414079
    One-Electron Energy =                -405.2385098925470857
    Two-Electron Energy =                 150.4483793349087932
    Total Energy =                       -154.9652846624969129
  Basis Set: (AUG-CC-PVTZ AUX)
    Blend: AUG-CC-PVTZ-RI
    Molecular point group: c1

    Geometry (in Angstrom), charge = 0, multiplicity = 1:

       Center              X                  Y                   Z               Mass
    ------------   -----------------  -----------------  -----------------  -----------------
         C           -2.085690255588    -0.000024499698     0.000051813290    12.000000000000
         C            2.063487744412     0.000004500302     0.000122813290    12.000000000000
         C           -0.571809255588     0.000073700302     0.000111813290    12.000000000000
         C            0.599605744412    -0.000038499698    -0.000373186710    12.000000000000
         H           -2.477980255588    -0.186563499698     1.004008813290     1.007825032230
         H           -2.478027255588     0.962691500302    -0.340328186710     1.007825032230
         H           -2.477924255588    -0.776242499698    -0.663464186710     1.007825032230
         H            2.455983744412    -0.829376499698    -0.595429186710     1.007825032230
         H            2.455402744412    -0.101278499698     1.016372813290     1.007825032230
         H            2.455938744412     0.930588500302    -0.420127186710     1.007825032230

  Basis Set: AUG-CC-PVTZ
    Blend: AUG-CC-PVTZ
  Basis Set: (AUG-CC-PVTZ AUX)
    Blend: AUG-CC-PVTZ-JKFIT
	 Reference Energy          =    -154.9652846624969129 [Eh]
	 Singles Energy            =      -0.0000000000000000 [Eh]
	 Same-Spin Energy          =      -0.1597596259308585 [Eh]
	 Opposite-Spin Energy      =      -0.5720472765446267 [Eh]
	 Correlation Energy        =      -0.7318069024754852 [Eh]
	 Total Energy              =    -155.6970915649723963 [Eh]

	 ================> DF-SCS-MP2 Energies <==================
	-----------------------------------------------------------
	 SCS Same-Spin Scale       =       0.3333333333333333 [-]
	 SCS Opposite-Spin Scale   =       1.2000000000000000 [-]
	 SCS Same-Spin Energy      =      -0.0532532086436195 [Eh]
	 SCS Opposite-Spin Energy  =      -0.6864567318535520 [Eh]
	 SCS Correlation Energy    =      -0.7397099404971715 [Eh]
	 SCS Total Energy          =    -155.7049946029940770 [Eh]
	-----------------------------------------------------------

  Dipole Moment: [D]
     X:    -0.0171      Y:    -0.0001      Z:     0.0005     Total:     0.0171

*** Psi4 exiting successfully. Buy a developer a beer!
