                               Psi4 1.3.2 release

  ==> Input File <==

--------------------------------------------------------------------------
#psi4
#
memory 32 gb

molecule  {
0 1
  C       -0.0285630    -0.2411630     2.0603460
  C        0.0286840     0.2411780    -2.0603400
  C       -0.0058112    -0.0477725     0.4078863
  C        0.0083230     0.0709880    -0.6065210
  H        0.6094240     0.4998650     2.5507040
  H       -1.0423040    -0.1255070     2.4547460
  H        0.3310900    -1.2345700     2.3438760
  H        1.0026040    -0.0362040    -2.4740330
  H       -0.1698780     1.2809150    -2.3362450
  H       -0.7303240    -0.3844080    -2.5390350
units angstrom
no_reorient  #important for SAPT in psi4, default
symmetry c1  #important for SAPT in psi4, default
}

set PROPERTIES_ORIGIN ["COM"]
properties('MP2/aug-cc-pvtz', properties = ['dipole'])
--------------------------------------------------------------------------

    Molecular point group: c1
  Charge       = 0
  Multiplicity = 1
  Basis Set: AUG-CC-PVTZ
    Blend: AUG-CC-PVTZ
  Basis Set: (AUG-CC-PVTZ AUX)
    Blend: AUG-CC-PVTZ-JKFIT

    Orbital Energies [Eh]
    ---------------------

    Doubly Occupied:

       1A    -11.256159     2A    -11.232639     3A    -11.173810
       4A    -11.156912     5A     -1.078066     6A     -0.971125
       7A     -0.934043     8A     -0.619774     9A     -0.584495
      10A     -0.584494    11A     -0.564154    12A     -0.564153
      13A     -0.558374    14A     -0.414437    15A     -0.414437

  @DF-RHF Final Energy:  -154.86804888538001

   => Energetics <=

    Nuclear Repulsion Energy =            101.3976316439093353
    One-Electron Energy =                -408.3172169299526217
    Two-Electron Energy =                 152.0515364006632808
    Total Energy =                       -154.8680488853800057
  Basis Set: (AUG-CC-PVTZ AUX)
    Blend: AUG-CC-PVTZ-RI
    Molecular point group: c1

    Geometry (in Angstrom), charge = 0, multiplicity = 1:

       Center              X                  Y                   Z               Mass
    ------------   -----------------  -----------------  -----------------  -----------------
         C           -0.029158970518    -0.246322545748     2.104447124851    12.000000000000
         C            0.028088029482     0.236018454252    -2.016238875149    12.000000000000
         C           -0.006407170518    -0.052932045748     0.451987424851    12.000000000000
         C            0.007727029482     0.065828454252    -0.562419875149    12.000000000000
         H            0.608828029482     0.494705454252     2.594805124851     1.007825032230
         H           -1.042899970518    -0.130666545748     2.498847124851     1.007825032230
         H            0.330494029482    -1.239729545748     2.387977124851     1.007825032230
         H            1.002008029482    -0.041363545748    -2.429931875149     1.007825032230
         H           -0.170473970518     1.275755454252    -2.292143875149     1.007825032230
         H           -0.730919970518    -0.389567545748    -2.494933875149     1.007825032230

  Basis Set: AUG-CC-PVTZ
    Blend: AUG-CC-PVTZ
  Basis Set: (AUG-CC-PVTZ AUX)
    Blend: AUG-CC-PVTZ-JKFIT
	 Reference Energy          =    -154.8680488853800057 [Eh]
	 Singles Energy            =      -0.0000000000000000 [Eh]
	 Same-Spin Energy          =      -0.1543073299365873 [Eh]
	 Opposite-Spin Energy      =      -0.5624537233117206 [Eh]
	 Correlation Energy        =      -0.7167610532483080 [Eh]
	 Total Energy              =    -155.5848099386283252 [Eh]

	 ================> DF-SCS-MP2 Energies <==================
	-----------------------------------------------------------
	 SCS Same-Spin Scale       =       0.3333333333333333 [-]
	 SCS Opposite-Spin Scale   =       1.2000000000000000 [-]
	 SCS Same-Spin Energy      =      -0.0514357766455291 [Eh]
	 SCS Opposite-Spin Energy  =      -0.6749444679740647 [Eh]
	 SCS Correlation Energy    =      -0.7263802446195938 [Eh]
	 SCS Total Energy          =    -155.5944291299996110 [Eh]
	-----------------------------------------------------------

  Dipole Moment: [D]
     X:    -0.0016      Y:    -0.0166      Z:     0.1419     Total:     0.1428

*** Psi4 exiting successfully. Buy a developer a beer!
