                               Psi4 1.4a3.dev225

  ==> Input File <==

--------------------------------------------------------------------------
#psi4
#
memory 32 gb

molecule  {
0 1
  O        2.6043210     0.0828630    -0.1445960
  O        0.8461570    -1.2916990     0.2386850
  C       -1.7394130     0.0979440     0.6095950
  C       -2.3802920    -0.6692310    -0.5542970
  C       -0.8230420     1.1744430     0.1086050
  C        0.4895550     1.0683010    -0.1734410
  C        1.2547549    -0.2147122     0.0123127
  H       -2.5220070     0.5621210     1.2198080
  H       -1.1892610    -0.6035630     1.2386490
  H       -3.0933810    -1.4091330    -0.1797240
  H       -1.6064800    -1.1915300    -1.1205690
  H       -2.9131760     0.0061510    -1.2301320
  H       -1.2820910     2.1452700    -0.0812320
  H        1.0432440     1.9287000    -0.5363220
  H        3.0455250    -0.7830240    -0.0219810
units angstrom
no_reorient  #important for SAPT in psi4, default
symmetry c1  #important for SAPT in psi4, default
}

set PROPERTIES_ORIGIN ["COM"]
properties('MP2/aug-cc-pvtz', properties = ['dipole'])
--------------------------------------------------------------------------

    Molecular point group: c1
  Charge       = 0
  Multiplicity = 1
  Basis Set: AUG-CC-PVTZ
    Blend: AUG-CC-PVTZ
  Basis Set: (AUG-CC-PVTZ AUX)
    Blend: AUG-CC-PVTZ-JKFIT

    Orbital Energies [Eh]
    ---------------------

    Doubly Occupied:

       1A    -20.604655     2A    -20.555736     3A    -11.387625
       4A    -11.266536     5A    -11.244101     6A    -11.232126
       7A    -11.219490     8A     -1.463876     9A     -1.368902
      10A     -1.101761    11A     -1.013701    12A     -0.900326
      13A     -0.835054    14A     -0.745890    15A     -0.711463
      16A     -0.675840    17A     -0.646557    18A     -0.629191
      19A     -0.602917    20A     -0.582134    21A     -0.569646
      22A     -0.526647    23A     -0.504021    24A     -0.500616
      25A     -0.487399    26A     -0.445985    27A     -0.379157

  @DF-RHF Final Energy:  -343.85437030322714

   => Energetics <=

    Nuclear Repulsion Energy =            294.0096511778421586
    One-Electron Energy =               -1051.3253411002788198
    Two-Electron Energy =                 413.4613196192094620
    Total Energy =                       -343.8543703032271424
  Basis Set: (AUG-CC-PVTZ AUX)
    Blend: AUG-CC-PVTZ-RI
    Molecular point group: c1

    Geometry (in Angstrom), charge = 0, multiplicity = 1:

       Center              X                  Y                   Z               Mass
    ------------   -----------------  -----------------  -----------------  -----------------
         O            2.522118317444     0.094798479044    -0.152803410773    15.994914619570
         O            0.763954317444    -1.279763520956     0.230477589227    15.994914619570
         C           -1.821615682556     0.109879479044     0.601387589227    12.000000000000
         C           -2.462494682556    -0.657295520956    -0.562504410773    12.000000000000
         C           -0.905244682556     1.186378479044     0.100397589227    12.000000000000
         C            0.407352317444     1.080236479044    -0.181648410773    12.000000000000
         C            1.172552217444    -0.202776720956     0.004105289227    12.000000000000
         H           -2.604209682556     0.574056479044     1.211600589227     1.007825032230
         H           -1.271463682556    -0.591627520956     1.230441589227     1.007825032230
         H           -3.175583682556    -1.397197520956    -0.187931410773     1.007825032230
         H           -1.688682682556    -1.179594520956    -1.128776410773     1.007825032230
         H           -2.995378682556     0.018086479044    -1.238339410773     1.007825032230
         H           -1.364293682556     2.157205479044    -0.089439410773     1.007825032230
         H            0.961041317444     1.940635479044    -0.544529410773     1.007825032230
         H            2.963322317444    -0.771088520956    -0.030188410773     1.007825032230

  Basis Set: AUG-CC-PVTZ
    Blend: AUG-CC-PVTZ
  Basis Set: (AUG-CC-PVTZ AUX)
    Blend: AUG-CC-PVTZ-JKFIT
	 Reference Energy          =    -343.8543703032271424 [Eh]
	 Singles Energy            =      -0.0000000000000000 [Eh]
	 Same-Spin Energy          =      -0.3404103408802057 [Eh]
	 Opposite-Spin Energy      =      -1.0993881921284840 [Eh]
	 Correlation Energy        =      -1.4397985330086898 [Eh]
	 Total Energy              =    -345.2941688362358263 [Eh]

	 ================> DF-SCS-MP2 Energies <==================
	-----------------------------------------------------------
	 SCS Same-Spin Scale       =       0.3333333333333333 [-]
	 SCS Opposite-Spin Scale   =       1.2000000000000000 [-]
	 SCS Same-Spin Energy      =      -0.1134701136267352 [Eh]
	 SCS Opposite-Spin Energy  =      -1.3192658305541809 [Eh]
	 SCS Correlation Energy    =      -1.4327359441809162 [Eh]
	 SCS Total Energy          =    -345.2871062474080759 [Eh]
	-----------------------------------------------------------

  Dipole Moment: [D]
     X:    -0.5038      Y:     0.8690      Z:    -0.0743     Total:     1.0072

*** Psi4 exiting successfully. Buy a developer a beer!
