                               Psi4 1.3.2 release

  ==> Input File <==

--------------------------------------------------------------------------
#psi4
#
memory 32 gb

molecule  {
0 1
  O        2.5331200    -0.0725200     0.2027050
  O        0.8230440     1.2494390    -0.4327460
  C       -1.8165730    -0.1662430    -0.5903910
  C       -2.5841030     0.6523970     0.4513900
  C       -0.9018550    -1.1471370     0.0763090
  C        0.4138040    -1.0149060     0.3209930
  C        1.2133192     0.1590347    -0.0231913
  H       -2.5251580    -0.7208810    -1.2155130
  H       -1.2597500     0.5079260    -1.2382380
  H       -3.2919980     1.3271690    -0.0377650
  H       -1.8881090     1.2530680     1.0427000
  H       -3.1450010     0.0036210     1.1307380
  H       -1.3667210    -2.0751620     0.4099140
  H        0.9531490    -1.8065430     0.8308200
  H        2.9979965     0.7581102    -0.0278292
units angstrom
no_reorient  #important for SAPT in psi4, default
symmetry c1  #important for SAPT in psi4, default
}

set PROPERTIES_ORIGIN ["COM"]
properties('MP2/aug-cc-pvtz', properties = ['dipole'])
--------------------------------------------------------------------------

    Molecular point group: c1
  Charge       = 0
  Multiplicity = 1
  Basis Set: AUG-CC-PVTZ
    Blend: AUG-CC-PVTZ
  Basis Set: (AUG-CC-PVTZ AUX)
    Blend: AUG-CC-PVTZ-JKFIT

    Orbital Energies [Eh]
    ---------------------

    Doubly Occupied:

       1A    -20.610870     2A    -20.542439     3A    -11.388520
       4A    -11.272732     5A    -11.243316     6A    -11.231996
       7A    -11.221510     8A     -1.455135     9A     -1.346333
      10A     -1.107068    11A     -1.021488    12A     -0.911057
      13A     -0.840862    14A     -0.753599    15A     -0.706650
      16A     -0.673009    17A     -0.647304    18A     -0.626206
      19A     -0.600366    20A     -0.583018    21A     -0.566165
      22A     -0.527981    23A     -0.503832    24A     -0.495444
      25A     -0.479126    26A     -0.443667    27A     -0.381785

  @DF-RHF Final Energy:  -343.85563769175945

   => Energetics <=

    Nuclear Repulsion Energy =            292.7653351700095641
    One-Electron Energy =               -1048.8789893803993891
    Two-Electron Energy =                 412.2580165186303134
    Total Energy =                       -343.8556376917594548
  Basis Set: (AUG-CC-PVTZ AUX)
    Blend: AUG-CC-PVTZ-RI
    Molecular point group: c1

    Geometry (in Angstrom), charge = 0, multiplicity = 1:

       Center              X                  Y                   Z               Mass
    ------------   -----------------  -----------------  -----------------  -----------------
         O            2.533354542343    -0.071159570082     0.202268637837    15.994914619570
         O            0.823278542343     1.250799429918    -0.433182362163    15.994914619570
         C           -1.816338457657    -0.164882570082    -0.590827362163    12.000000000000
         C           -2.583868457657     0.653757429918     0.450953637837    12.000000000000
         C           -0.901620457657    -1.145776570082     0.075872637837    12.000000000000
         C            0.414038542343    -1.013545570082     0.320556637837    12.000000000000
         C            1.213553742343     0.160395129918    -0.023627662163    12.000000000000
         H           -2.524923457657    -0.719520570082    -1.215949362163     1.007825032230
         H           -1.259515457657     0.509286429918    -1.238674362163     1.007825032230
         H           -3.291763457657     1.328529429918    -0.038201362163     1.007825032230
         H           -1.887874457657     1.254428429918     1.042263637837     1.007825032230
         H           -3.144766457657     0.004981429918     1.130301637837     1.007825032230
         H           -1.366486457657    -2.073801570082     0.409477637837     1.007825032230
         H            0.953383542343    -1.805182570082     0.830383637837     1.007825032230
         H            2.998231042343     0.759470629918    -0.028265562163     1.007825032230

  Basis Set: AUG-CC-PVTZ
    Blend: AUG-CC-PVTZ
  Basis Set: (AUG-CC-PVTZ AUX)
    Blend: AUG-CC-PVTZ-JKFIT
	 Reference Energy          =    -343.8556376917594548 [Eh]
	 Singles Energy            =      -0.0000000000000000 [Eh]
	 Same-Spin Energy          =      -0.3411765706380663 [Eh]
	 Opposite-Spin Energy      =      -1.1002890146376936 [Eh]
	 Correlation Energy        =      -1.4414655852757599 [Eh]
	 Total Energy              =    -345.2971032770352053 [Eh]

	 ================> DF-SCS-MP2 Energies <==================
	-----------------------------------------------------------
	 SCS Same-Spin Scale       =       0.3333333333333333 [-]
	 SCS Opposite-Spin Scale   =       1.2000000000000000 [-]
	 SCS Same-Spin Energy      =      -0.1137255235460221 [Eh]
	 SCS Opposite-Spin Energy  =      -1.3203468175652322 [Eh]
	 SCS Correlation Energy    =      -1.4340723411112544 [Eh]
	 SCS Total Energy          =    -345.2897100328706870 [Eh]
	-----------------------------------------------------------

  Dipole Moment: [D]
     X:    -0.4453      Y:    -1.1875      Z:     0.3551     Total:     1.3170

*** Psi4 exiting successfully. Buy a developer a beer!
