                               Psi4 1.3.2 release

  ==> Input File <==

--------------------------------------------------------------------------
#psi4
#
memory 32 gb

molecule  {
0 1
  O        2.5331200    -0.0725200     0.2027050
  O        0.8230440     1.2494390    -0.4327460
  C       -1.7759399    -0.1339283    -0.5965466
  C       -2.5841030     0.6523970     0.4513900
  C       -0.9018550    -1.1471370     0.0763090
  C        0.4138040    -1.0149060     0.3209930
  C        1.2159030     0.1700770    -0.0266570
  H       -2.5251580    -0.7208810    -1.2155130
  H       -1.2597500     0.5079260    -1.2382380
  H       -3.2919980     1.3271690    -0.0377650
  H       -1.8881090     1.2530680     1.0427000
  H       -3.1450010     0.0036210     1.1307380
  H       -1.3328563    -2.0866750     0.4229057
  H        0.9531490    -1.8065430     0.8308200
  H        2.9905100     0.7616870    -0.0298800
units angstrom
no_reorient  #important for SAPT in psi4, default
symmetry c1  #important for SAPT in psi4, default
}

set PROPERTIES_ORIGIN ["COM"]
properties('MP2/aug-cc-pvtz', properties = ['dipole'])
--------------------------------------------------------------------------

    Molecular point group: c1
  Charge       = 0
  Multiplicity = 1
  Basis Set: AUG-CC-PVTZ
    Blend: AUG-CC-PVTZ
  Basis Set: (AUG-CC-PVTZ AUX)
    Blend: AUG-CC-PVTZ-JKFIT

    Orbital Energies [Eh]
    ---------------------

    Doubly Occupied:

       1A    -20.611210     2A    -20.544540     3A    -11.388014
       4A    -11.270858     5A    -11.241913     6A    -11.232854
       7A    -11.221751     8A     -1.458053     9A     -1.352661
      10A     -1.106052    11A     -1.018526    12A     -0.908336
      13A     -0.841078    14A     -0.754083    15A     -0.707869
      16A     -0.673191    17A     -0.645866    18A     -0.627671
      19A     -0.603672    20A     -0.581456    21A     -0.565972
      22A     -0.527922    23A     -0.510426    24A     -0.488409
      25A     -0.482303    26A     -0.446325    27A     -0.379992

  @DF-RHF Final Energy:  -343.85319157488061

   => Energetics <=

    Nuclear Repulsion Energy =            293.1019309265225843
    One-Electron Energy =               -1049.5282382296197738
    Two-Electron Energy =                 412.5731157282166350
    Total Energy =                       -343.8531915748806114
  Basis Set: (AUG-CC-PVTZ AUX)
    Blend: AUG-CC-PVTZ-RI
    Molecular point group: c1

    Geometry (in Angstrom), charge = 0, multiplicity = 1:

       Center              X                  Y                   Z               Mass
    ------------   -----------------  -----------------  -----------------  -----------------
         O            2.527905525133    -0.076279742591     0.203312381478    15.994914619570
         O            0.817829525133     1.245679257409    -0.432138618522    15.994914619570
         C           -1.781154374867    -0.137688042591    -0.595939218522    12.000000000000
         C           -2.589317474867     0.648637257409     0.451997381478    12.000000000000
         C           -0.907069474867    -1.150896742591     0.076916381478    12.000000000000
         C            0.408589525133    -1.018665742591     0.321600381478    12.000000000000
         C            1.210688525133     0.166317257409    -0.026049618522    12.000000000000
         H           -2.530372474867    -0.724640742591    -1.214905618522     1.007825032230
         H           -1.264964474867     0.504166257409    -1.237630618522     1.007825032230
         H           -3.297212474867     1.323409257409    -0.037157618522     1.007825032230
         H           -1.893323474867     1.249308257409     1.043307381478     1.007825032230
         H           -3.150215474867    -0.000138742591     1.131345381478     1.007825032230
         H           -1.338070774867    -2.090434742591     0.423513081478     1.007825032230
         H            0.947934525133    -1.810302742591     0.831427381478     1.007825032230
         H            2.985295525133     0.757927257409    -0.029272618522     1.007825032230

  Basis Set: AUG-CC-PVTZ
    Blend: AUG-CC-PVTZ
  Basis Set: (AUG-CC-PVTZ AUX)
    Blend: AUG-CC-PVTZ-JKFIT
	 Reference Energy          =    -343.8531915748806114 [Eh]
	 Singles Energy            =      -0.0000000000000000 [Eh]
	 Same-Spin Energy          =      -0.3409707048559005 [Eh]
	 Opposite-Spin Energy      =      -1.0999593076322212 [Eh]
	 Correlation Energy        =      -1.4409300124881217 [Eh]
	 Total Energy              =    -345.2941215873687497 [Eh]

	 ================> DF-SCS-MP2 Energies <==================
	-----------------------------------------------------------
	 SCS Same-Spin Scale       =       0.3333333333333333 [-]
	 SCS Opposite-Spin Scale   =       1.2000000000000000 [-]
	 SCS Same-Spin Energy      =      -0.1136569016186335 [Eh]
	 SCS Opposite-Spin Energy  =      -1.3199511691586654 [Eh]
	 SCS Correlation Energy    =      -1.4336080707772989 [Eh]
	 SCS Total Energy          =    -345.2867996456579363 [Eh]
	-----------------------------------------------------------

  Dipole Moment: [D]
     X:    -0.4155      Y:    -1.1181      Z:     0.3488     Total:     1.2427

*** Psi4 exiting successfully. Buy a developer a beer!
