                               Psi4 1.3.2 release

  ==> Input File <==

--------------------------------------------------------------------------
#psi4
#
memory 32 gb

molecule  {
0 1
  O        2.5357321    -0.0615693     0.1989797
  O        0.8230440     1.2494390    -0.4327460
  C       -1.8165730    -0.1662430    -0.5903910
  C       -2.5841030     0.6523970     0.4513900
  C       -0.9018550    -1.1471370     0.0763090
  C        0.4031345    -1.0086226     0.3175561
  C        1.2159030     0.1700770    -0.0266570
  H       -2.5251580    -0.7208810    -1.2155130
  H       -1.2597500     0.5079260    -1.2382380
  H       -3.2919980     1.3271690    -0.0377650
  H       -1.8881090     1.2530680     1.0427000
  H       -3.1450010     0.0036210     1.1307380
  H       -1.3667210    -2.0751620     0.4099140
  H        0.9531490    -1.8065430     0.8308200
  H        2.9905100     0.7616870    -0.0298800
units angstrom
no_reorient  #important for SAPT in psi4, default
symmetry c1  #important for SAPT in psi4, default
}

set PROPERTIES_ORIGIN ["COM"]
properties('MP2/aug-cc-pvtz', properties = ['dipole'])
--------------------------------------------------------------------------

    Molecular point group: c1
  Charge       = 0
  Multiplicity = 1
  Basis Set: AUG-CC-PVTZ
    Blend: AUG-CC-PVTZ
  Basis Set: (AUG-CC-PVTZ AUX)
    Blend: AUG-CC-PVTZ-JKFIT

    Orbital Energies [Eh]
    ---------------------

    Doubly Occupied:

       1A    -20.610435     2A    -20.544140     3A    -11.388569
       4A    -11.269247     5A    -11.243582     6A    -11.231138
       7A    -11.220939     8A     -1.459582     9A     -1.352959
      10A     -1.107258    11A     -1.020004    12A     -0.909973
      13A     -0.841278    14A     -0.754403    15A     -0.707730
      16A     -0.672622    17A     -0.648892    18A     -0.628236
      19A     -0.601730    20A     -0.582659    21A     -0.566721
      22A     -0.527364    23A     -0.503533    24A     -0.495134
      25A     -0.481608    26A     -0.443699    27A     -0.383370

  @DF-RHF Final Energy:  -343.85753457471549

   => Energetics <=

    Nuclear Repulsion Energy =            292.9912471302329777
    One-Electron Energy =               -1049.3039512344332707
    Two-Electron Energy =                 412.4551695294848059
    Total Energy =                       -343.8575345747154870
  Basis Set: (AUG-CC-PVTZ AUX)
    Blend: AUG-CC-PVTZ-RI
    Molecular point group: c1

    Geometry (in Angstrom), charge = 0, multiplicity = 1:

       Center              X                  Y                   Z               Mass
    ------------   -----------------  -----------------  -----------------  -----------------
         O            2.536594244950    -0.064073530861     0.199987419742    15.994914619570
         O            0.823906144950     1.246934769139    -0.431738280258    15.994914619570
         C           -1.815710855050    -0.168747230861    -0.589383280258    12.000000000000
         C           -2.583240855050     0.649892769139     0.452397719742    12.000000000000
         C           -0.900992855050    -1.149641230861     0.077316719742    12.000000000000
         C            0.403996644950    -1.011126830861     0.318563819742    12.000000000000
         C            1.216765144950     0.167572769139    -0.025649280258    12.000000000000
         H           -2.524295855050    -0.723385230861    -1.214505280258     1.007825032230
         H           -1.258887855050     0.505421769139    -1.237230280258     1.007825032230
         H           -3.291135855050     1.324664769139    -0.036757280258     1.007825032230
         H           -1.887246855050     1.250563769139     1.043707719742     1.007825032230
         H           -3.144138855050     0.001116769139     1.131745719742     1.007825032230
         H           -1.365858855050    -2.077666230861     0.410921719742     1.007825032230
         H            0.954011144950    -1.809047230861     0.831827719742     1.007825032230
         H            2.991372144950     0.759182769139    -0.028872280258     1.007825032230

  Basis Set: AUG-CC-PVTZ
    Blend: AUG-CC-PVTZ
  Basis Set: (AUG-CC-PVTZ AUX)
    Blend: AUG-CC-PVTZ-JKFIT
	 Reference Energy          =    -343.8575345747154870 [Eh]
	 Singles Energy            =      -0.0000000000000000 [Eh]
	 Same-Spin Energy          =      -0.3406316812685352 [Eh]
	 Opposite-Spin Energy      =      -1.0992371697510923 [Eh]
	 Correlation Energy        =      -1.4398688510196274 [Eh]
	 Total Energy              =    -345.2974034257351263 [Eh]

	 ================> DF-SCS-MP2 Energies <==================
	-----------------------------------------------------------
	 SCS Same-Spin Scale       =       0.3333333333333333 [-]
	 SCS Opposite-Spin Scale   =       1.2000000000000000 [-]
	 SCS Same-Spin Energy      =      -0.1135438937561784 [Eh]
	 SCS Opposite-Spin Energy  =      -1.3190846037013106 [Eh]
	 SCS Correlation Energy    =      -1.4326284974574890 [Eh]
	 SCS Total Energy          =    -345.2901630721729589 [Eh]
	-----------------------------------------------------------

  Dipole Moment: [D]
     X:    -0.4290      Y:    -1.1349      Z:     0.3353     Total:     1.2587

*** Psi4 exiting successfully. Buy a developer a beer!
