                               Psi4 1.3.2 release

  ==> Input File <==

--------------------------------------------------------------------------
#psi4
#
memory 32 gb

molecule  {
0 1
  O        2.5276623    -0.0945803     0.2094892
  O        0.8031037     1.2420598    -0.4325121
  C       -1.8165730    -0.1662430    -0.5903910
  C       -2.5841030     0.6523970     0.4513900
  C       -0.9018550    -1.1471370     0.0763090
  C        0.4138040    -1.0149060     0.3209930
  C        1.2159030     0.1700770    -0.0266570
  H       -2.5251580    -0.7208810    -1.2155130
  H       -1.2597500     0.5079260    -1.2382380
  H       -3.2919980     1.3271690    -0.0377650
  H       -1.8881090     1.2530680     1.0427000
  H       -3.1450010     0.0036210     1.1307380
  H       -1.3667210    -2.0751620     0.4099140
  H        0.9531490    -1.8065430     0.8308200
  H        2.9905100     0.7616870    -0.0298800
units angstrom
no_reorient  #important for SAPT in psi4, default
symmetry c1  #important for SAPT in psi4, default
}

set PROPERTIES_ORIGIN ["COM"]
properties('MP2/aug-cc-pvtz', properties = ['dipole'])
--------------------------------------------------------------------------

    Molecular point group: c1
  Charge       = 0
  Multiplicity = 1
  Basis Set: AUG-CC-PVTZ
    Blend: AUG-CC-PVTZ
  Basis Set: (AUG-CC-PVTZ AUX)
    Blend: AUG-CC-PVTZ-JKFIT

    Orbital Energies [Eh]
    ---------------------

    Doubly Occupied:

       1A    -20.616126     2A    -20.546031     3A    -11.388468
       4A    -11.269258     5A    -11.241204     6A    -11.230499
       7A    -11.220447     8A     -1.456154     9A     -1.354304
      10A     -1.104038    11A     -1.018411    12A     -0.906861
      13A     -0.837916    14A     -0.749499    15A     -0.708004
      16A     -0.673354    17A     -0.646381    18A     -0.628669
      19A     -0.600105    20A     -0.582742    21A     -0.565625
      22A     -0.526871    23A     -0.503778    24A     -0.495312
      25A     -0.482783    26A     -0.443908    27A     -0.379697

  @DF-RHF Final Energy:  -343.85388360972399

   => Energetics <=

    Nuclear Repulsion Energy =            292.9186457753495461
    One-Electron Energy =               -1049.1921697340123956
    Two-Electron Energy =                 412.4196403489388558
    Total Energy =                       -343.8538836097239937
  Basis Set: (AUG-CC-PVTZ AUX)
    Blend: AUG-CC-PVTZ-RI
    Molecular point group: c1

    Geometry (in Angstrom), charge = 0, multiplicity = 1:

       Center              X                  Y                   Z               Mass
    ------------   -----------------  -----------------  -----------------  -----------------
         O            2.531722619743    -0.089873925340     0.208367210681    15.994914619570
         O            0.807164019743     1.246766174660    -0.433634089319    15.994914619570
         C           -1.812512680257    -0.161536625340    -0.591512989319    12.000000000000
         C           -2.580042680257     0.657103374660     0.450268010681    12.000000000000
         C           -0.897794680257    -1.142430625340     0.075187010681    12.000000000000
         C            0.417864319743    -1.010199625340     0.319871010681    12.000000000000
         C            1.219963319743     0.174783374660    -0.027778989319    12.000000000000
         H           -2.521097680257    -0.716174625340    -1.216634989319     1.007825032230
         H           -1.255689680257     0.512632374660    -1.239359989319     1.007825032230
         H           -3.287937680257     1.331875374660    -0.038886989319     1.007825032230
         H           -1.884048680257     1.257774374660     1.041578010681     1.007825032230
         H           -3.140940680257     0.008327374660     1.129616010681     1.007825032230
         H           -1.362660680257    -2.070455625340     0.408792010681     1.007825032230
         H            0.957209319743    -1.801836625340     0.829698010681     1.007825032230
         H            2.994570319743     0.766393374660    -0.031001989319     1.007825032230

  Basis Set: AUG-CC-PVTZ
    Blend: AUG-CC-PVTZ
  Basis Set: (AUG-CC-PVTZ AUX)
    Blend: AUG-CC-PVTZ-JKFIT
	 Reference Energy          =    -343.8538836097239937 [Eh]
	 Singles Energy            =      -0.0000000000000000 [Eh]
	 Same-Spin Energy          =      -0.3414738596817835 [Eh]
	 Opposite-Spin Energy      =      -1.1010376998915792 [Eh]
	 Correlation Energy        =      -1.4425115595733626 [Eh]
	 Total Energy              =    -345.2963951692973410 [Eh]

	 ================> DF-SCS-MP2 Energies <==================
	-----------------------------------------------------------
	 SCS Same-Spin Scale       =       0.3333333333333333 [-]
	 SCS Opposite-Spin Scale   =       1.2000000000000000 [-]
	 SCS Same-Spin Energy      =      -0.1138246198939278 [Eh]
	 SCS Opposite-Spin Energy  =      -1.3212452398698951 [Eh]
	 SCS Correlation Energy    =      -1.4350698597638230 [Eh]
	 SCS Total Energy          =    -345.2889534694878080 [Eh]
	-----------------------------------------------------------

  Dipole Moment: [D]
     X:    -0.3186      Y:    -1.0578      Z:     0.3233     Total:     1.1510

*** Psi4 exiting successfully. Buy a developer a beer!
