                               Psi4 1.3.2 release

  ==> Input File <==

--------------------------------------------------------------------------
#psi4
#
memory 32 gb

molecule  {
0 1
  O        2.5331200    -0.0725200     0.2027050
  O        0.8230440     1.2494390    -0.4327460
  C       -1.8165730    -0.1662430    -0.5903910
  C       -2.5841030     0.6523970     0.4513900
  C       -0.9018550    -1.1471370     0.0763090
  C        0.4138040    -1.0149060     0.3209930
  C        1.2061716     0.1258054    -0.0126919
  H       -2.5251580    -0.7208810    -1.2155130
  H       -1.2597500     0.5079260    -1.2382380
  H       -3.2919980     1.3271690    -0.0377650
  H       -1.8881090     1.2530680     1.0427000
  H       -3.1450010     0.0036210     1.1307380
  H       -1.3667210    -2.0751620     0.4099140
  H        0.9531490    -1.8065430     0.8308200
  H        3.0202413     0.7470014    -0.0215721
units angstrom
no_reorient  #important for SAPT in psi4, default
symmetry c1  #important for SAPT in psi4, default
}

set PROPERTIES_ORIGIN ["COM"]
properties('MP2/aug-cc-pvtz', properties = ['dipole'])
--------------------------------------------------------------------------

    Molecular point group: c1
  Charge       = 0
  Multiplicity = 1
  Basis Set: AUG-CC-PVTZ
    Blend: AUG-CC-PVTZ
  Basis Set: (AUG-CC-PVTZ AUX)
    Blend: AUG-CC-PVTZ-JKFIT

    Orbital Energies [Eh]
    ---------------------

    Doubly Occupied:

       1A    -20.609604     2A    -20.535999     3A    -11.389309
       4A    -11.278387     5A    -11.243268     6A    -11.233351
       7A    -11.222578     8A     -1.447441     9A     -1.326981
      10A     -1.111882    11A     -1.026800    12A     -0.917365
      13A     -0.843337    14A     -0.757804    15A     -0.703650
      16A     -0.669860    17A     -0.649138    18A     -0.621732
      19A     -0.597760    20A     -0.581211    21A     -0.564862
      22A     -0.528906    23A     -0.503514    24A     -0.495686
      25A     -0.470908    26A     -0.440637    27A     -0.383503

  @DF-RHF Final Energy:  -343.84943420842978

   => Energetics <=

    Nuclear Repulsion Energy =            292.6255382877149032
    One-Electron Energy =               -1048.6389982853117999
    Two-Electron Energy =                 412.1640257891671126
    Total Energy =                       -343.8494342084297841
  Basis Set: (AUG-CC-PVTZ AUX)
    Blend: AUG-CC-PVTZ-RI
    Molecular point group: c1

    Geometry (in Angstrom), charge = 0, multiplicity = 1:

       Center              X                  Y                   Z               Mass
    ------------   -----------------  -----------------  -----------------  -----------------
         O            2.533987733701    -0.067062245022     0.200946342490    15.994914619570
         O            0.823911733701     1.254896754978    -0.434504657510    15.994914619570
         C           -1.815705266299    -0.160785245022    -0.592149657510    12.000000000000
         C           -2.583235266299     0.657854754978     0.449631342490    12.000000000000
         C           -0.900987266299    -1.141679245022     0.074550342490    12.000000000000
         C            0.414671733701    -1.009448245022     0.319234342490    12.000000000000
         C            1.207039333701     0.131263154978    -0.014450557510    12.000000000000
         H           -2.524290266299    -0.715423245022    -1.217271657510     1.007825032230
         H           -1.258882266299     0.513383754978    -1.239996657510     1.007825032230
         H           -3.291130266299     1.332626754978    -0.039523657510     1.007825032230
         H           -1.887241266299     1.258525754978     1.040941342490     1.007825032230
         H           -3.144133266299     0.009078754978     1.128979342490     1.007825032230
         H           -1.365853266299    -2.069704245022     0.408155342490     1.007825032230
         H            0.954016733701    -1.801085245022     0.829061342490     1.007825032230
         H            3.021109033701     0.752459154978    -0.023330757510     1.007825032230

  Basis Set: AUG-CC-PVTZ
    Blend: AUG-CC-PVTZ
  Basis Set: (AUG-CC-PVTZ AUX)
    Blend: AUG-CC-PVTZ-JKFIT
	 Reference Energy          =    -343.8494342084297841 [Eh]
	 Singles Energy            =      -0.0000000000000000 [Eh]
	 Same-Spin Energy          =      -0.3420002146223050 [Eh]
	 Opposite-Spin Energy      =      -1.1016631983928034 [Eh]
	 Correlation Energy        =      -1.4436634130151083 [Eh]
	 Total Energy              =    -345.2930976214448719 [Eh]

	 ================> DF-SCS-MP2 Energies <==================
	-----------------------------------------------------------
	 SCS Same-Spin Scale       =       0.3333333333333333 [-]
	 SCS Opposite-Spin Scale   =       1.2000000000000000 [-]
	 SCS Same-Spin Energy      =      -0.1140000715407683 [Eh]
	 SCS Opposite-Spin Energy  =      -1.3219958380713639 [Eh]
	 SCS Correlation Energy    =      -1.4359959096121322 [Eh]
	 SCS Total Energy          =    -345.2854301180419156 [Eh]
	-----------------------------------------------------------

  Dipole Moment: [D]
     X:    -0.5035      Y:    -1.3786      Z:     0.4164     Total:     1.5256

*** Psi4 exiting successfully. Buy a developer a beer!
