                               Psi4 1.3.2 release

  ==> Input File <==

--------------------------------------------------------------------------
#psi4
#
memory 32 gb

molecule  {
0 1
  O        2.5331200    -0.0725200     0.2027050
  O        0.8230440     1.2494390    -0.4327460
  C       -1.8165730    -0.1662430    -0.5903910
  C       -2.5841030     0.6523970     0.4513900
  C       -0.9018550    -1.1471370     0.0763090
  C        0.4138040    -1.0149060     0.3209930
  C        1.1069630     0.0091342     0.0205604
  H       -2.5251580    -0.7208810    -1.2155130
  H       -1.2597500     0.5079260    -1.2382380
  H       -3.2919980     1.3271690    -0.0377650
  H       -1.8881090     1.2530680     1.0427000
  H       -3.1450010     0.0036210     1.1307380
  H       -1.3667210    -2.0751620     0.4099140
  H        0.9531490    -1.8065430     0.8308200
  H        2.9905100     0.7616870    -0.0298800
units angstrom
no_reorient  #important for SAPT in psi4, default
symmetry c1  #important for SAPT in psi4, default
}

set PROPERTIES_ORIGIN ["COM"]
properties('MP2/aug-cc-pvtz', properties = ['dipole'])
--------------------------------------------------------------------------

    Molecular point group: c1
  Charge       = 0
  Multiplicity = 1
  Basis Set: AUG-CC-PVTZ
    Blend: AUG-CC-PVTZ
  Basis Set: (AUG-CC-PVTZ AUX)
    Blend: AUG-CC-PVTZ-JKFIT

    Orbital Energies [Eh]
    ---------------------

    Doubly Occupied:

       1A    -20.583079     2A    -20.519143     3A    -11.384988
       4A    -11.310822     5A    -11.245878     6A    -11.239636
       7A    -11.232866     8A     -1.392813     9A     -1.266077
      10A     -1.146041    11A     -1.056373    12A     -0.942208
      13A     -0.852651    14A     -0.750201    15A     -0.709806
      16A     -0.659256    17A     -0.645836    18A     -0.608538
      19A     -0.587891    20A     -0.584652    21A     -0.548573
      22A     -0.535620    23A     -0.510800    24A     -0.504181
      25A     -0.454917    26A     -0.420347    27A     -0.388203

  @DF-RHF Final Energy:  -343.77948531551044

   => Energetics <=

    Nuclear Repulsion Energy =            292.8202207953825109
    One-Electron Energy =               -1049.0366208949317297
    Two-Electron Energy =                 412.4369147840387768
    Total Energy =                       -343.7794853155104420
  Basis Set: (AUG-CC-PVTZ AUX)
    Blend: AUG-CC-PVTZ-RI
    Molecular point group: c1

    Geometry (in Angstrom), charge = 0, multiplicity = 1:

       Center              X                  Y                   Z               Mass
    ------------   -----------------  -----------------  -----------------  -----------------
         O            2.546186009690    -0.053216965185     0.197041842695    15.994914619570
         O            0.836110009690     1.268742034815    -0.438409157305    15.994914619570
         C           -1.803506990310    -0.146939965185    -0.596054157305    12.000000000000
         C           -2.571036990310     0.671700034815     0.445726842695    12.000000000000
         C           -0.888788990310    -1.127833965185     0.070645842695    12.000000000000
         C            0.426870009690    -0.995602965185     0.315329842695    12.000000000000
         C            1.120029009690     0.028437234815     0.014897242695    12.000000000000
         H           -2.512091990310    -0.701577965185    -1.221176157305     1.007825032230
         H           -1.246683990310     0.527229034815    -1.243901157305     1.007825032230
         H           -3.278931990310     1.346472034815    -0.043428157305     1.007825032230
         H           -1.875042990310     1.272371034815     1.037036842695     1.007825032230
         H           -3.131934990310     0.022924034815     1.125074842695     1.007825032230
         H           -1.353654990310    -2.055858965185     0.404250842695     1.007825032230
         H            0.966215009690    -1.787239965185     0.825156842695     1.007825032230
         H            3.003576009690     0.780990034815    -0.035543157305     1.007825032230

  Basis Set: AUG-CC-PVTZ
    Blend: AUG-CC-PVTZ
  Basis Set: (AUG-CC-PVTZ AUX)
    Blend: AUG-CC-PVTZ-JKFIT
	 Reference Energy          =    -343.7794853155104420 [Eh]
	 Singles Energy            =      -0.0000000000000000 [Eh]
	 Same-Spin Energy          =      -0.3465632654589439 [Eh]
	 Opposite-Spin Energy      =      -1.1096840734626032 [Eh]
	 Correlation Energy        =      -1.4562473389215471 [Eh]
	 Total Energy              =    -345.2357326544320131 [Eh]

	 ================> DF-SCS-MP2 Energies <==================
	-----------------------------------------------------------
	 SCS Same-Spin Scale       =       0.3333333333333333 [-]
	 SCS Opposite-Spin Scale   =       1.2000000000000000 [-]
	 SCS Same-Spin Energy      =      -0.1155210884863146 [Eh]
	 SCS Opposite-Spin Energy  =      -1.3316208881551239 [Eh]
	 SCS Correlation Energy    =      -1.4471419766414386 [Eh]
	 SCS Total Energy          =    -345.2266272921518748 [Eh]
	-----------------------------------------------------------

  Dipole Moment: [D]
     X:    -1.7110      Y:    -1.9851      Z:     0.5243     Total:     2.6727

*** Psi4 exiting successfully. Buy a developer a beer!
