                               Psi4 1.3.2 release

  ==> Input File <==

--------------------------------------------------------------------------
#psi4
#
memory 32 gb

molecule  {
0 1
  O        2.5472814    -0.0065677     0.1801012
  O        0.8230440     1.2494390    -0.4327460
  C       -1.8165730    -0.1662430    -0.5903910
  C       -2.5841030     0.6523970     0.4513900
  C       -0.9018550    -1.1471370     0.0763090
  C        0.3507313    -0.9758688     0.2999837
  C        1.2159030     0.1700770    -0.0266570
  H       -2.5251580    -0.7208810    -1.2155130
  H       -1.2597500     0.5079260    -1.2382380
  H       -3.2919980     1.3271690    -0.0377650
  H       -1.8881090     1.2530680     1.0427000
  H       -3.1450010     0.0036210     1.1307380
  H       -1.3667210    -2.0751620     0.4099140
  H        0.9531490    -1.8065430     0.8308200
  H        2.9905100     0.7616870    -0.0298800
units angstrom
no_reorient  #important for SAPT in psi4, default
symmetry c1  #important for SAPT in psi4, default
}

set PROPERTIES_ORIGIN ["COM"]
properties('MP2/aug-cc-pvtz', properties = ['dipole'])
--------------------------------------------------------------------------

    Molecular point group: c1
  Charge       = 0
  Multiplicity = 1
  Basis Set: AUG-CC-PVTZ
    Blend: AUG-CC-PVTZ
  Basis Set: (AUG-CC-PVTZ AUX)
    Blend: AUG-CC-PVTZ-JKFIT

    Orbital Energies [Eh]
    ---------------------

    Doubly Occupied:

       1A    -20.605721     2A    -20.542431     3A    -11.391013
       4A    -11.261126     5A    -11.245667     6A    -11.229206
       7A    -11.219944     8A     -1.468206     9A     -1.355565
      10A     -1.116854    11A     -1.020979    12A     -0.916803
      13A     -0.847206    14A     -0.766905    15A     -0.706479
      16A     -0.667051    17A     -0.658248    18A     -0.630122
      19A     -0.603192    20A     -0.581995    21A     -0.564288
      22A     -0.525838    23A     -0.501355    24A     -0.492505
      25A     -0.480953    26A     -0.440025    27A     -0.394892

  @DF-RHF Final Energy:  -343.84864869950201

   => Energetics <=

    Nuclear Repulsion Energy =            293.9447590261964365
    One-Electron Energy =               -1051.1176816833169596
    Two-Electron Energy =                 413.3242739576185727
    Total Energy =                       -343.8486486995020073
  Basis Set: (AUG-CC-PVTZ AUX)
    Blend: AUG-CC-PVTZ-RI
    Molecular point group: c1

    Geometry (in Angstrom), charge = 0, multiplicity = 1:

       Center              X                  Y                   Z               Mass
    ------------   -----------------  -----------------  -----------------  -----------------
         O            2.552582301059    -0.021793176135     0.186234520372    15.994914619570
         O            0.828344901059     1.234213523865    -0.426612679628    15.994914619570
         C           -1.811272098941    -0.181468476135    -0.584257679628    12.000000000000
         C           -2.578802098941     0.637171523865     0.457523320372    12.000000000000
         C           -0.896554098941    -1.162362476135     0.082442320372    12.000000000000
         C            0.356032201059    -0.991094276135     0.306117020372    12.000000000000
         C            1.221203901059     0.154851523865    -0.020523679628    12.000000000000
         H           -2.519857098941    -0.736106476135    -1.209379679628     1.007825032230
         H           -1.254449098941     0.492700523865    -1.232104679628     1.007825032230
         H           -3.286697098941     1.311943523865    -0.031631679628     1.007825032230
         H           -1.882808098941     1.237842523865     1.048833320372     1.007825032230
         H           -3.139700098941    -0.011604476135     1.136871320372     1.007825032230
         H           -1.361420098941    -2.090387476135     0.416047320372     1.007825032230
         H            0.958449901059    -1.821768476135     0.836953320372     1.007825032230
         H            2.995810901059     0.746461523865    -0.023746679628     1.007825032230

  Basis Set: AUG-CC-PVTZ
    Blend: AUG-CC-PVTZ
  Basis Set: (AUG-CC-PVTZ AUX)
    Blend: AUG-CC-PVTZ-JKFIT
	 Reference Energy          =    -343.8486486995020073 [Eh]
	 Singles Energy            =      -0.0000000000000000 [Eh]
	 Same-Spin Energy          =      -0.3394130561342102 [Eh]
	 Opposite-Spin Energy      =      -1.0966809192170526 [Eh]
	 Correlation Energy        =      -1.4360939753512629 [Eh]
	 Total Energy              =    -345.2847426748532484 [Eh]

	 ================> DF-SCS-MP2 Energies <==================
	-----------------------------------------------------------
	 SCS Same-Spin Scale       =       0.3333333333333333 [-]
	 SCS Opposite-Spin Scale   =       1.2000000000000000 [-]
	 SCS Same-Spin Energy      =      -0.1131376853780701 [Eh]
	 SCS Opposite-Spin Energy  =      -1.3160171030604630 [Eh]
	 SCS Correlation Energy    =      -1.4291547884385332 [Eh]
	 SCS Total Energy          =    -345.2778034879405595 [Eh]
	-----------------------------------------------------------

  Dipole Moment: [D]
     X:    -0.4531      Y:    -1.1901      Z:     0.3354     Total:     1.3169

*** Psi4 exiting successfully. Buy a developer a beer!
