                               Psi4 1.3.2 release

  ==> Input File <==

--------------------------------------------------------------------------
#psi4
#
memory 32 gb

molecule  {
0 1
  O        2.5331200    -0.0725200     0.2027050
  O        0.8230440     1.2494390    -0.4327460
  C       -1.8165730    -0.1662430    -0.5903910
  C       -2.6084026     0.6785155     0.4115922
  C       -0.8864633    -1.1634810     0.0290952
  C        0.4138040    -1.0149060     0.3209930
  C        1.2159030     0.1700770    -0.0266570
  H       -2.5251580    -0.7208810    -1.2155130
  H       -1.2597500     0.5079260    -1.2382380
  H       -3.2919980     1.3271690    -0.0377650
  H       -1.8881090     1.2530680     1.0427000
  H       -3.1450010     0.0036210     1.1307380
  H       -1.3667210    -2.0751620     0.4099140
  H        0.9531490    -1.8065430     0.8308200
  H        2.9905100     0.7616870    -0.0298800
units angstrom
no_reorient  #important for SAPT in psi4, default
symmetry c1  #important for SAPT in psi4, default
}

set PROPERTIES_ORIGIN ["COM"]
properties('MP2/aug-cc-pvtz', properties = ['dipole'])
--------------------------------------------------------------------------

    Molecular point group: c1
  Charge       = 0
  Multiplicity = 1
  Basis Set: AUG-CC-PVTZ
    Blend: AUG-CC-PVTZ
  Basis Set: (AUG-CC-PVTZ AUX)
    Blend: AUG-CC-PVTZ-JKFIT

    Orbital Energies [Eh]
    ---------------------

    Doubly Occupied:

       1A    -20.611854     2A    -20.545269     3A    -11.388769
       4A    -11.271323     5A    -11.244417     6A    -11.231118
       7A    -11.222045     8A     -1.458669     9A     -1.353146
      10A     -1.105407    11A     -1.020306    12A     -0.910564
      13A     -0.840745    14A     -0.751046    15A     -0.708464
      16A     -0.673802    17A     -0.646355    18A     -0.628248
      19A     -0.604205    20A     -0.585085    21A     -0.564928
      22A     -0.528288    23A     -0.506313    24A     -0.489818
      25A     -0.480197    26A     -0.443781    27A     -0.383055

  @DF-RHF Final Energy:  -343.85238623587401

   => Energetics <=

    Nuclear Repulsion Energy =            292.5619071007591856
    One-Electron Energy =               -1048.4341473152026083
    Two-Electron Energy =                 412.0198539785694152
    Total Energy =                       -343.8523862358740075
  Basis Set: (AUG-CC-PVTZ AUX)
    Blend: AUG-CC-PVTZ-RI
    Molecular point group: c1

    Geometry (in Angstrom), charge = 0, multiplicity = 1:

       Center              X                  Y                   Z               Mass
    ------------   -----------------  -----------------  -----------------  -----------------
         O            2.534188447951    -0.073692306067     0.213140882050    15.994914619570
         O            0.824112447951     1.248266693933    -0.422310117950    15.994914619570
         C           -1.815504552049    -0.167415306067    -0.579955117950    12.000000000000
         C           -2.607334152049     0.677343193933     0.422028082050    12.000000000000
         C           -0.885394852049    -1.164653306067     0.039531082050    12.000000000000
         C            0.414872447951    -1.016078306067     0.331428882050    12.000000000000
         C            1.216971447951     0.168904693933    -0.016221117950    12.000000000000
         H           -2.524089552049    -0.722053306067    -1.205077117950     1.007825032230
         H           -1.258681552049     0.506753693933    -1.227802117950     1.007825032230
         H           -3.290929552049     1.325996693933    -0.027329117950     1.007825032230
         H           -1.887040552049     1.251895693933     1.053135882050     1.007825032230
         H           -3.143932552049     0.002448693933     1.141173882050     1.007825032230
         H           -1.365652552049    -2.076334306067     0.420349882050     1.007825032230
         H            0.954217447951    -1.807715306067     0.841255882050     1.007825032230
         H            2.991578447951     0.760514693933    -0.019444117950     1.007825032230

  Basis Set: AUG-CC-PVTZ
    Blend: AUG-CC-PVTZ
  Basis Set: (AUG-CC-PVTZ AUX)
    Blend: AUG-CC-PVTZ-JKFIT
	 Reference Energy          =    -343.8523862358740075 [Eh]
	 Singles Energy            =      -0.0000000000000000 [Eh]
	 Same-Spin Energy          =      -0.3409352585460640 [Eh]
	 Opposite-Spin Energy      =      -1.1000850210609028 [Eh]
	 Correlation Energy        =      -1.4410202796069669 [Eh]
	 Total Energy              =    -345.2934065154809673 [Eh]

	 ================> DF-SCS-MP2 Energies <==================
	-----------------------------------------------------------
	 SCS Same-Spin Scale       =       0.3333333333333333 [-]
	 SCS Opposite-Spin Scale   =       1.2000000000000000 [-]
	 SCS Same-Spin Energy      =      -0.1136450861820213 [Eh]
	 SCS Opposite-Spin Energy  =      -1.3201020252730833 [Eh]
	 SCS Correlation Energy    =      -1.4337471114551046 [Eh]
	 SCS Total Energy          =    -345.2861333473290983 [Eh]
	-----------------------------------------------------------

  Dipole Moment: [D]
     X:    -0.3833      Y:    -1.0809      Z:     0.3584     Total:     1.2015

*** Psi4 exiting successfully. Buy a developer a beer!
