                               Psi4 1.3.2 release

  ==> Input File <==

--------------------------------------------------------------------------
#psi4
#
memory 32 gb

molecule  {
0 1
  O        2.5331200    -0.0725200     0.2027050
  O        0.8230440     1.2494390    -0.4327460
  C       -1.8165730    -0.1662430    -0.5903910
  C       -2.5841030     0.6523970     0.4513900
  C       -0.9018550    -1.1471370     0.0763090
  C        0.4138040    -1.0149060     0.3209930
  C        1.2159030     0.1700770    -0.0266570
  H       -2.5251580    -0.7208810    -1.2155130
  H       -1.2597500     0.5079260    -1.2382380
  H       -3.2919980     1.3271690    -0.0377650
  H       -1.8881090     1.2530680     1.0427000
  H       -3.1450010     0.0036210     1.1307380
  H       -1.3667210    -2.0751620     0.4099140
  H        0.9531490    -1.8065430     0.8308200
  H        3.0372116     0.8468633    -0.0536280
units angstrom
no_reorient  #important for SAPT in psi4, default
symmetry c1  #important for SAPT in psi4, default
}

set PROPERTIES_ORIGIN ["COM"]
properties('MP2/aug-cc-pvtz', properties = ['dipole'])
--------------------------------------------------------------------------

    Molecular point group: c1
  Charge       = 0
  Multiplicity = 1
  Basis Set: AUG-CC-PVTZ
    Blend: AUG-CC-PVTZ
  Basis Set: (AUG-CC-PVTZ AUX)
    Blend: AUG-CC-PVTZ-JKFIT

    Orbital Energies [Eh]
    ---------------------

    Doubly Occupied:

       1A    -20.616632     2A    -20.542804     3A    -11.386461
       4A    -11.270258     5A    -11.242911     6A    -11.231022
       7A    -11.220723     8A     -1.446143     9A     -1.343538
      10A     -1.104568    11A     -1.017954    12A     -0.902816
      13A     -0.834473    14A     -0.745261    15A     -0.699816
      16A     -0.669904    17A     -0.644911    18A     -0.624802
      19A     -0.595751    20A     -0.582609    21A     -0.561844
      22A     -0.527013    23A     -0.503178    24A     -0.494639
      25A     -0.479124    26A     -0.442744    27A     -0.380443

  @DF-RHF Final Energy:  -343.84345830720440

   => Energetics <=

    Nuclear Repulsion Energy =            292.2681913205749993
    One-Electron Energy =               -1047.9986190871888994
    Two-Electron Energy =                 411.8869694594095563
    Total Energy =                       -343.8434583072044006
  Basis Set: (AUG-CC-PVTZ AUX)
    Blend: AUG-CC-PVTZ-RI
    Molecular point group: c1

    Geometry (in Angstrom), charge = 0, multiplicity = 1:

       Center              X                  Y                   Z               Mass
    ------------   -----------------  -----------------  -----------------  -----------------
         O            2.532649636327    -0.073377958951     0.202944174421    15.994914619570
         O            0.822573636327     1.248581041049    -0.432506825579    15.994914619570
         C           -1.817043363673    -0.167100958951    -0.590151825579    12.000000000000
         C           -2.584573363673     0.651539041049     0.451629174421    12.000000000000
         C           -0.902325363673    -1.147994958951     0.076548174421    12.000000000000
         C            0.413333636327    -1.015763958951     0.321232174421    12.000000000000
         C            1.215432636327     0.169219041049    -0.026417825579    12.000000000000
         H           -2.525628363673    -0.721738958951    -1.215273825579     1.007825032230
         H           -1.260220363673     0.507068041049    -1.237998825579     1.007825032230
         H           -3.292468363673     1.326311041049    -0.037525825579     1.007825032230
         H           -1.888579363673     1.252210041049     1.042939174421     1.007825032230
         H           -3.145471363673     0.002763041049     1.130977174421     1.007825032230
         H           -1.367191363673    -2.076019958951     0.410153174421     1.007825032230
         H            0.952678636327    -1.807400958951     0.831059174421     1.007825032230
         H            3.036741236327     0.846005341049    -0.053388825579     1.007825032230

  Basis Set: AUG-CC-PVTZ
    Blend: AUG-CC-PVTZ
  Basis Set: (AUG-CC-PVTZ AUX)
    Blend: AUG-CC-PVTZ-JKFIT
	 Reference Energy          =    -343.8434583072044006 [Eh]
	 Singles Energy            =      -0.0000000000000000 [Eh]
	 Same-Spin Energy          =      -0.3422158594640304 [Eh]
	 Opposite-Spin Energy      =      -1.1030594691964972 [Eh]
	 Correlation Energy        =      -1.4452753286605278 [Eh]
	 Total Energy              =    -345.2887336358649009 [Eh]

	 ================> DF-SCS-MP2 Energies <==================
	-----------------------------------------------------------
	 SCS Same-Spin Scale       =       0.3333333333333333 [-]
	 SCS Opposite-Spin Scale   =       1.2000000000000000 [-]
	 SCS Same-Spin Energy      =      -0.1140719531546768 [Eh]
	 SCS Opposite-Spin Energy  =      -1.3236713630357966 [Eh]
	 SCS Correlation Energy    =      -1.4377433161904734 [Eh]
	 SCS Total Energy          =    -345.2812016233948498 [Eh]
	-----------------------------------------------------------

  Dipole Moment: [D]
     X:    -0.3330      Y:    -1.0334      Z:     0.3137     Total:     1.1301

*** Psi4 exiting successfully. Buy a developer a beer!
