                               Psi4 1.3.2 release

  ==> Input File <==

--------------------------------------------------------------------------
#psi4
#
memory 32 gb

molecule  {
0 1
  O        2.5331200    -0.0725200     0.2027050
  O        0.8230440     1.2494390    -0.4327460
  C       -1.8165730    -0.1662430    -0.5903910
  C       -2.5841030     0.6523970     0.4513900
  C       -0.9018550    -1.1471370     0.0763090
  C        0.4138040    -1.0149060     0.3209930
  C        1.2159030     0.1700770    -0.0266570
  H       -2.5251580    -0.7208810    -1.2155130
  H       -1.2597500     0.5079260    -1.2382380
  H       -3.2919980     1.3271690    -0.0377650
  H       -1.8881090     1.2530680     1.0427000
  H       -3.1450010     0.0036210     1.1307380
  H       -1.4519987    -2.2454043     0.4711125
  H        0.9531490    -1.8065430     0.8308200
  H        2.9905100     0.7616870    -0.0298800
units angstrom
no_reorient  #important for SAPT in psi4, default
symmetry c1  #important for SAPT in psi4, default
}

set PROPERTIES_ORIGIN ["COM"]
properties('MP2/aug-cc-pvtz', properties = ['dipole'])
--------------------------------------------------------------------------

    Molecular point group: c1
  Charge       = 0
  Multiplicity = 1
  Basis Set: AUG-CC-PVTZ
    Blend: AUG-CC-PVTZ
  Basis Set: (AUG-CC-PVTZ AUX)
    Blend: AUG-CC-PVTZ-JKFIT

    Orbital Energies [Eh]
    ---------------------

    Doubly Occupied:

       1A    -20.612532     2A    -20.545759     3A    -11.390155
       4A    -11.292521     5A    -11.245207     6A    -11.234243
       7A    -11.221630     8A     -1.459328     9A     -1.353837
      10A     -1.102834    11A     -1.021054    12A     -0.903783
      13A     -0.839810    14A     -0.738588    15A     -0.707254
      16A     -0.674940    17A     -0.641375    18A     -0.628500
      19A     -0.600963    20A     -0.583665    21A     -0.549684
      22A     -0.527221    23A     -0.500487    24A     -0.495806
      25A     -0.482934    26A     -0.441500    27A     -0.382710

  @DF-RHF Final Energy:  -343.83527959640190

   => Energetics <=

    Nuclear Repulsion Energy =            291.9379802021210821
    One-Electron Energy =               -1047.1898804742106677
    Two-Electron Energy =                 411.4166206756877386
    Total Energy =                       -343.8352795964019037
  Basis Set: (AUG-CC-PVTZ AUX)
    Blend: AUG-CC-PVTZ-RI
    Molecular point group: c1

    Geometry (in Angstrom), charge = 0, multiplicity = 1:

       Center              X                  Y                   Z               Mass
    ------------   -----------------  -----------------  -----------------  -----------------
         O            2.533979059740    -0.070805135281     0.202088510950    15.994914619570
         O            0.823903059740     1.251153864719    -0.433362489050    15.994914619570
         C           -1.815713940260    -0.164528135281    -0.591007489050    12.000000000000
         C           -2.583243940260     0.654111864719     0.450773510950    12.000000000000
         C           -0.900995940260    -1.145422135281     0.075692510950    12.000000000000
         C            0.414663059740    -1.013191135281     0.320376510950    12.000000000000
         C            1.216762059740     0.171791864719    -0.027273489050    12.000000000000
         H           -2.524298940260    -0.719166135281    -1.216129489050     1.007825032230
         H           -1.258890940260     0.509640864719    -1.238854489050     1.007825032230
         H           -3.291138940260     1.328883864719    -0.038381489050     1.007825032230
         H           -1.887249940260     1.254782864719     1.042083510950     1.007825032230
         H           -3.144141940260     0.005335864719     1.130121510950     1.007825032230
         H           -1.451139640260    -2.243689435281     0.470496010950     1.007825032230
         H            0.954008059740    -1.804828135281     0.830203510950     1.007825032230
         H            2.991369059740     0.763401864719    -0.030496489050     1.007825032230

  Basis Set: AUG-CC-PVTZ
    Blend: AUG-CC-PVTZ
  Basis Set: (AUG-CC-PVTZ AUX)
    Blend: AUG-CC-PVTZ-JKFIT
	 Reference Energy          =    -343.8352795964019037 [Eh]
	 Singles Energy            =      -0.0000000000000000 [Eh]
	 Same-Spin Energy          =      -0.3413879583965689 [Eh]
	 Opposite-Spin Energy      =      -1.1018543301336119 [Eh]
	 Correlation Energy        =      -1.4432422885301808 [Eh]
	 Total Energy              =    -345.2785218849321041 [Eh]

	 ================> DF-SCS-MP2 Energies <==================
	-----------------------------------------------------------
	 SCS Same-Spin Scale       =       0.3333333333333333 [-]
	 SCS Opposite-Spin Scale   =       1.2000000000000000 [-]
	 SCS Same-Spin Energy      =      -0.1137959861321896 [Eh]
	 SCS Opposite-Spin Energy  =      -1.3222251961603342 [Eh]
	 SCS Correlation Energy    =      -1.4360211822925237 [Eh]
	 SCS Total Energy          =    -345.2713007786944104 [Eh]
	-----------------------------------------------------------

  Dipole Moment: [D]
     X:    -0.3846      Y:    -1.0159      Z:     0.2938     Total:     1.1253

*** Psi4 exiting successfully. Buy a developer a beer!
