                               Psi4 1.3.2 release

  ==> Input File <==

--------------------------------------------------------------------------
#psi4
#
memory 32 gb

molecule  {
0 1
  O        2.5331200    -0.0725200     0.2027050
  O        0.8230440     1.2494390    -0.4327460
  C       -1.7553947    -0.1178754    -0.5985551
  C       -2.5841030     0.6523970     0.4513900
  C       -0.9018550    -1.1471370     0.0763090
  C        0.4111192    -0.9513027     0.2909286
  C        1.2159030     0.1700770    -0.0266570
  H       -2.5251580    -0.7208810    -1.2155130
  H       -1.2597500     0.5079260    -1.2382380
  H       -3.2919980     1.3271690    -0.0377650
  H       -1.8881090     1.2530680     1.0427000
  H       -3.1450010     0.0036210     1.1307380
  H       -1.3667210    -2.0751620     0.4099140
  H        0.9531490    -1.8065430     0.8308200
  H        2.9905100     0.7616870    -0.0298800
units angstrom
no_reorient  #important for SAPT in psi4, default
symmetry c1  #important for SAPT in psi4, default
}

set PROPERTIES_ORIGIN ["COM"]
properties('MP2/aug-cc-pvtz', properties = ['dipole'])
--------------------------------------------------------------------------

    Molecular point group: c1
  Charge       = 0
  Multiplicity = 1
  Basis Set: AUG-CC-PVTZ
    Blend: AUG-CC-PVTZ
  Basis Set: (AUG-CC-PVTZ AUX)
    Blend: AUG-CC-PVTZ-JKFIT

    Orbital Energies [Eh]
    ---------------------

    Doubly Occupied:

       1A    -20.610987     2A    -20.541920     3A    -11.384601
       4A    -11.275625     5A    -11.242136     6A    -11.232106
       7A    -11.222513     8A     -1.458448     9A     -1.352245
      10A     -1.109947    11A     -1.020549    12A     -0.916321
      13A     -0.840899    14A     -0.759208    15A     -0.706273
      16A     -0.671254    17A     -0.644777    18A     -0.629587
      19A     -0.604264    20A     -0.578104    21A     -0.570269
      22A     -0.528642    23A     -0.508456    24A     -0.484473
      25A     -0.477930    26A     -0.447496    27A     -0.379710

  @DF-RHF Final Energy:  -343.84198723473816

   => Energetics <=

    Nuclear Repulsion Energy =            294.2188551591031569
    One-Electron Energy =               -1051.7242025649763946
    Two-Electron Energy =                 413.6633601711350252
    Total Energy =                       -343.8419872347381556
  Basis Set: (AUG-CC-PVTZ AUX)
    Blend: AUG-CC-PVTZ-RI
    Molecular point group: c1

    Geometry (in Angstrom), charge = 0, multiplicity = 1:

       Center              X                  Y                   Z               Mass
    ------------   -----------------  -----------------  -----------------  -----------------
         O            2.526104518315    -0.085949447709     0.207289977650    15.994914619570
         O            0.816028518315     1.236009552291    -0.428161022350    15.994914619570
         C           -1.762410181685    -0.131304847709    -0.593970122350    12.000000000000
         C           -2.591118481685     0.638967552291     0.455974977650    12.000000000000
         C           -0.908870481685    -1.160566447709     0.080893977650    12.000000000000
         C            0.404103718315    -0.964732147709     0.295513577650    12.000000000000
         C            1.208887518315     0.156647552291    -0.022072022350    12.000000000000
         H           -2.532173481685    -0.734310447709    -1.210928022350     1.007825032230
         H           -1.266765481685     0.494496552291    -1.233653022350     1.007825032230
         H           -3.299013481685     1.313739552291    -0.033180022350     1.007825032230
         H           -1.895124481685     1.239638552291     1.047284977650     1.007825032230
         H           -3.152016481685    -0.009808447709     1.135322977650     1.007825032230
         H           -1.373736481685    -2.088591447709     0.414498977650     1.007825032230
         H            0.946133518315    -1.819972447709     0.835404977650     1.007825032230
         H            2.983494518315     0.748257552291    -0.025295022350     1.007825032230

  Basis Set: AUG-CC-PVTZ
    Blend: AUG-CC-PVTZ
  Basis Set: (AUG-CC-PVTZ AUX)
    Blend: AUG-CC-PVTZ-JKFIT
	 Reference Energy          =    -343.8419872347381556 [Eh]
	 Singles Energy            =      -0.0000000000000000 [Eh]
	 Same-Spin Energy          =      -0.3417278359623075 [Eh]
	 Opposite-Spin Energy      =      -1.1010714681204516 [Eh]
	 Correlation Energy        =      -1.4427993040827591 [Eh]
	 Total Energy              =    -345.2847865388209243 [Eh]

	 ================> DF-SCS-MP2 Energies <==================
	-----------------------------------------------------------
	 SCS Same-Spin Scale       =       0.3333333333333333 [-]
	 SCS Opposite-Spin Scale   =       1.2000000000000000 [-]
	 SCS Same-Spin Energy      =      -0.1139092786541025 [Eh]
	 SCS Opposite-Spin Energy  =      -1.3212857617445419 [Eh]
	 SCS Correlation Energy    =      -1.4351950403986444 [Eh]
	 SCS Total Energy          =    -345.2771822751367949 [Eh]
	-----------------------------------------------------------

  Dipole Moment: [D]
     X:    -0.4986      Y:    -1.1625      Z:     0.3585     Total:     1.3147

*** Psi4 exiting successfully. Buy a developer a beer!
