                               Psi4 1.3.2 release

  ==> Input File <==

--------------------------------------------------------------------------
#psi4
#
memory 32 gb

molecule  {
0 1
  O        2.5331200    -0.0725200     0.2027050
  O        0.8230440     1.2494390    -0.4327460
  C       -1.7552209    -0.1182315    -0.5993175
  C       -2.5841030     0.6523970     0.4513900
  C       -0.9018550    -1.1471370     0.0763090
  C        0.4138040    -1.0149060     0.3209930
  C        1.2159030     0.1700770    -0.0266570
  H       -2.5251580    -0.7208810    -1.2155130
  H       -1.2597500     0.5079260    -1.2382380
  H       -3.2919980     1.3271690    -0.0377650
  H       -1.8881090     1.2530680     1.0427000
  H       -3.1450010     0.0036210     1.1307380
  H       -1.3157244    -2.0920031     0.4292442
  H        0.9531490    -1.8065430     0.8308200
  H        2.9905100     0.7616870    -0.0298800
units angstrom
no_reorient  #important for SAPT in psi4, default
symmetry c1  #important for SAPT in psi4, default
}

set PROPERTIES_ORIGIN ["COM"]
properties('MP2/aug-cc-pvtz', properties = ['dipole'])
--------------------------------------------------------------------------

    Molecular point group: c1
  Charge       = 0
  Multiplicity = 1
  Basis Set: AUG-CC-PVTZ
    Blend: AUG-CC-PVTZ
  Basis Set: (AUG-CC-PVTZ AUX)
    Blend: AUG-CC-PVTZ-JKFIT

    Orbital Energies [Eh]
    ---------------------

    Doubly Occupied:

       1A    -20.611195     2A    -20.544577     3A    -11.387938
       4A    -11.270984     5A    -11.241298     6A    -11.233813
       7A    -11.222238     8A     -1.458072     9A     -1.352744
      10A     -1.106435    11A     -1.017953    12A     -0.908116
      13A     -0.842133    14A     -0.755002    15A     -0.707952
      16A     -0.673465    17A     -0.644920    18A     -0.627549
      19A     -0.605392    20A     -0.580453    21A     -0.565881
      22A     -0.529550    23A     -0.512366    24A     -0.485071
      25A     -0.481376    26A     -0.446991    27A     -0.379330

  @DF-RHF Final Energy:  -343.84869334466873

   => Energetics <=

    Nuclear Repulsion Energy =            293.2484118645483591
    One-Electron Energy =               -1049.8086181986793690
    Two-Electron Energy =                 412.7115129894622214
    Total Energy =                       -343.8486933446687317
  Basis Set: (AUG-CC-PVTZ AUX)
    Blend: AUG-CC-PVTZ-RI
    Molecular point group: c1

    Geometry (in Angstrom), charge = 0, multiplicity = 1:

       Center              X                  Y                   Z               Mass
    ------------   -----------------  -----------------  -----------------  -----------------
         O            2.525247978894    -0.078108701752     0.203580867723    15.994914619570
         O            0.815171978894     1.243850298248    -0.431870132277    15.994914619570
         C           -1.763092921106    -0.123820201752    -0.598441632277    12.000000000000
         C           -2.591975021106     0.646808298248     0.452265867723    12.000000000000
         C           -0.909727021106    -1.152725701752     0.077184867723    12.000000000000
         C            0.405931978894    -1.020494701752     0.321868867723    12.000000000000
         C            1.208030978894     0.164488298248    -0.025781132277    12.000000000000
         H           -2.533030021106    -0.726469701752    -1.214637132277     1.007825032230
         H           -1.267622021106     0.502337298248    -1.237362132277     1.007825032230
         H           -3.299870021106     1.321580298248    -0.036889132277     1.007825032230
         H           -1.895981021106     1.247479298248     1.043575867723     1.007825032230
         H           -3.152873021106    -0.001967701752     1.131613867723     1.007825032230
         H           -1.323596421106    -2.097591801752     0.430120067723     1.007825032230
         H            0.945276978894    -1.812131701752     0.831695867723     1.007825032230
         H            2.982637978894     0.756098298248    -0.029004132277     1.007825032230

  Basis Set: AUG-CC-PVTZ
    Blend: AUG-CC-PVTZ
  Basis Set: (AUG-CC-PVTZ AUX)
    Blend: AUG-CC-PVTZ-JKFIT
	 Reference Energy          =    -343.8486933446687317 [Eh]
	 Singles Energy            =      -0.0000000000000000 [Eh]
	 Same-Spin Energy          =      -0.3410487163175850 [Eh]
	 Opposite-Spin Energy      =      -1.1001519654363063 [Eh]
	 Correlation Energy        =      -1.4412006817538914 [Eh]
	 Total Energy              =    -345.2898940264226439 [Eh]

	 ================> DF-SCS-MP2 Energies <==================
	-----------------------------------------------------------
	 SCS Same-Spin Scale       =       0.3333333333333333 [-]
	 SCS Opposite-Spin Scale   =       1.2000000000000000 [-]
	 SCS Same-Spin Energy      =      -0.1136829054391950 [Eh]
	 SCS Opposite-Spin Energy  =      -1.3201823585235675 [Eh]
	 SCS Correlation Energy    =      -1.4338652639627625 [Eh]
	 SCS Total Energy          =    -345.2825586086315184 [Eh]
	-----------------------------------------------------------

  Dipole Moment: [D]
     X:    -0.4096      Y:    -1.1152      Z:     0.3596     Total:     1.2412

*** Psi4 exiting successfully. Buy a developer a beer!
