                               Psi4 1.4a3.dev225

  ==> Input File <==

--------------------------------------------------------------------------
#psi4
#
memory 32 gb

molecule  {
0 1
  O        2.6043210     0.0828630    -0.1445960
  O        0.8461570    -1.2916990     0.2386850
  C       -1.7394130     0.0979440     0.6095950
  C       -2.3802920    -0.6692310    -0.5542970
  C       -0.8230420     1.1744430     0.1086050
  C        0.4895550     1.0683010    -0.1734410
  C        1.2721580    -0.1688410     0.0026710
  H       -2.5220070     0.5621210     1.2198080
  H       -1.1892610    -0.6035630     1.2386490
  H       -3.0933810    -1.4091330    -0.1797240
  H       -1.6064800    -1.1915300    -1.1205690
  H       -2.9131760     0.0061510    -1.2301320
  H       -1.2820910     2.1452700    -0.0812320
  H        1.0330434     1.9128490    -0.5296367
  H        3.0455250    -0.7830240    -0.0219810
units angstrom
no_reorient  #important for SAPT in psi4, default
symmetry c1  #important for SAPT in psi4, default
}

set PROPERTIES_ORIGIN ["COM"]
properties('MP2/aug-cc-pvtz', properties = ['dipole'])
--------------------------------------------------------------------------

    Molecular point group: c1
  Charge       = 0
  Multiplicity = 1
  Basis Set: AUG-CC-PVTZ
    Blend: AUG-CC-PVTZ
  Basis Set: (AUG-CC-PVTZ AUX)
    Blend: AUG-CC-PVTZ-JKFIT

    Orbital Energies [Eh]
    ---------------------

    Doubly Occupied:

       1A    -20.612217     2A    -20.545233     3A    -11.389917
       4A    -11.271557     5A    -11.241956     6A    -11.232032
       7A    -11.219118     8A     -1.455158     9A     -1.350842
      10A     -1.105063    11A     -1.018362    12A     -0.908212
      13A     -0.839532    14A     -0.751286    15A     -0.708680
      16A     -0.676436    17A     -0.646456    18A     -0.626136
      19A     -0.600099    20A     -0.580770    21A     -0.568241
      22A     -0.526455    23A     -0.502470    24A     -0.496116
      25A     -0.479434    26A     -0.445122    27A     -0.380585

  @DF-RHF Final Energy:  -343.85535280606126

   => Energetics <=

    Nuclear Repulsion Energy =            293.8363873463002847
    One-Electron Energy =               -1051.0285071652003808
    Two-Electron Energy =                 413.3367670128388340
    Total Energy =                       -343.8553528060612621
  Basis Set: (AUG-CC-PVTZ AUX)
    Blend: AUG-CC-PVTZ-RI
    Molecular point group: c1

    Geometry (in Angstrom), charge = 0, multiplicity = 1:

       Center              X                  Y                   Z               Mass
    ------------   -----------------  -----------------  -----------------  -----------------
         O            2.520133790122     0.089456486170    -0.151714353887    15.994914619570
         O            0.761969790122    -1.285105513830     0.231566646113    15.994914619570
         C           -1.823600209878     0.104537486170     0.602476646113    12.000000000000
         C           -2.464479209878    -0.662637513830    -0.561415353887    12.000000000000
         C           -0.907229209878     1.181036486170     0.101486646113    12.000000000000
         C            0.405367790122     1.074894486170    -0.180559353887    12.000000000000
         C            1.187970790122    -0.162247513830    -0.004447353887    12.000000000000
         H           -2.606194209878     0.568714486170     1.212689646113     1.007825032230
         H           -1.273448209878    -0.596969513830     1.231530646113     1.007825032230
         H           -3.177568209878    -1.402539513830    -0.186842353887     1.007825032230
         H           -1.690667209878    -1.184936513830    -1.127687353887     1.007825032230
         H           -2.997363209878     0.012744486170    -1.237250353887     1.007825032230
         H           -1.366278209878     2.151863486170    -0.088350353887     1.007825032230
         H            0.948856190122     1.919442486170    -0.536755053887     1.007825032230
         H            2.961337790122    -0.776430513830    -0.029099353887     1.007825032230

  Basis Set: AUG-CC-PVTZ
    Blend: AUG-CC-PVTZ
  Basis Set: (AUG-CC-PVTZ AUX)
    Blend: AUG-CC-PVTZ-JKFIT
	 Reference Energy          =    -343.8553528060612621 [Eh]
	 Singles Energy            =      -0.0000000000000000 [Eh]
	 Same-Spin Energy          =      -0.3412890443971617 [Eh]
	 Opposite-Spin Energy      =      -1.1006774765727647 [Eh]
	 Correlation Energy        =      -1.4419665209699264 [Eh]
	 Total Energy              =    -345.2973193270311754 [Eh]

	 ================> DF-SCS-MP2 Energies <==================
	-----------------------------------------------------------
	 SCS Same-Spin Scale       =       0.3333333333333333 [-]
	 SCS Opposite-Spin Scale   =       1.2000000000000000 [-]
	 SCS Same-Spin Energy      =      -0.1137630147990539 [Eh]
	 SCS Opposite-Spin Energy  =      -1.3208129718873176 [Eh]
	 SCS Correlation Energy    =      -1.4345759866863714 [Eh]
	 SCS Total Energy          =    -345.2899287927476166 [Eh]
	-----------------------------------------------------------

  Dipole Moment: [D]
     X:    -0.3528      Y:     1.1568      Z:    -0.1328     Total:     1.2166

*** Psi4 exiting successfully. Buy a developer a beer!
