                               Psi4 1.4a3.dev225

  ==> Input File <==

--------------------------------------------------------------------------
#psi4
#
memory 32 gb

molecule  {
0 1
  O        2.6043210     0.0828630    -0.1445960
  O        0.8461570    -1.2916990     0.2386850
  C       -1.7394130     0.0979440     0.6095950
  C       -2.3802920    -0.6692310    -0.5542970
  C       -0.8230420     1.1744430     0.1086050
  C        0.4895550     1.0683010    -0.1734410
  C        1.2651968    -0.1871895     0.0065277
  H       -2.5220070     0.5621210     1.2198080
  H       -1.1892610    -0.6035630     1.2386490
  H       -3.0933810    -1.4091330    -0.1797240
  H       -1.6064800    -1.1915300    -1.1205690
  H       -2.9131760     0.0061510    -1.2301320
  H       -1.2820910     2.1452700    -0.0812320
  H        1.0432440     1.9287000    -0.5363220
  H        3.0455250    -0.7830240    -0.0219810
units angstrom
no_reorient  #important for SAPT in psi4, default
symmetry c1  #important for SAPT in psi4, default
}

set PROPERTIES_ORIGIN ["COM"]
properties('MP2/aug-cc-pvtz', properties = ['dipole'])
--------------------------------------------------------------------------

    Molecular point group: c1
  Charge       = 0
  Multiplicity = 1
  Basis Set: AUG-CC-PVTZ
    Blend: AUG-CC-PVTZ
  Basis Set: (AUG-CC-PVTZ AUX)
    Blend: AUG-CC-PVTZ-JKFIT

    Orbital Energies [Eh]
    ---------------------

    Doubly Occupied:

       1A    -20.609269     2A    -20.549544     3A    -11.389217
       4A    -11.269557     5A    -11.244174     6A    -11.232110
       7A    -11.219271     8A     -1.456656     9A     -1.359814
      10A     -1.103511    11A     -1.016095    12A     -0.904951
      13A     -0.837708    14A     -0.748551    15A     -0.709009
      16A     -0.674632    17A     -0.646010    18A     -0.626767
      19A     -0.601399    20A     -0.580748    21A     -0.568976
      22A     -0.526460    23A     -0.502977    24A     -0.497621
      25A     -0.483310    26A     -0.445802    27A     -0.380120

  @DF-RHF Final Energy:  -343.85597930109486

   => Energetics <=

    Nuclear Repulsion Energy =            293.8373190393007803
    One-Electron Energy =               -1051.0180759164700248
    Two-Electron Energy =                 413.3247775760743252
    Total Energy =                       -343.8559793010948624
  Basis Set: (AUG-CC-PVTZ AUX)
    Blend: AUG-CC-PVTZ-RI
    Molecular point group: c1

    Geometry (in Angstrom), charge = 0, multiplicity = 1:

       Center              X                  Y                   Z               Mass
    ------------   -----------------  -----------------  -----------------  -----------------
         O            2.520865946056     0.091497485738    -0.152109574548    15.994914619570
         O            0.762701946056    -1.283064514262     0.231171425452    15.994914619570
         C           -1.822868053944     0.106578485738     0.602081425452    12.000000000000
         C           -2.463747053944    -0.660596514262    -0.561810574548    12.000000000000
         C           -0.906497053944     1.183077485738     0.101091425452    12.000000000000
         C            0.406099946056     1.076935485738    -0.180954574548    12.000000000000
         C            1.181741746056    -0.178555014262    -0.000985874548    12.000000000000
         H           -2.605462053944     0.570755485738     1.212294425452     1.007825032230
         H           -1.272716053944    -0.594928514262     1.231135425452     1.007825032230
         H           -3.176836053944    -1.400498514262    -0.187237574548     1.007825032230
         H           -1.689935053944    -1.182895514262    -1.128082574548     1.007825032230
         H           -2.996631053944     0.014785485738    -1.237645574548     1.007825032230
         H           -1.365546053944     2.153904485738    -0.088745574548     1.007825032230
         H            0.959788946056     1.937334485738    -0.543835574548     1.007825032230
         H            2.962069946056    -0.774389514262    -0.029494574548     1.007825032230

  Basis Set: AUG-CC-PVTZ
    Blend: AUG-CC-PVTZ
  Basis Set: (AUG-CC-PVTZ AUX)
    Blend: AUG-CC-PVTZ-JKFIT
	 Reference Energy          =    -343.8559793010948624 [Eh]
	 Singles Energy            =      -0.0000000000000000 [Eh]
	 Same-Spin Energy          =      -0.3409486545731485 [Eh]
	 Opposite-Spin Energy      =      -1.1002146426352479 [Eh]
	 Correlation Energy        =      -1.4411632972083965 [Eh]
	 Total Energy              =    -345.2971425983032532 [Eh]

	 ================> DF-SCS-MP2 Energies <==================
	-----------------------------------------------------------
	 SCS Same-Spin Scale       =       0.3333333333333333 [-]
	 SCS Opposite-Spin Scale   =       1.2000000000000000 [-]
	 SCS Same-Spin Energy      =      -0.1136495515243828 [Eh]
	 SCS Opposite-Spin Energy  =      -1.3202575711622975 [Eh]
	 SCS Correlation Energy    =      -1.4339071226866804 [Eh]
	 SCS Total Energy          =    -345.2898864237815246 [Eh]
	-----------------------------------------------------------

  Dipole Moment: [D]
     X:    -0.4113      Y:     1.0421      Z:    -0.1095     Total:     1.1257

*** Psi4 exiting successfully. Buy a developer a beer!
