                               Psi4 1.3.2 release

  ==> Input File <==

--------------------------------------------------------------------------
#psi4
#
memory 32 gb

molecule  {
0 1
  O        2.5216705    -0.1161299     0.2174287
  O        0.8230440     1.2494390    -0.4327460
  C       -1.8165730    -0.1662430    -0.5903910
  C       -2.5841030     0.6523970     0.4513900
  C       -0.9018550    -1.1471370     0.0763090
  C        0.4570848    -1.0391326     0.3344733
  C        1.2159030     0.1700770    -0.0266570
  H       -2.5251580    -0.7208810    -1.2155130
  H       -1.2597500     0.5079260    -1.2382380
  H       -3.2919980     1.3271690    -0.0377650
  H       -1.8881090     1.2530680     1.0427000
  H       -3.1450010     0.0036210     1.1307380
  H       -1.3667210    -2.0751620     0.4099140
  H        0.9531490    -1.8065430     0.8308200
  H        2.9905100     0.7616870    -0.0298800
units angstrom
no_reorient  #important for SAPT in psi4, default
symmetry c1  #important for SAPT in psi4, default
}

set PROPERTIES_ORIGIN ["COM"]
properties('MP2/aug-cc-pvtz', properties = ['dipole'])
--------------------------------------------------------------------------

    Molecular point group: c1
  Charge       = 0
  Multiplicity = 1
  Basis Set: AUG-CC-PVTZ
    Blend: AUG-CC-PVTZ
  Basis Set: (AUG-CC-PVTZ AUX)
    Blend: AUG-CC-PVTZ-JKFIT

    Orbital Energies [Eh]
    ---------------------

    Doubly Occupied:

       1A    -20.614361     2A    -20.546295     3A    -11.387226
       4A    -11.277565     5A    -11.242063     6A    -11.233331
       7A    -11.222182     8A     -1.452715     9A     -1.351405
      10A     -1.099352    11A     -1.018590    12A     -0.905797
      13A     -0.834773    14A     -0.747077    15A     -0.707462
      16A     -0.679072    17A     -0.641681    18A     -0.626985
      19A     -0.598620    20A     -0.588111    21A     -0.561171
      22A     -0.528880    23A     -0.505780    24A     -0.496920
      25A     -0.482334    26A     -0.445734    27A     -0.371922

  @DF-RHF Final Energy:  -343.84489812467280

   => Energetics <=

    Nuclear Repulsion Energy =            292.1713145718300098
    One-Electron Energy =               -1047.6976201392985786
    Two-Electron Energy =                 411.6814074427958303
    Total Energy =                       -343.8448981246727953
  Basis Set: (AUG-CC-PVTZ AUX)
    Blend: AUG-CC-PVTZ-RI
    Molecular point group: c1

    Geometry (in Angstrom), charge = 0, multiplicity = 1:

       Center              X                  Y                   Z               Mass
    ------------   -----------------  -----------------  -----------------  -----------------
         O            2.518309963795    -0.106252501101     0.213458064071    15.994914619570
         O            0.819683463795     1.259316398899    -0.436716635929    15.994914619570
         C           -1.819933536205    -0.156365601101    -0.594361635929    12.000000000000
         C           -2.587463536205     0.662274398899     0.447419364071    12.000000000000
         C           -0.905215536205    -1.137259601101     0.072338364071    12.000000000000
         C            0.453724263795    -1.029255201101     0.330502664071    12.000000000000
         C            1.212542463795     0.179954398899    -0.030627635929    12.000000000000
         H           -2.528518536205    -0.711003601101    -1.219483635929     1.007825032230
         H           -1.263110536205     0.517803398899    -1.242208635929     1.007825032230
         H           -3.295358536205     1.337046398899    -0.041735635929     1.007825032230
         H           -1.891469536205     1.262945398899     1.038729364071     1.007825032230
         H           -3.148361536205     0.013498398899     1.126767364071     1.007825032230
         H           -1.370081536205    -2.065284601101     0.405943364071     1.007825032230
         H            0.949788463795    -1.796665601101     0.826849364071     1.007825032230
         H            2.987149463795     0.771564398899    -0.033850635929     1.007825032230

  Basis Set: AUG-CC-PVTZ
    Blend: AUG-CC-PVTZ
  Basis Set: (AUG-CC-PVTZ AUX)
    Blend: AUG-CC-PVTZ-JKFIT
	 Reference Energy          =    -343.8448981246727953 [Eh]
	 Singles Energy            =      -0.0000000000000000 [Eh]
	 Same-Spin Energy          =      -0.3423051079084276 [Eh]
	 Opposite-Spin Energy      =      -1.1028828638251214 [Eh]
	 Correlation Energy        =      -1.4451879717335490 [Eh]
	 Total Energy              =    -345.2900860964063554 [Eh]

	 ================> DF-SCS-MP2 Energies <==================
	-----------------------------------------------------------
	 SCS Same-Spin Scale       =       0.3333333333333333 [-]
	 SCS Opposite-Spin Scale   =       1.2000000000000000 [-]
	 SCS Same-Spin Energy      =      -0.1141017026361425 [Eh]
	 SCS Opposite-Spin Energy  =      -1.3234594365901455 [Eh]
	 SCS Correlation Energy    =      -1.4375611392262881 [Eh]
	 SCS Total Energy          =    -345.2824592638990566 [Eh]
	-----------------------------------------------------------

  Dipole Moment: [D]
     X:    -0.4108      Y:    -1.0668      Z:     0.3279     Total:     1.1893

*** Psi4 exiting successfully. Buy a developer a beer!
