                               Psi4 1.3.2 release

  ==> Input File <==

--------------------------------------------------------------------------
#psi4
#
memory 32 gb

molecule  {
0 1
  O        2.5331200    -0.0725200     0.2027050
  O        0.8230440     1.2494390    -0.4327460
  C       -1.8165730    -0.1662430    -0.5903910
  C       -2.5459098     0.6113594     0.5086921
  C       -0.9270259    -1.1203868     0.1455890
  C        0.4138040    -1.0149060     0.3209930
  C        1.2159030     0.1700770    -0.0266570
  H       -2.5251580    -0.7208810    -1.2155130
  H       -1.2597500     0.5079260    -1.2382380
  H       -3.2919980     1.3271690    -0.0377650
  H       -1.8881090     1.2530680     1.0427000
  H       -3.1450010     0.0036210     1.1307380
  H       -1.3667210    -2.0751620     0.4099140
  H        0.9531490    -1.8065430     0.8308200
  H        2.9905100     0.7616870    -0.0298800
units angstrom
no_reorient  #important for SAPT in psi4, default
symmetry c1  #important for SAPT in psi4, default
}

set PROPERTIES_ORIGIN ["COM"]
properties('MP2/aug-cc-pvtz', properties = ['dipole'])
--------------------------------------------------------------------------

    Molecular point group: c1
  Charge       = 0
  Multiplicity = 1
  Basis Set: AUG-CC-PVTZ
    Blend: AUG-CC-PVTZ
  Basis Set: (AUG-CC-PVTZ AUX)
    Blend: AUG-CC-PVTZ-JKFIT

    Orbital Energies [Eh]
    ---------------------

    Doubly Occupied:

       1A    -20.610715     2A    -20.543879     3A    -11.387703
       4A    -11.272217     5A    -11.243294     6A    -11.233085
       7A    -11.222060     8A     -1.457506     9A     -1.352048
      10A     -1.106111    11A     -1.019418    12A     -0.907291
      13A     -0.839853    14A     -0.754215    15A     -0.707203
      16A     -0.674206    17A     -0.649340    18A     -0.627731
      19A     -0.600630    20A     -0.586391    21A     -0.565384
      22A     -0.531743    23A     -0.508059    24A     -0.488396
      25A     -0.478599    26A     -0.444151    27A     -0.376255

  @DF-RHF Final Energy:  -343.84602610031510

   => Energetics <=

    Nuclear Repulsion Energy =            293.1555428487980635
    One-Electron Energy =               -1049.6281719673145290
    Two-Electron Energy =                 412.6266030182013651
    Total Energy =                       -343.8460261003151004
  Basis Set: (AUG-CC-PVTZ AUX)
    Blend: AUG-CC-PVTZ-RI
    Molecular point group: c1

    Geometry (in Angstrom), charge = 0, multiplicity = 1:

       Center              X                  Y                   Z               Mass
    ------------   -----------------  -----------------  -----------------  -----------------
         O            2.531558202976    -0.070806391138     0.187523069340    15.994914619570
         O            0.821482202976     1.251152608862    -0.447927930660    15.994914619570
         C           -1.818134797024    -0.164529391138    -0.605572930660    12.000000000000
         C           -2.547471597024     0.613073008862     0.493510169340    12.000000000000
         C           -0.928587697024    -1.118673191138     0.130407069340    12.000000000000
         C            0.412242202976    -1.013192391138     0.305811069340    12.000000000000
         C            1.214341202976     0.171790608862    -0.041838930660    12.000000000000
         H           -2.526719797024    -0.719167391138    -1.230694930660     1.007825032230
         H           -1.261311797024     0.509639608862    -1.253419930660     1.007825032230
         H           -3.293559797024     1.328882608862    -0.052946930660     1.007825032230
         H           -1.889670797024     1.254781608862     1.027518069340     1.007825032230
         H           -3.146562797024     0.005334608862     1.115556069340     1.007825032230
         H           -1.368282797024    -2.073448391138     0.394732069340     1.007825032230
         H            0.951587202976    -1.804829391138     0.815638069340     1.007825032230
         H            2.988948202976     0.763400608862    -0.045061930660     1.007825032230

  Basis Set: AUG-CC-PVTZ
    Blend: AUG-CC-PVTZ
  Basis Set: (AUG-CC-PVTZ AUX)
    Blend: AUG-CC-PVTZ-JKFIT
	 Reference Energy          =    -343.8460261003151004 [Eh]
	 Singles Energy            =      -0.0000000000000000 [Eh]
	 Same-Spin Energy          =      -0.3415004266455782 [Eh]
	 Opposite-Spin Energy      =      -1.1009515173819198 [Eh]
	 Correlation Energy        =      -1.4424519440274979 [Eh]
	 Total Energy              =    -345.2884780443425825 [Eh]

	 ================> DF-SCS-MP2 Energies <==================
	-----------------------------------------------------------
	 SCS Same-Spin Scale       =       0.3333333333333333 [-]
	 SCS Opposite-Spin Scale   =       1.2000000000000000 [-]
	 SCS Same-Spin Energy      =      -0.1138334755485260 [Eh]
	 SCS Opposite-Spin Energy  =      -1.3211418208583037 [Eh]
	 SCS Correlation Energy    =      -1.4349752964068296 [Eh]
	 SCS Total Energy          =    -345.2810013967219334 [Eh]
	-----------------------------------------------------------

  Dipole Moment: [D]
     X:    -0.4447      Y:    -1.1874      Z:     0.2967     Total:     1.3022

*** Psi4 exiting successfully. Buy a developer a beer!
