                               Psi4 1.3.2 release

  ==> Input File <==

--------------------------------------------------------------------------
#psi4
#
memory 32 gb

molecule  {
0 1
  O        2.5331200    -0.0725200     0.2027050
  O        0.8230440     1.2494390    -0.4327460
  C       -1.8165730    -0.1662430    -0.5903910
  C       -2.5841030     0.6523970     0.4513900
  C       -0.9018550    -1.1471370     0.0763090
  C        0.4138040    -1.0149060     0.3209930
  C        1.2159030     0.1700770    -0.0266570
  H       -2.5251580    -0.7208810    -1.2155130
  H       -1.2597500     0.5079260    -1.2382380
  H       -3.2919980     1.3271690    -0.0377650
  H       -1.8881090     1.2530680     1.0427000
  H       -3.1450010     0.0036210     1.1307380
  H       -1.3667210    -2.0751620     0.4099140
  H        0.9531490    -1.8065430     0.8308200
  H        2.8971069     0.5913345     0.0176159
units angstrom
no_reorient  #important for SAPT in psi4, default
symmetry c1  #important for SAPT in psi4, default
}

set PROPERTIES_ORIGIN ["COM"]
properties('MP2/aug-cc-pvtz', properties = ['dipole'])
--------------------------------------------------------------------------

    Molecular point group: c1
  Charge       = 0
  Multiplicity = 1
  Basis Set: AUG-CC-PVTZ
    Blend: AUG-CC-PVTZ
  Basis Set: (AUG-CC-PVTZ AUX)
    Blend: AUG-CC-PVTZ-JKFIT

    Orbital Energies [Eh]
    ---------------------

    Doubly Occupied:

       1A    -20.593969     2A    -20.548435     3A    -11.391998
       4A    -11.272418     5A    -11.244173     6A    -11.232756
       7A    -11.222156     8A     -1.503079     9A     -1.372338
      10A     -1.108011    11A     -1.025404    12A     -0.930023
      13A     -0.853276    14A     -0.769919    15A     -0.721817
      16A     -0.679347    17A     -0.651210    18A     -0.635100
      19A     -0.610493    20A     -0.585225    21A     -0.571482
      22A     -0.529146    23A     -0.505768    24A     -0.497972
      25A     -0.487092    26A     -0.447360    27A     -0.382478

  @DF-RHF Final Energy:  -343.81274064705593

   => Energetics <=

    Nuclear Repulsion Energy =            294.2244448373837713
    One-Electron Energy =               -1051.3294770484214951
    Two-Electron Energy =                 413.2922915639817916
    Total Energy =                       -343.8127406470559322
  Basis Set: (AUG-CC-PVTZ AUX)
    Blend: AUG-CC-PVTZ-RI
    Molecular point group: c1

    Geometry (in Angstrom), charge = 0, multiplicity = 1:

       Center              X                  Y                   Z               Mass
    ------------   -----------------  -----------------  -----------------  -----------------
         O            2.534060906643    -0.070804025240     0.202226536817    15.994914619570
         O            0.823984906643     1.251154974760    -0.433224463183    15.994914619570
         C           -1.815632093357    -0.164527025240    -0.590869463183    12.000000000000
         C           -2.583162093357     0.654112974760     0.450911536817    12.000000000000
         C           -0.900914093357    -1.145421025240     0.075830536817    12.000000000000
         C            0.414744906643    -1.013190025240     0.320514536817    12.000000000000
         C            1.216843906643     0.171792974760    -0.027135463183    12.000000000000
         H           -2.524217093357    -0.719165025240    -1.215991463183     1.007825032230
         H           -1.258809093357     0.509641974760    -1.238716463183     1.007825032230
         H           -3.291057093357     1.328884974760    -0.038243463183     1.007825032230
         H           -1.887168093357     1.254783974760     1.042221536817     1.007825032230
         H           -3.144060093357     0.005336974760     1.130259536817     1.007825032230
         H           -1.365780093357    -2.073446025240     0.409435536817     1.007825032230
         H            0.954089906643    -1.804827025240     0.830341536817     1.007825032230
         H            2.898047806643     0.593050474760     0.017137436817     1.007825032230

  Basis Set: AUG-CC-PVTZ
    Blend: AUG-CC-PVTZ
  Basis Set: (AUG-CC-PVTZ AUX)
    Blend: AUG-CC-PVTZ-JKFIT
	 Reference Energy          =    -343.8127406470559322 [Eh]
	 Singles Energy            =      -0.0000000000000000 [Eh]
	 Same-Spin Energy          =      -0.3384746315578416 [Eh]
	 Opposite-Spin Energy      =      -1.0945115727413892 [Eh]
	 Correlation Energy        =      -1.4329862042992310 [Eh]
	 Total Energy              =    -345.2457268513551867 [Eh]

	 ================> DF-SCS-MP2 Energies <==================
	-----------------------------------------------------------
	 SCS Same-Spin Scale       =       0.3333333333333333 [-]
	 SCS Opposite-Spin Scale   =       1.2000000000000000 [-]
	 SCS Same-Spin Energy      =      -0.1128248771859472 [Eh]
	 SCS Opposite-Spin Energy  =      -1.3134138872896670 [Eh]
	 SCS Correlation Energy    =      -1.4262387644756143 [Eh]
	 SCS Total Energy          =    -345.2389794115315453 [Eh]
	-----------------------------------------------------------

  Dipole Moment: [D]
     X:    -0.6421      Y:    -1.2884      Z:     0.3684     Total:     1.4860

*** Psi4 exiting successfully. Buy a developer a beer!
