                               Psi4 1.3.2 release

  ==> Input File <==

--------------------------------------------------------------------------
#psi4
#
memory 32 gb

molecule  {
0 1
  O        2.5331200    -0.0725200     0.2027050
  O        0.8230440     1.2494390    -0.4327460
  C       -1.8165730    -0.1662430    -0.5903910
  C       -2.5841030     0.6523970     0.4513900
  C       -0.9018550    -1.1471370     0.0763090
  C        0.4138040    -1.0149060     0.3209930
  C        1.2108359     0.1479748    -0.0197083
  H       -2.5251580    -0.7208810    -1.2155130
  H       -1.2597500     0.5079260    -1.2382380
  H       -3.2919980     1.3271690    -0.0377650
  H       -1.8881090     1.2530680     1.0427000
  H       -3.1450010     0.0036210     1.1307380
  H       -1.3667210    -2.0751620     0.4099140
  H        0.9531490    -1.8065430     0.8308200
  H        3.0054476     0.7544702    -0.0257608
units angstrom
no_reorient  #important for SAPT in psi4, default
symmetry c1  #important for SAPT in psi4, default
}

set PROPERTIES_ORIGIN ["COM"]
properties('MP2/aug-cc-pvtz', properties = ['dipole'])
--------------------------------------------------------------------------

    Molecular point group: c1
  Charge       = 0
  Multiplicity = 1
  Basis Set: AUG-CC-PVTZ
    Blend: AUG-CC-PVTZ
  Basis Set: (AUG-CC-PVTZ AUX)
    Blend: AUG-CC-PVTZ-JKFIT

    Orbital Energies [Eh]
    ---------------------

    Doubly Occupied:

       1A    -20.610455     2A    -20.540320     3A    -11.388809
       4A    -11.274585     5A    -11.243348     6A    -11.232439
       7A    -11.221858     8A     -1.452401     9A     -1.339977
      10A     -1.108637    11A     -1.023238    12A     -0.913168
      13A     -0.841704    14A     -0.754899    15A     -0.705540
      16A     -0.672029    17A     -0.647685    18A     -0.624601
      19A     -0.599469    20A     -0.582480    21A     -0.565946
      22A     -0.528292    23A     -0.503693    24A     -0.495465
      25A     -0.476409    26A     -0.442875    27A     -0.382436

  @DF-RHF Final Energy:  -343.85408022727358

   => Energetics <=

    Nuclear Repulsion Energy =            292.7165326904197400
    One-Electron Energy =               -1048.7957139480217847
    Two-Electron Energy =                 412.2251010303284602
    Total Energy =                       -343.8540802272735846
  Basis Set: (AUG-CC-PVTZ AUX)
    Blend: AUG-CC-PVTZ-RI
    Molecular point group: c1

    Geometry (in Angstrom), charge = 0, multiplicity = 1:

       Center              X                  Y                   Z               Mass
    ------------   -----------------  -----------------  -----------------  -----------------
         O            2.533577327487    -0.069796411948     0.201830061927    15.994914619570
         O            0.823501327487     1.252162588052    -0.433620938073    15.994914619570
         C           -1.816115672513    -0.163519411948    -0.591265938073    12.000000000000
         C           -2.583645672513     0.655120588052     0.450515061927    12.000000000000
         C           -0.901397672513    -1.144413411948     0.075434061927    12.000000000000
         C            0.414261327487    -1.012182411948     0.320118061927    12.000000000000
         C            1.211293227487     0.150698388052    -0.020583238073    12.000000000000
         H           -2.524700672513    -0.718157411948    -1.216387938073     1.007825032230
         H           -1.259292672513     0.510649588052    -1.239112938073     1.007825032230
         H           -3.291540672513     1.329892588052    -0.038639938073     1.007825032230
         H           -1.887651672513     1.255791588052     1.041825061927     1.007825032230
         H           -3.144543672513     0.006344588052     1.129863061927     1.007825032230
         H           -1.366263672513    -2.072438411948     0.409039061927     1.007825032230
         H            0.953606327487    -1.803819411948     0.829945061927     1.007825032230
         H            3.005904927487     0.757193788052    -0.026635738073     1.007825032230

  Basis Set: AUG-CC-PVTZ
    Blend: AUG-CC-PVTZ
  Basis Set: (AUG-CC-PVTZ AUX)
    Blend: AUG-CC-PVTZ-JKFIT
	 Reference Energy          =    -343.8540802272735846 [Eh]
	 Singles Energy            =      -0.0000000000000000 [Eh]
	 Same-Spin Energy          =      -0.3414377409097390 [Eh]
	 Opposite-Spin Energy      =      -1.1007247024379716 [Eh]
	 Correlation Energy        =      -1.4421624433477107 [Eh]
	 Total Energy              =    -345.2962426706212682 [Eh]

	 ================> DF-SCS-MP2 Energies <==================
	-----------------------------------------------------------
	 SCS Same-Spin Scale       =       0.3333333333333333 [-]
	 SCS Opposite-Spin Scale   =       1.2000000000000000 [-]
	 SCS Same-Spin Energy      =      -0.1138125803032463 [Eh]
	 SCS Opposite-Spin Energy  =      -1.3208696429255660 [Eh]
	 SCS Correlation Energy    =      -1.4346822232288123 [Eh]
	 SCS Total Energy          =    -345.2887624505024178 [Eh]
	-----------------------------------------------------------

  Dipole Moment: [D]
     X:    -0.4651      Y:    -1.2520      Z:     0.3757     Total:     1.3874

*** Psi4 exiting successfully. Buy a developer a beer!
