                               Psi4 1.4a3.dev225

  ==> Input File <==

--------------------------------------------------------------------------
#psi4
#
memory 32 gb

molecule  {
0 1
  O        2.6043210     0.0828630    -0.1445960
  O        0.8461570    -1.2916990     0.2386850
  C       -1.7394130     0.0979440     0.6095950
  C       -2.3802920    -0.6692310    -0.5542970
  C       -0.8535906     1.1385563     0.1253062
  C        0.4895550     1.0683010    -0.1734410
  C        1.2721580    -0.1688410     0.0026710
  H       -2.5220070     0.5621210     1.2198080
  H       -1.1892610    -0.6035630     1.2386490
  H       -3.0933810    -1.4091330    -0.1797240
  H       -1.6064800    -1.1915300    -1.1205690
  H       -2.9131760     0.0061510    -1.2301320
  H       -1.2820910     2.1452700    -0.0812320
  H        1.0432440     1.9287000    -0.5363220
  H        3.0455250    -0.7830240    -0.0219810
units angstrom
no_reorient  #important for SAPT in psi4, default
symmetry c1  #important for SAPT in psi4, default
}

set PROPERTIES_ORIGIN ["COM"]
properties('MP2/aug-cc-pvtz', properties = ['dipole'])
--------------------------------------------------------------------------

    Molecular point group: c1
  Charge       = 0
  Multiplicity = 1
  Basis Set: AUG-CC-PVTZ
    Blend: AUG-CC-PVTZ
  Basis Set: (AUG-CC-PVTZ AUX)
    Blend: AUG-CC-PVTZ-JKFIT

    Orbital Energies [Eh]
    ---------------------

    Doubly Occupied:

       1A    -20.610476     2A    -20.543472     3A    -11.387803
       4A    -11.277473     5A    -11.246743     6A    -11.230819
       7A    -11.221578     8A     -1.453539     9A     -1.349356
      10A     -1.108194    11A     -1.017634    12A     -0.910153
      13A     -0.839433    14A     -0.748656    15A     -0.706146
      16A     -0.675108    17A     -0.645376    18A     -0.625280
      19A     -0.602757    20A     -0.579734    21A     -0.562231
      22A     -0.532253    23A     -0.509866    24A     -0.495858
      25A     -0.478895    26A     -0.443693    27A     -0.372339

  @DF-RHF Final Energy:  -343.85021535512573

   => Energetics <=

    Nuclear Repulsion Energy =            293.9651750523282772
    One-Electron Energy =               -1051.2810509571138482
    Two-Electron Energy =                 413.4656605496598445
    Total Energy =                       -343.8502153551257265
  Basis Set: (AUG-CC-PVTZ AUX)
    Blend: AUG-CC-PVTZ-RI
    Molecular point group: c1

    Geometry (in Angstrom), charge = 0, multiplicity = 1:

       Center              X                  Y                   Z               Mass
    ------------   -----------------  -----------------  -----------------  -----------------
         O            2.523694950823     0.093600966893    -0.153650106855    15.994914619570
         O            0.765530950823    -1.280961033107     0.229630893145    15.994914619570
         C           -1.820039049177     0.108681966893     0.600540893145    12.000000000000
         C           -2.460918049177    -0.658493033107    -0.563351106855    12.000000000000
         C           -0.934216649177     1.149294266893     0.116252093145    12.000000000000
         C            0.408928950823     1.079038966893    -0.182495106855    12.000000000000
         C            1.191531950823    -0.158103033107    -0.006383106855    12.000000000000
         H           -2.602633049177     0.572858966893     1.210753893145     1.007825032230
         H           -1.269887049177    -0.592825033107     1.229594893145     1.007825032230
         H           -3.174007049177    -1.398395033107    -0.188778106855     1.007825032230
         H           -1.687106049177    -1.180792033107    -1.129623106855     1.007825032230
         H           -2.993802049177     0.016888966893    -1.239186106855     1.007825032230
         H           -1.362717049177     2.156007966893    -0.090286106855     1.007825032230
         H            0.962617950823     1.939437966893    -0.545376106855     1.007825032230
         H            2.964898950823    -0.772286033107    -0.031035106855     1.007825032230

  Basis Set: AUG-CC-PVTZ
    Blend: AUG-CC-PVTZ
  Basis Set: (AUG-CC-PVTZ AUX)
    Blend: AUG-CC-PVTZ-JKFIT
	 Reference Energy          =    -343.8502153551257265 [Eh]
	 Singles Energy            =      -0.0000000000000000 [Eh]
	 Same-Spin Energy          =      -0.3422453770072292 [Eh]
	 Opposite-Spin Energy      =      -1.1019205463294202 [Eh]
	 Correlation Energy        =      -1.4441659233366493 [Eh]
	 Total Energy              =    -345.2943812784623674 [Eh]

	 ================> DF-SCS-MP2 Energies <==================
	-----------------------------------------------------------
	 SCS Same-Spin Scale       =       0.3333333333333333 [-]
	 SCS Opposite-Spin Scale   =       1.2000000000000000 [-]
	 SCS Same-Spin Energy      =      -0.1140817923357431 [Eh]
	 SCS Opposite-Spin Energy  =      -1.3223046555953042 [Eh]
	 SCS Correlation Energy    =      -1.4363864479310473 [Eh]
	 SCS Total Energy          =    -345.2866018030567830 [Eh]
	-----------------------------------------------------------

  Dipole Moment: [D]
     X:    -0.4521      Y:     1.1230      Z:    -0.1198     Total:     1.2164

*** Psi4 exiting successfully. Buy a developer a beer!
