                               Psi4 1.3.2 release

  ==> Input File <==

--------------------------------------------------------------------------
#psi4
#
memory 32 gb

molecule  {
0 1
  O        2.5331200    -0.0725200     0.2027050
  O        0.8230440     1.2494390    -0.4327460
  C       -1.8165730    -0.1662430    -0.5903910
  C       -2.5841030     0.6523970     0.4513900
  C       -0.9019107    -1.1365801     0.0711847
  C        0.4138040    -1.0149060     0.3209930
  C        1.2159030     0.1700770    -0.0266570
  H       -2.5251580    -0.7208810    -1.2155130
  H       -1.2597500     0.5079260    -1.2382380
  H       -3.2919980     1.3271690    -0.0377650
  H       -1.8881090     1.2530680     1.0427000
  H       -3.1450010     0.0036210     1.1307380
  H       -1.3667210    -2.0751620     0.4099140
  H        0.9611090    -1.8014487     0.8302213
  H        2.9905100     0.7616870    -0.0298800
units angstrom
no_reorient  #important for SAPT in psi4, default
symmetry c1  #important for SAPT in psi4, default
}

set PROPERTIES_ORIGIN ["COM"]
properties('MP2/aug-cc-pvtz', properties = ['dipole'])
--------------------------------------------------------------------------

    Molecular point group: c1
  Charge       = 0
  Multiplicity = 1
  Basis Set: AUG-CC-PVTZ
    Blend: AUG-CC-PVTZ
  Basis Set: (AUG-CC-PVTZ AUX)
    Blend: AUG-CC-PVTZ-JKFIT

    Orbital Energies [Eh]
    ---------------------

    Doubly Occupied:

       1A    -20.611039     2A    -20.544167     3A    -11.387555
       4A    -11.271571     5A    -11.243200     6A    -11.231376
       7A    -11.221571     8A     -1.457828     9A     -1.352302
      10A     -1.106633    11A     -1.020341    12A     -0.909018
      13A     -0.840342    14A     -0.751166    15A     -0.707780
      16A     -0.674038    17A     -0.647045    18A     -0.627807
      19A     -0.601699    20A     -0.583946    21A     -0.564249
      22A     -0.528736    23A     -0.504946    24A     -0.496206
      25A     -0.481714    26A     -0.443471    27A     -0.380818

  @DF-RHF Final Energy:  -343.85636928185119

   => Energetics <=

    Nuclear Repulsion Energy =            292.9588202873673595
    One-Electron Energy =               -1049.2492539242059593
    Two-Electron Energy =                 412.4340643549873562
    Total Energy =                       -343.8563692818511868
  Basis Set: (AUG-CC-PVTZ AUX)
    Blend: AUG-CC-PVTZ-RI
    Molecular point group: c1

    Geometry (in Angstrom), charge = 0, multiplicity = 1:

       Center              X                  Y                   Z               Mass
    ------------   -----------------  -----------------  -----------------  -----------------
         O            2.533046559765    -0.073837459594     0.203325586009    15.994914619570
         O            0.822970559765     1.248121540406    -0.432125413991    15.994914619570
         C           -1.816646440235    -0.167560459594    -0.589770413991    12.000000000000
         C           -2.584176440235     0.651079540406     0.452010586009    12.000000000000
         C           -0.901984140235    -1.137897559594     0.071805286009    12.000000000000
         C            0.413730559765    -1.016223459594     0.321613586009    12.000000000000
         C            1.215829559765     0.168759540406    -0.026036413991    12.000000000000
         H           -2.525231440235    -0.722198459594    -1.214892413991     1.007825032230
         H           -1.259823440235     0.506608540406    -1.237617413991     1.007825032230
         H           -3.292071440235     1.325851540406    -0.037144413991     1.007825032230
         H           -1.888182440235     1.251750540406     1.043320586009     1.007825032230
         H           -3.145074440235     0.002303540406     1.131358586009     1.007825032230
         H           -1.366794440235    -2.076479459594     0.410534586009     1.007825032230
         H            0.961035559765    -1.802766159594     0.830841886009     1.007825032230
         H            2.990436559765     0.760369540406    -0.029259413991     1.007825032230

  Basis Set: AUG-CC-PVTZ
    Blend: AUG-CC-PVTZ
  Basis Set: (AUG-CC-PVTZ AUX)
    Blend: AUG-CC-PVTZ-JKFIT
	 Reference Energy          =    -343.8563692818511868 [Eh]
	 Singles Energy            =      -0.0000000000000000 [Eh]
	 Same-Spin Energy          =      -0.3410349755788158 [Eh]
	 Opposite-Spin Energy      =      -1.0999454281537384 [Eh]
	 Correlation Energy        =      -1.4409804037325542 [Eh]
	 Total Energy              =    -345.2973496855837539 [Eh]

	 ================> DF-SCS-MP2 Energies <==================
	-----------------------------------------------------------
	 SCS Same-Spin Scale       =       0.3333333333333333 [-]
	 SCS Opposite-Spin Scale   =       1.2000000000000000 [-]
	 SCS Same-Spin Energy      =      -0.1136783251929386 [Eh]
	 SCS Opposite-Spin Energy  =      -1.3199345137844860 [Eh]
	 SCS Correlation Energy    =      -1.4336128389774245 [Eh]
	 SCS Total Energy          =    -345.2899821208285971 [Eh]
	-----------------------------------------------------------

  Dipole Moment: [D]
     X:    -0.4387      Y:    -1.1130      Z:     0.3303     Total:     1.2411

*** Psi4 exiting successfully. Buy a developer a beer!
