                               Psi4 1.3.2 release

  ==> Input File <==

--------------------------------------------------------------------------
#psi4
#
memory 32 gb

molecule  {
0 1
  O        2.5331200    -0.0725200     0.2027050
  O        0.8230440     1.2494390    -0.4327460
  C       -1.8265590    -0.1745100    -0.5887249
  C       -2.5841030     0.6523970     0.4513900
  C       -0.9018550    -1.1471370     0.0763090
  C        0.4138040    -1.0149060     0.3209930
  C        1.2159030     0.1700770    -0.0266570
  H       -2.5251580    -0.7208810    -1.2155130
  H       -1.2597500     0.5079260    -1.2382380
  H       -3.2919980     1.3271690    -0.0377650
  H       -1.8881090     1.2530680     1.0427000
  H       -3.1450010     0.0036210     1.1307380
  H       -1.3751003    -2.0721065     0.4066019
  H        0.9531490    -1.8065430     0.8308200
  H        2.9905100     0.7616870    -0.0298800
units angstrom
no_reorient  #important for SAPT in psi4, default
symmetry c1  #important for SAPT in psi4, default
}

set PROPERTIES_ORIGIN ["COM"]
properties('MP2/aug-cc-pvtz', properties = ['dipole'])
--------------------------------------------------------------------------

    Molecular point group: c1
  Charge       = 0
  Multiplicity = 1
  Basis Set: AUG-CC-PVTZ
    Blend: AUG-CC-PVTZ
  Basis Set: (AUG-CC-PVTZ AUX)
    Blend: AUG-CC-PVTZ-JKFIT

    Orbital Energies [Eh]
    ---------------------

    Doubly Occupied:

       1A    -20.611305     2A    -20.544548     3A    -11.388275
       4A    -11.270983     5A    -11.243581     6A    -11.231369
       7A    -11.221109     8A     -1.458082     9A     -1.352550
      10A     -1.105460    11A     -1.020083    12A     -0.909127
      13A     -0.839936    14A     -0.752063    15A     -0.707872
      16A     -0.674378    17A     -0.647380    18A     -0.628002
      19A     -0.600858    20A     -0.583880    21A     -0.566387
      22A     -0.528094    23A     -0.502707    24A     -0.496450
      25A     -0.481397    26A     -0.443514    27A     -0.381287

  @DF-RHF Final Energy:  -343.85641280287274

   => Energetics <=

    Nuclear Repulsion Energy =            292.7462811763783748
    One-Electron Energy =               -1048.8240395914106102
    Two-Electron Energy =                 412.2213456121594959
    Total Energy =                       -343.8564128028727396
  Basis Set: (AUG-CC-PVTZ AUX)
    Blend: AUG-CC-PVTZ-RI
    Molecular point group: c1

    Geometry (in Angstrom), charge = 0, multiplicity = 1:

       Center              X                  Y                   Z               Mass
    ------------   -----------------  -----------------  -----------------  -----------------
         O            2.534402156588    -0.071559238518     0.202538497000    15.994914619570
         O            0.824326156588     1.250399761482    -0.432912503000    15.994914619570
         C           -1.825276843412    -0.173549238518    -0.588891403000    12.000000000000
         C           -2.582820843412     0.653357761482     0.451223497000    12.000000000000
         C           -0.900572843412    -1.146176238518     0.076142497000    12.000000000000
         C            0.415086156588    -1.013945238518     0.320826497000    12.000000000000
         C            1.217185156588     0.171037761482    -0.026823503000    12.000000000000
         H           -2.523875843412    -0.719920238518    -1.215679503000     1.007825032230
         H           -1.258467843412     0.508886761482    -1.238404503000     1.007825032230
         H           -3.290715843412     1.328129761482    -0.037931503000     1.007825032230
         H           -1.886826843412     1.254028761482     1.042533497000     1.007825032230
         H           -3.143718843412     0.004581761482     1.130571497000     1.007825032230
         H           -1.373818143412    -2.071145738518     0.406435397000     1.007825032230
         H            0.954431156588    -1.805582238518     0.830653497000     1.007825032230
         H            2.991792156588     0.762647761482    -0.030046503000     1.007825032230

  Basis Set: AUG-CC-PVTZ
    Blend: AUG-CC-PVTZ
  Basis Set: (AUG-CC-PVTZ AUX)
    Blend: AUG-CC-PVTZ-JKFIT
	 Reference Energy          =    -343.8564128028727396 [Eh]
	 Singles Energy            =      -0.0000000000000000 [Eh]
	 Same-Spin Energy          =      -0.3409432453257111 [Eh]
	 Opposite-Spin Energy      =      -1.0999184532478012 [Eh]
	 Correlation Energy        =      -1.4408616985735123 [Eh]
	 Total Energy              =    -345.2972745014462248 [Eh]

	 ================> DF-SCS-MP2 Energies <==================
	-----------------------------------------------------------
	 SCS Same-Spin Scale       =       0.3333333333333333 [-]
	 SCS Opposite-Spin Scale   =       1.2000000000000000 [-]
	 SCS Same-Spin Energy      =      -0.1136477484419037 [Eh]
	 SCS Opposite-Spin Energy  =      -1.3199021438973615 [Eh]
	 SCS Correlation Energy    =      -1.4335498923392651 [Eh]
	 SCS Total Energy          =    -345.2899626952120116 [Eh]
	-----------------------------------------------------------

  Dipole Moment: [D]
     X:    -0.4273      Y:    -1.1228      Z:     0.3322     Total:     1.2464

*** Psi4 exiting successfully. Buy a developer a beer!
