                               Psi4 1.3.2 release

  ==> Input File <==

--------------------------------------------------------------------------
#psi4
#
memory 32 gb

molecule  {
0 1
  O        2.5331200    -0.0725200     0.2027050
  O        0.8230440     1.2494390    -0.4327460
  C       -1.8165730    -0.1662430    -0.5903910
  C       -2.5841030     0.6523970     0.4513900
  C       -0.9018550    -1.1471370     0.0763090
  C        0.4138040    -1.0149060     0.3209930
  C        1.1836567     0.2586723    -0.0599893
  H       -2.5251580    -0.7208810    -1.2155130
  H       -1.2597500     0.5079260    -1.2382380
  H       -3.2919980     1.3271690    -0.0377650
  H       -1.8881090     1.2530680     1.0427000
  H       -3.1450010     0.0036210     1.1307380
  H       -1.3667210    -2.0751620     0.4099140
  H        0.9531490    -1.8065430     0.8308200
  H        2.9905100     0.7616870    -0.0298800
units angstrom
no_reorient  #important for SAPT in psi4, default
symmetry c1  #important for SAPT in psi4, default
}

set PROPERTIES_ORIGIN ["COM"]
properties('MP2/aug-cc-pvtz', properties = ['dipole'])
--------------------------------------------------------------------------

    Molecular point group: c1
  Charge       = 0
  Multiplicity = 1
  Basis Set: AUG-CC-PVTZ
    Blend: AUG-CC-PVTZ
  Basis Set: (AUG-CC-PVTZ AUX)
    Blend: AUG-CC-PVTZ-JKFIT

    Orbital Energies [Eh]
    ---------------------

    Doubly Occupied:

       1A    -20.595456     2A    -20.565167     3A    -11.382533
       4A    -11.260929     5A    -11.242775     6A    -11.231604
       7A    -11.221375     8A     -1.494055     9A     -1.373031
      10A     -1.099713    11A     -1.011592    12A     -0.893291
      13A     -0.830747    14A     -0.746769    15A     -0.716879
      16A     -0.678996    17A     -0.650403    18A     -0.640480
      19A     -0.604457    20A     -0.587167    21A     -0.568446
      22A     -0.527847    23A     -0.507650    24A     -0.504315
      25A     -0.491956    26A     -0.442801    27A     -0.377558

  @DF-RHF Final Energy:  -343.84289817711954

   => Energetics <=

    Nuclear Repulsion Energy =            293.4224115642205675
    One-Electron Energy =               -1050.0346352774179195
    Two-Electron Energy =                 412.7693255360778721
    Total Energy =                       -343.8428981771195367
  Basis Set: (AUG-CC-PVTZ AUX)
    Blend: AUG-CC-PVTZ-RI
    Molecular point group: c1

    Geometry (in Angstrom), charge = 0, multiplicity = 1:

       Center              X                  Y                   Z               Mass
    ------------   -----------------  -----------------  -----------------  -----------------
         O            2.536987588376    -0.083145845624     0.206702741534    15.994914619570
         O            0.826911588376     1.238813154376    -0.428748258466    15.994914619570
         C           -1.812705411624    -0.176868845624    -0.586393258466    12.000000000000
         C           -2.580235411624     0.641771154376     0.455387741534    12.000000000000
         C           -0.897987411624    -1.157762845624     0.080306741534    12.000000000000
         C            0.417671588376    -1.025531845624     0.324990741534    12.000000000000
         C            1.187524288376     0.248046454376    -0.055991558466    12.000000000000
         H           -2.521290411624    -0.731506845624    -1.211515258466     1.007825032230
         H           -1.255882411624     0.497300154376    -1.234240258466     1.007825032230
         H           -3.288130411624     1.316543154376    -0.033767258466     1.007825032230
         H           -1.884241411624     1.242442154376     1.046697741534     1.007825032230
         H           -3.141133411624    -0.007004845624     1.134735741534     1.007825032230
         H           -1.362853411624    -2.085787845624     0.413911741534     1.007825032230
         H            0.957016588376    -1.817168845624     0.834817741534     1.007825032230
         H            2.994377588376     0.751061154376    -0.025882258466     1.007825032230

  Basis Set: AUG-CC-PVTZ
    Blend: AUG-CC-PVTZ
  Basis Set: (AUG-CC-PVTZ AUX)
    Blend: AUG-CC-PVTZ-JKFIT
	 Reference Energy          =    -343.8428981771195367 [Eh]
	 Singles Energy            =      -0.0000000000000000 [Eh]
	 Same-Spin Energy          =      -0.3392162728396324 [Eh]
	 Opposite-Spin Energy      =      -1.0972036864876489 [Eh]
	 Correlation Energy        =      -1.4364199593272813 [Eh]
	 Total Energy              =    -345.2793181364468182 [Eh]

	 ================> DF-SCS-MP2 Energies <==================
	-----------------------------------------------------------
	 SCS Same-Spin Scale       =       0.3333333333333333 [-]
	 SCS Opposite-Spin Scale   =       1.2000000000000000 [-]
	 SCS Same-Spin Energy      =      -0.1130720909465441 [Eh]
	 SCS Opposite-Spin Energy  =      -1.3166444237851787 [Eh]
	 SCS Correlation Energy    =      -1.4297165147317228 [Eh]
	 SCS Total Energy          =    -345.2726146918512313 [Eh]
	-----------------------------------------------------------

  Dipole Moment: [D]
     X:    -0.7165      Y:    -0.5444      Z:     0.1104     Total:     0.9066

*** Psi4 exiting successfully. Buy a developer a beer!
