                               Psi4 1.3.2 release

  ==> Input File <==

--------------------------------------------------------------------------
#psi4
#
memory 32 gb

molecule  {
0 1
  O        2.5331200    -0.0725200     0.2027050
  O        0.8230440     1.2494390    -0.4327460
  C       -1.8165730    -0.1662430    -0.5903910
  C       -2.5841030     0.6523970     0.4513900
  C       -0.9018550    -1.1471370     0.0763090
  C        0.4138040    -1.0149060     0.3209930
  C        1.1614330     0.0896056    -0.0030483
  H       -2.5251580    -0.7208810    -1.2155130
  H       -1.2597500     0.5079260    -1.2382380
  H       -3.2919980     1.3271690    -0.0377650
  H       -1.8881090     1.2530680     1.0427000
  H       -3.1450010     0.0036210     1.1307380
  H       -1.3667210    -2.0751620     0.4099140
  H        0.9531490    -1.8065430     0.8308200
  H        2.9905100     0.7616870    -0.0298800
units angstrom
no_reorient  #important for SAPT in psi4, default
symmetry c1  #important for SAPT in psi4, default
}

set PROPERTIES_ORIGIN ["COM"]
properties('MP2/aug-cc-pvtz', properties = ['dipole'])
--------------------------------------------------------------------------

    Molecular point group: c1
  Charge       = 0
  Multiplicity = 1
  Basis Set: AUG-CC-PVTZ
    Blend: AUG-CC-PVTZ
  Basis Set: (AUG-CC-PVTZ AUX)
    Blend: AUG-CC-PVTZ-JKFIT

    Orbital Energies [Eh]
    ---------------------

    Doubly Occupied:

       1A    -20.598399     2A    -20.533350     3A    -11.388899
       4A    -11.288888     5A    -11.242872     6A    -11.238000
       7A    -11.226403     8A     -1.426137     9A     -1.308900
      10A     -1.123381    11A     -1.037243    12A     -0.924873
      13A     -0.845152    14A     -0.752263    15A     -0.704484
      16A     -0.664306    17A     -0.649636    18A     -0.612009
      19A     -0.596139    20A     -0.581874    21A     -0.566206
      22A     -0.532766    23A     -0.506422    24A     -0.499119
      25A     -0.465486    26A     -0.437430    27A     -0.387978

  @DF-RHF Final Energy:  -343.83475191192156

   => Energetics <=

    Nuclear Repulsion Energy =            292.7364489361921756
    One-Electron Energy =               -1048.8651677940658828
    Two-Electron Energy =                 412.2939669459522065
    Total Energy =                       -343.8347519119215576
  Basis Set: (AUG-CC-PVTZ AUX)
    Blend: AUG-CC-PVTZ-RI
    Molecular point group: c1

    Geometry (in Angstrom), charge = 0, multiplicity = 1:

       Center              X                  Y                   Z               Mass
    ------------   -----------------  -----------------  -----------------  -----------------
         O            2.539653034896    -0.062868472948     0.199873402123    15.994914619570
         O            0.829577034896     1.259090527052    -0.435577597877    15.994914619570
         C           -1.810039965104    -0.156591472948    -0.593222597877    12.000000000000
         C           -2.577569965104     0.662048527052     0.448558402123    12.000000000000
         C           -0.895321965104    -1.137485472948     0.073477402123    12.000000000000
         C            0.420337034896    -1.005254472948     0.318161402123    12.000000000000
         C            1.167966034896     0.099257127052    -0.005879897877    12.000000000000
         H           -2.518624965104    -0.711229472948    -1.218344597877     1.007825032230
         H           -1.253216965104     0.517577527052    -1.241069597877     1.007825032230
         H           -3.285464965104     1.336820527052    -0.040596597877     1.007825032230
         H           -1.881575965104     1.262719527052     1.039868402123     1.007825032230
         H           -3.138467965104     0.013272527052     1.127906402123     1.007825032230
         H           -1.360187965104    -2.065510472948     0.407082402123     1.007825032230
         H            0.959682034896    -1.796891472948     0.827988402123     1.007825032230
         H            2.997043034896     0.771338527052    -0.032711597877     1.007825032230

  Basis Set: AUG-CC-PVTZ
    Blend: AUG-CC-PVTZ
  Basis Set: (AUG-CC-PVTZ AUX)
    Blend: AUG-CC-PVTZ-JKFIT
	 Reference Energy          =    -343.8347519119215576 [Eh]
	 Singles Energy            =      -0.0000000000000000 [Eh]
	 Same-Spin Energy          =      -0.3434544460904115 [Eh]
	 Opposite-Spin Energy      =      -1.1042400096947365 [Eh]
	 Correlation Energy        =      -1.4476944557851481 [Eh]
	 Total Energy              =    -345.2824463677067115 [Eh]

	 ================> DF-SCS-MP2 Energies <==================
	-----------------------------------------------------------
	 SCS Same-Spin Scale       =       0.3333333333333333 [-]
	 SCS Opposite-Spin Scale   =       1.2000000000000000 [-]
	 SCS Same-Spin Energy      =      -0.1144848153634705 [Eh]
	 SCS Opposite-Spin Energy  =      -1.3250880116336836 [Eh]
	 SCS Correlation Energy    =      -1.4395728269971542 [Eh]
	 SCS Total Energy          =    -345.2743247389187218 [Eh]
	-----------------------------------------------------------

  Dipole Moment: [D]
     X:    -1.0446      Y:    -1.5645      Z:     0.4333     Total:     1.9304

*** Psi4 exiting successfully. Buy a developer a beer!
