                               Psi4 1.3.2 release

  ==> Input File <==

--------------------------------------------------------------------------
#psi4
#
memory 32 gb

molecule  {
0 1
  O        2.5331200    -0.0725200     0.2027050
  O        0.8230440     1.2494390    -0.4327460
  C       -1.8165730    -0.1662430    -0.5903910
  C       -2.5841030     0.6523970     0.4513900
  C       -0.9081318    -1.1569419     0.0703671
  C        0.4138040    -1.0149060     0.3209930
  C        1.2159030     0.1700770    -0.0266570
  H       -2.5210430    -0.7290831    -1.2128270
  H       -1.2597500     0.5079260    -1.2382380
  H       -3.2919980     1.3271690    -0.0377650
  H       -1.8881090     1.2530680     1.0427000
  H       -3.1450010     0.0036210     1.1307380
  H       -1.3667210    -2.0751620     0.4099140
  H        0.9531490    -1.8065430     0.8308200
  H        2.9905100     0.7616870    -0.0298800
units angstrom
no_reorient  #important for SAPT in psi4, default
symmetry c1  #important for SAPT in psi4, default
}

set PROPERTIES_ORIGIN ["COM"]
properties('MP2/aug-cc-pvtz', properties = ['dipole'])
--------------------------------------------------------------------------

    Molecular point group: c1
  Charge       = 0
  Multiplicity = 1
  Basis Set: AUG-CC-PVTZ
    Blend: AUG-CC-PVTZ
  Basis Set: (AUG-CC-PVTZ AUX)
    Blend: AUG-CC-PVTZ-JKFIT

    Orbital Energies [Eh]
    ---------------------

    Doubly Occupied:

       1A    -20.611197     2A    -20.544414     3A    -11.388247
       4A    -11.271521     5A    -11.244023     6A    -11.231660
       7A    -11.221403     8A     -1.457962     9A     -1.352442
      10A     -1.104530    11A     -1.018956    12A     -0.909633
      13A     -0.839677    14A     -0.753597    15A     -0.707574
      16A     -0.673251    17A     -0.647436    18A     -0.627776
      19A     -0.601130    20A     -0.582689    21A     -0.567605
      22A     -0.528152    23A     -0.504673    24A     -0.494864
      25A     -0.481589    26A     -0.444803    27A     -0.379199

  @DF-RHF Final Energy:  -343.85625758369707

   => Energetics <=

    Nuclear Repulsion Energy =            292.6624994671169020
    One-Electron Energy =               -1048.6575093530232152
    Two-Electron Energy =                 412.1387523022091841
    Total Energy =                       -343.8562575836970723
  Basis Set: (AUG-CC-PVTZ AUX)
    Blend: AUG-CC-PVTZ-RI
    Molecular point group: c1

    Geometry (in Angstrom), charge = 0, multiplicity = 1:

       Center              X                  Y                   Z               Mass
    ------------   -----------------  -----------------  -----------------  -----------------
         O            2.533831431133    -0.071261389767     0.203390559914    15.994914619570
         O            0.823755431133     1.250697610233    -0.432060440086    15.994914619570
         C           -1.815861568867    -0.164984389767    -0.589705440086    12.000000000000
         C           -2.583391568867     0.653655610233     0.452075559914    12.000000000000
         C           -0.907420368867    -1.155683289767     0.071052659914    12.000000000000
         C            0.414515431133    -1.013647389767     0.321678559914    12.000000000000
         C            1.216614431133     0.171335610233    -0.025971440086    12.000000000000
         H           -2.520331568867    -0.727824489767    -1.212141440086     1.007825032230
         H           -1.259038568867     0.509184610233    -1.237552440086     1.007825032230
         H           -3.291286568867     1.328427610233    -0.037079440086     1.007825032230
         H           -1.887397568867     1.254326610233     1.043385559914     1.007825032230
         H           -3.144289568867     0.004879610233     1.131423559914     1.007825032230
         H           -1.366009568867    -2.073903389767     0.410599559914     1.007825032230
         H            0.953860431133    -1.805284389767     0.831505559914     1.007825032230
         H            2.991221431133     0.762945610233    -0.029194440086     1.007825032230

  Basis Set: AUG-CC-PVTZ
    Blend: AUG-CC-PVTZ
  Basis Set: (AUG-CC-PVTZ AUX)
    Blend: AUG-CC-PVTZ-JKFIT
	 Reference Energy          =    -343.8562575836970723 [Eh]
	 Singles Energy            =      -0.0000000000000000 [Eh]
	 Same-Spin Energy          =      -0.3409865184071402 [Eh]
	 Opposite-Spin Energy      =      -1.1000339970574613 [Eh]
	 Correlation Energy        =      -1.4410205154646016 [Eh]
	 Total Energy              =    -345.2972780991617014 [Eh]

	 ================> DF-SCS-MP2 Energies <==================
	-----------------------------------------------------------
	 SCS Same-Spin Scale       =       0.3333333333333333 [-]
	 SCS Opposite-Spin Scale   =       1.2000000000000000 [-]
	 SCS Same-Spin Energy      =      -0.1136621728023801 [Eh]
	 SCS Opposite-Spin Energy  =      -1.3200407964689536 [Eh]
	 SCS Correlation Energy    =      -1.4337029692713337 [Eh]
	 SCS Total Energy          =    -345.2899605529684095 [Eh]
	-----------------------------------------------------------

  Dipole Moment: [D]
     X:    -0.4315      Y:    -1.1245      Z:     0.3430     Total:     1.2524

*** Psi4 exiting successfully. Buy a developer a beer!
