                               Psi4 1.4a3.dev225

  ==> Input File <==

--------------------------------------------------------------------------
#psi4
#
memory 32 gb

molecule  {
0 1
  O        2.6043210     0.0828630    -0.1445960
  O        0.8461570    -1.2916990     0.2386850
  C       -1.7394130     0.0979440     0.6095950
  C       -2.3802920    -0.6692310    -0.5542970
  C       -0.8230420     1.1744430     0.1086050
  C        0.4895550     1.0683010    -0.1734410
  C        1.2827735    -0.1856221     0.0050598
  H       -2.5220070     0.5621210     1.2198080
  H       -1.1892610    -0.6035630     1.2386490
  H       -3.0933810    -1.4091330    -0.1797240
  H       -1.6064800    -1.1915300    -1.1205690
  H       -2.9131760     0.0061510    -1.2301320
  H       -1.2820910     2.1452700    -0.0812320
  H        1.0432440     1.9287000    -0.5363220
  H        3.0455250    -0.7830240    -0.0219810
units angstrom
no_reorient  #important for SAPT in psi4, default
symmetry c1  #important for SAPT in psi4, default
}

set PROPERTIES_ORIGIN ["COM"]
properties('MP2/aug-cc-pvtz', properties = ['dipole'])
--------------------------------------------------------------------------

    Molecular point group: c1
  Charge       = 0
  Multiplicity = 1
  Basis Set: AUG-CC-PVTZ
    Blend: AUG-CC-PVTZ
  Basis Set: (AUG-CC-PVTZ AUX)
    Blend: AUG-CC-PVTZ-JKFIT

    Orbital Energies [Eh]
    ---------------------

    Doubly Occupied:

       1A    -20.614636     2A    -20.547416     3A    -11.389839
       4A    -11.268411     5A    -11.243841     6A    -11.230986
       7A    -11.218297     8A     -1.461393     9A     -1.359518
      10A     -1.101701    11A     -1.014591    12A     -0.905193
      13A     -0.838628    14A     -0.750956    15A     -0.709450
      16A     -0.675055    17A     -0.647242    18A     -0.630090
      19A     -0.600184    20A     -0.579370    21A     -0.567633
      22A     -0.525465    23A     -0.502104    24A     -0.496594
      25A     -0.481950    26A     -0.444672    27A     -0.378860

  @DF-RHF Final Energy:  -343.85607308356555

   => Energetics <=

    Nuclear Repulsion Energy =            293.7631623740220448
    One-Electron Energy =               -1050.8703201201681168
    Two-Electron Energy =                 413.2510846625805243
    Total Energy =                       -343.8560730835655477
  Basis Set: (AUG-CC-PVTZ AUX)
    Blend: AUG-CC-PVTZ-RI
    Molecular point group: c1

    Geometry (in Angstrom), charge = 0, multiplicity = 1:

       Center              X                  Y                   Z               Mass
    ------------   -----------------  -----------------  -----------------  -----------------
         O            2.518757847321     0.091309496300    -0.151933518853    15.994914619570
         O            0.760593847321    -1.283252503700     0.231347481147    15.994914619570
         C           -1.824976152679     0.106390496300     0.602257481147    12.000000000000
         C           -2.465855152679    -0.660784503700    -0.561634518853    12.000000000000
         C           -0.908605152679     1.182889496300     0.101267481147    12.000000000000
         C            0.403991847321     1.076747496300    -0.180778518853    12.000000000000
         C            1.197210347321    -0.177175603700    -0.002277718853    12.000000000000
         H           -2.607570152679     0.570567496300     1.212470481147     1.007825032230
         H           -1.274824152679    -0.595116503700     1.231311481147     1.007825032230
         H           -3.178944152679    -1.400686503700    -0.187061518853     1.007825032230
         H           -1.692043152679    -1.183083503700    -1.127906518853     1.007825032230
         H           -2.998739152679     0.014597496300    -1.237469518853     1.007825032230
         H           -1.367654152679     2.153716496300    -0.088569518853     1.007825032230
         H            0.957680847321     1.937146496300    -0.543659518853     1.007825032230
         H            2.959961847321    -0.774577503700    -0.029318518853     1.007825032230

  Basis Set: AUG-CC-PVTZ
    Blend: AUG-CC-PVTZ
  Basis Set: (AUG-CC-PVTZ AUX)
    Blend: AUG-CC-PVTZ-JKFIT
	 Reference Energy          =    -343.8560730835655477 [Eh]
	 Singles Energy            =      -0.0000000000000000 [Eh]
	 Same-Spin Energy          =      -0.3409373905258102 [Eh]
	 Opposite-Spin Energy      =      -1.1001408478888217 [Eh]
	 Correlation Energy        =      -1.4410782384146319 [Eh]
	 Total Energy              =    -345.2971513219801523 [Eh]

	 ================> DF-SCS-MP2 Energies <==================
	-----------------------------------------------------------
	 SCS Same-Spin Scale       =       0.3333333333333333 [-]
	 SCS Opposite-Spin Scale   =       1.2000000000000000 [-]
	 SCS Same-Spin Energy      =      -0.1136457968419367 [Eh]
	 SCS Opposite-Spin Energy  =      -1.3201690174665861 [Eh]
	 SCS Correlation Energy    =      -1.4338148143085228 [Eh]
	 SCS Total Energy          =    -345.2898878978740527 [Eh]
	-----------------------------------------------------------

  Dipole Moment: [D]
     X:    -0.2369      Y:     1.0596      Z:    -0.1243     Total:     1.0929

*** Psi4 exiting successfully. Buy a developer a beer!
