                               Psi4 1.3.2 release

  ==> Input File <==

--------------------------------------------------------------------------
#psi4
#
memory 32 gb

molecule  {
0 1
  O        2.5331200    -0.0725200     0.2027050
  O        0.8230440     1.2494390    -0.4327460
  C       -1.8165730    -0.1662430    -0.5903910
  C       -2.5841030     0.6523970     0.4513900
  C       -0.9018550    -1.1471370     0.0763090
  C        0.4138040    -1.0149060     0.3209930
  C        1.2272392     0.2140531    -0.0403426
  H       -2.5251580    -0.7208810    -1.2155130
  H       -1.2597500     0.5079260    -1.2382380
  H       -3.2919980     1.3271690    -0.0377650
  H       -1.8881090     1.2530680     1.0427000
  H       -3.1450010     0.0036210     1.1307380
  H       -1.3667210    -2.0751620     0.4099140
  H        0.9531490    -1.8065430     0.8308200
  H        2.9602214     0.7753563    -0.0379046
units angstrom
no_reorient  #important for SAPT in psi4, default
symmetry c1  #important for SAPT in psi4, default
}

set PROPERTIES_ORIGIN ["COM"]
properties('MP2/aug-cc-pvtz', properties = ['dipole'])
--------------------------------------------------------------------------

    Molecular point group: c1
  Charge       = 0
  Multiplicity = 1
  Basis Set: AUG-CC-PVTZ
    Blend: AUG-CC-PVTZ
  Basis Set: (AUG-CC-PVTZ AUX)
    Blend: AUG-CC-PVTZ-JKFIT

    Orbital Energies [Eh]
    ---------------------

    Doubly Occupied:

       1A    -20.612945     2A    -20.552775     3A    -11.386972
       4A    -11.263877     5A    -11.242339     6A    -11.229877
       7A    -11.219868     8A     -1.472248     9A     -1.375739
      10A     -1.099754    11A     -1.013080    12A     -0.900492
      13A     -0.836331    14A     -0.749269    15A     -0.713160
      16A     -0.677651    17A     -0.649074    18A     -0.636110
      19A     -0.603227    20A     -0.584210    21A     -0.566514
      22A     -0.526508    23A     -0.504827    24A     -0.499266
      25A     -0.488533    26A     -0.444109    27A     -0.377651

  @DF-RHF Final Energy:  -343.85539483805877

   => Energetics <=

    Nuclear Repulsion Energy =            293.0413496817430428
    One-Electron Energy =               -1049.3406838212558796
    Two-Electron Energy =                 412.4439393014541224
    Total Energy =                       -343.8553948380587713
  Basis Set: (AUG-CC-PVTZ AUX)
    Blend: AUG-CC-PVTZ-RI
    Molecular point group: c1

    Geometry (in Angstrom), charge = 0, multiplicity = 1:

       Center              X                  Y                   Z               Mass
    ------------   -----------------  -----------------  -----------------  -----------------
         O            2.532065525082    -0.077932037824     0.204427204515    15.994914619570
         O            0.821989525082     1.244026962176    -0.431023795485    15.994914619570
         C           -1.817627474918    -0.171655037824    -0.588668795485    12.000000000000
         C           -2.585157474918     0.646984962176     0.453112204515    12.000000000000
         C           -0.902909474918    -1.152549037824     0.078031204515    12.000000000000
         C            0.412749525082    -1.020318037824     0.322715204515    12.000000000000
         C            1.226184725082     0.208641062176    -0.038620395485    12.000000000000
         H           -2.526212474918    -0.726293037824    -1.213790795485     1.007825032230
         H           -1.260804474918     0.502513962176    -1.236515795485     1.007825032230
         H           -3.293052474918     1.321756962176    -0.036042795485     1.007825032230
         H           -1.889163474918     1.247655962176     1.044422204515     1.007825032230
         H           -3.146055474918    -0.001791037824     1.132460204515     1.007825032230
         H           -1.367775474918    -2.080574037824     0.411636204515     1.007825032230
         H            0.952094525082    -1.811955037824     0.832542204515     1.007825032230
         H            2.959166925082     0.769944262176    -0.036182395485     1.007825032230

  Basis Set: AUG-CC-PVTZ
    Blend: AUG-CC-PVTZ
  Basis Set: (AUG-CC-PVTZ AUX)
    Blend: AUG-CC-PVTZ-JKFIT
	 Reference Energy          =    -343.8553948380587713 [Eh]
	 Singles Energy            =      -0.0000000000000000 [Eh]
	 Same-Spin Energy          =      -0.3400974595121861 [Eh]
	 Opposite-Spin Energy      =      -1.0984902537945160 [Eh]
	 Correlation Energy        =      -1.4385877133067022 [Eh]
	 Total Energy              =    -345.2939825513654455 [Eh]

	 ================> DF-SCS-MP2 Energies <==================
	-----------------------------------------------------------
	 SCS Same-Spin Scale       =       0.3333333333333333 [-]
	 SCS Opposite-Spin Scale   =       1.2000000000000000 [-]
	 SCS Same-Spin Energy      =      -0.1133658198373954 [Eh]
	 SCS Opposite-Spin Energy  =      -1.3181883045534193 [Eh]
	 SCS Correlation Energy    =      -1.4315541243908148 [Eh]
	 SCS Total Energy          =    -345.2869489624495714 [Eh]
	-----------------------------------------------------------

  Dipole Moment: [D]
     X:    -0.3406      Y:    -0.8528      Z:     0.2492     Total:     0.9515

*** Psi4 exiting successfully. Buy a developer a beer!
