                               Psi4 1.4a3.dev225

  ==> Input File <==

--------------------------------------------------------------------------
#psi4
#
memory 32 gb

molecule  {
0 1
  O        2.6043210     0.0828630    -0.1445960
  O        0.8461570    -1.2916990     0.2386850
  C       -1.7394130     0.0979440     0.6095950
  C       -2.3802920    -0.6692310    -0.5542970
  C       -0.8230420     1.1744430     0.1086050
  C        0.5382871     1.0643603    -0.1839124
  C        1.2721580    -0.1688410     0.0026710
  H       -2.5220070     0.5621210     1.2198080
  H       -1.1892610    -0.6035630     1.2386490
  H       -3.0933810    -1.4091330    -0.1797240
  H       -1.6064800    -1.1915300    -1.1205690
  H       -2.9131760     0.0061510    -1.2301320
  H       -1.2820910     2.1452700    -0.0812320
  H        1.0432440     1.9287000    -0.5363220
  H        3.0455250    -0.7830240    -0.0219810
units angstrom
no_reorient  #important for SAPT in psi4, default
symmetry c1  #important for SAPT in psi4, default
}

set PROPERTIES_ORIGIN ["COM"]
properties('MP2/aug-cc-pvtz', properties = ['dipole'])
--------------------------------------------------------------------------

    Molecular point group: c1
  Charge       = 0
  Multiplicity = 1
  Basis Set: AUG-CC-PVTZ
    Blend: AUG-CC-PVTZ
  Basis Set: (AUG-CC-PVTZ AUX)
    Blend: AUG-CC-PVTZ-JKFIT

    Orbital Energies [Eh]
    ---------------------

    Doubly Occupied:

       1A    -20.608374     2A    -20.543160     3A    -11.386664
       4A    -11.283195     5A    -11.244731     6A    -11.234473
       7A    -11.220923     8A     -1.453259     9A     -1.348729
      10A     -1.100374    11A     -1.019663    12A     -0.911072
      13A     -0.837442    14A     -0.751406    15A     -0.708187
      16A     -0.677286    17A     -0.642553    18A     -0.625128
      19A     -0.599084    20A     -0.581141    21A     -0.568039
      22A     -0.527840    23A     -0.503977    24A     -0.496429
      25A     -0.478731    26A     -0.447151    27A     -0.371550

  @DF-RHF Final Energy:  -343.84947246015923

   => Energetics <=

    Nuclear Repulsion Energy =            293.5361342151109056
    One-Electron Energy =               -1050.4300952064882040
    Two-Electron Energy =                 413.0444885312180645
    Total Energy =                       -343.8494724601592338
  Basis Set: (AUG-CC-PVTZ AUX)
    Blend: AUG-CC-PVTZ-RI
    Molecular point group: c1

    Geometry (in Angstrom), charge = 0, multiplicity = 1:

       Center              X                  Y                   Z               Mass
    ------------   -----------------  -----------------  -----------------  -----------------
         O            2.514186252186     0.089769455736    -0.150391103534    15.994914619570
         O            0.756022252186    -1.284792544264     0.232889896466    15.994914619570
         C           -1.829547747814     0.104850455736     0.603799896466    12.000000000000
         C           -2.470426747814    -0.662324544264    -0.560092103534    12.000000000000
         C           -0.913176747814     1.181349455736     0.102809896466    12.000000000000
         C            0.448152352186     1.071266755736    -0.189707503534    12.000000000000
         C            1.182023252186    -0.161934544264    -0.003124103534    12.000000000000
         H           -2.612141747814     0.569027455736     1.214012896466     1.007825032230
         H           -1.279395747814    -0.596656544264     1.232853896466     1.007825032230
         H           -3.183515747814    -1.402226544264    -0.185519103534     1.007825032230
         H           -1.696614747814    -1.184623544264    -1.126364103534     1.007825032230
         H           -3.003310747814     0.013057455736    -1.235927103534     1.007825032230
         H           -1.372225747814     2.152176455736    -0.087027103534     1.007825032230
         H            0.953109252186     1.935606455736    -0.542117103534     1.007825032230
         H            2.955390252186    -0.776117544264    -0.027776103534     1.007825032230

  Basis Set: AUG-CC-PVTZ
    Blend: AUG-CC-PVTZ
  Basis Set: (AUG-CC-PVTZ AUX)
    Blend: AUG-CC-PVTZ-JKFIT
	 Reference Energy          =    -343.8494724601592338 [Eh]
	 Singles Energy            =      -0.0000000000000000 [Eh]
	 Same-Spin Energy          =      -0.3420692841975101 [Eh]
	 Opposite-Spin Energy      =      -1.1020214125783663 [Eh]
	 Correlation Energy        =      -1.4440906967758764 [Eh]
	 Total Energy              =    -345.2935631569351358 [Eh]

	 ================> DF-SCS-MP2 Energies <==================
	-----------------------------------------------------------
	 SCS Same-Spin Scale       =       0.3333333333333333 [-]
	 SCS Opposite-Spin Scale   =       1.2000000000000000 [-]
	 SCS Same-Spin Energy      =      -0.1140230947325034 [Eh]
	 SCS Opposite-Spin Energy  =      -1.3224256950940394 [Eh]
	 SCS Correlation Energy    =      -1.4364487898265428 [Eh]
	 SCS Total Energy          =    -345.2859212499857904 [Eh]
	-----------------------------------------------------------

  Dipole Moment: [D]
     X:    -0.4537      Y:     1.1996      Z:    -0.1364     Total:     1.2898

*** Psi4 exiting successfully. Buy a developer a beer!
