                               Psi4 1.3.2 release

  ==> Input File <==

--------------------------------------------------------------------------
#psi4
#
memory 32 gb

molecule  {
0 1
  O        2.5331200    -0.0725200     0.2027050
  O        0.8230440     1.2494390    -0.4327460
  C       -1.8165730    -0.1662430    -0.5903910
  C       -2.5956225     0.6477249     0.4464887
  C       -0.9018550    -1.1471370     0.0763090
  C        0.4138040    -1.0149060     0.3209930
  C        1.2159030     0.1700770    -0.0266570
  H       -2.5324129    -0.7171540    -1.2105231
  H       -1.2597500     0.5079260    -1.2382380
  H       -3.2919980     1.3271690    -0.0377650
  H       -1.8881090     1.2530680     1.0427000
  H       -3.1450010     0.0036210     1.1307380
  H       -1.3667210    -2.0751620     0.4099140
  H        0.9531490    -1.8065430     0.8308200
  H        2.9905100     0.7616870    -0.0298800
units angstrom
no_reorient  #important for SAPT in psi4, default
symmetry c1  #important for SAPT in psi4, default
}

set PROPERTIES_ORIGIN ["COM"]
properties('MP2/aug-cc-pvtz', properties = ['dipole'])
--------------------------------------------------------------------------

    Molecular point group: c1
  Charge       = 0
  Multiplicity = 1
  Basis Set: AUG-CC-PVTZ
    Blend: AUG-CC-PVTZ
  Basis Set: (AUG-CC-PVTZ AUX)
    Blend: AUG-CC-PVTZ-JKFIT

    Orbital Energies [Eh]
    ---------------------

    Doubly Occupied:

       1A    -20.611318     2A    -20.544572     3A    -11.388264
       4A    -11.271062     5A    -11.243402     6A    -11.231564
       7A    -11.221037     8A     -1.458104     9A     -1.352591
      10A     -1.105502    11A     -1.019921    12A     -0.908996
      13A     -0.839811    14A     -0.752483    15A     -0.707892
      16A     -0.674039    17A     -0.647161    18A     -0.627928
      19A     -0.601982    20A     -0.582760    21A     -0.567020
      22A     -0.526944    23A     -0.505733    24A     -0.493484
      25A     -0.481775    26A     -0.444369    27A     -0.381128

  @DF-RHF Final Energy:  -343.85645280274002

   => Energetics <=

    Nuclear Repulsion Energy =            292.7473341181637352
    One-Electron Energy =               -1048.8258917876687519
    Two-Electron Energy =                 412.2221048667649939
    Total Energy =                       -343.8564528027400229
  Basis Set: (AUG-CC-PVTZ AUX)
    Blend: AUG-CC-PVTZ-RI
    Molecular point group: c1

    Geometry (in Angstrom), charge = 0, multiplicity = 1:

       Center              X                  Y                   Z               Mass
    ------------   -----------------  -----------------  -----------------  -----------------
         O            2.534574754111    -0.071997164460     0.203242546236    15.994914619570
         O            0.824498754111     1.249961835540    -0.432208453764    15.994914619570
         C           -1.815118245889    -0.165720164460    -0.589853453764    12.000000000000
         C           -2.594167745889     0.648247735540     0.447026246236    12.000000000000
         C           -0.900400245889    -1.146614164460     0.076846546236    12.000000000000
         C            0.415258754111    -1.014383164460     0.321530546236    12.000000000000
         C            1.217357754111     0.170599835540    -0.026119453764    12.000000000000
         H           -2.530958145889    -0.716631164460    -1.209985553764     1.007825032230
         H           -1.258295245889     0.508448835540    -1.237700453764     1.007825032230
         H           -3.290543245889     1.327691835540    -0.037227453764     1.007825032230
         H           -1.886654245889     1.253590835540     1.043237546236     1.007825032230
         H           -3.143546245889     0.004143835540     1.131275546236     1.007825032230
         H           -1.365266245889    -2.074639164460     0.410451546236     1.007825032230
         H            0.954603754111    -1.806020164460     0.831357546236     1.007825032230
         H            2.991964754111     0.762209835540    -0.029342453764     1.007825032230

  Basis Set: AUG-CC-PVTZ
    Blend: AUG-CC-PVTZ
  Basis Set: (AUG-CC-PVTZ AUX)
    Blend: AUG-CC-PVTZ-JKFIT
	 Reference Energy          =    -343.8564528027400229 [Eh]
	 Singles Energy            =      -0.0000000000000000 [Eh]
	 Same-Spin Energy          =      -0.3409358079786304 [Eh]
	 Opposite-Spin Energy      =      -1.0998923308047615 [Eh]
	 Correlation Energy        =      -1.4408281387833919 [Eh]
	 Total Energy              =    -345.2972809415234110 [Eh]

	 ================> DF-SCS-MP2 Energies <==================
	-----------------------------------------------------------
	 SCS Same-Spin Scale       =       0.3333333333333333 [-]
	 SCS Opposite-Spin Scale   =       1.2000000000000000 [-]
	 SCS Same-Spin Energy      =      -0.1136452693262101 [Eh]
	 SCS Opposite-Spin Energy  =      -1.3198707969657137 [Eh]
	 SCS Correlation Energy    =      -1.4335160662919240 [Eh]
	 SCS Total Energy          =    -345.2899688690319522 [Eh]
	-----------------------------------------------------------

  Dipole Moment: [D]
     X:    -0.4274      Y:    -1.1240      Z:     0.3351     Total:     1.2484

*** Psi4 exiting successfully. Buy a developer a beer!
