                               Psi4 1.3.2 release

  ==> Input File <==

--------------------------------------------------------------------------
#psi4
#
memory 32 gb

molecule  {
0 1
  O        2.5331200    -0.0725200     0.2027050
  O        0.8230440     1.2494390    -0.4327460
  C       -1.8165730    -0.1662430    -0.5903910
  C       -2.5841030     0.6523970     0.4513900
  C       -0.8656733    -1.0867656     0.1108784
  C        0.4138040    -1.0149060     0.3209930
  C        1.2159030     0.1700770    -0.0266570
  H       -2.5487041    -0.6708035    -1.2306224
  H       -1.2597500     0.5079260    -1.2382380
  H       -3.2919980     1.3271690    -0.0377650
  H       -1.8881090     1.2530680     1.0427000
  H       -3.1450010     0.0036210     1.1307380
  H       -1.3667210    -2.0751620     0.4099140
  H        0.9531490    -1.8065430     0.8308200
  H        2.9905100     0.7616870    -0.0298800
units angstrom
no_reorient  #important for SAPT in psi4, default
symmetry c1  #important for SAPT in psi4, default
}

set PROPERTIES_ORIGIN ["COM"]
properties('MP2/aug-cc-pvtz', properties = ['dipole'])
--------------------------------------------------------------------------

    Molecular point group: c1
  Charge       = 0
  Multiplicity = 1
  Basis Set: AUG-CC-PVTZ
    Blend: AUG-CC-PVTZ
  Basis Set: (AUG-CC-PVTZ AUX)
    Blend: AUG-CC-PVTZ-JKFIT

    Orbital Energies [Eh]
    ---------------------

    Doubly Occupied:

       1A    -20.611820     2A    -20.545383     3A    -11.388078
       4A    -11.268085     5A    -11.239063     6A    -11.231457
       7A    -11.219860     8A     -1.458784     9A     -1.353391
      10A     -1.112532    11A     -1.024494    12A     -0.905288
      13A     -0.842029    14A     -0.745997    15A     -0.709699
      16A     -0.678449    17A     -0.644992    18A     -0.628856
      19A     -0.604054    20A     -0.587089    21A     -0.557936
      22A     -0.525439    23A     -0.503366    24A     -0.494085
      25A     -0.482561    26A     -0.439485    27A     -0.392024

  @DF-RHF Final Energy:  -343.85064757601771

   => Energetics <=

    Nuclear Repulsion Energy =            293.7424397824253788
    One-Electron Energy =               -1050.7975875565036858
    Two-Electron Energy =                 413.2045001980605434
    Total Energy =                       -343.8506475760177068
  Basis Set: (AUG-CC-PVTZ AUX)
    Blend: AUG-CC-PVTZ-RI
    Molecular point group: c1

    Geometry (in Angstrom), charge = 0, multiplicity = 1:

       Center              X                  Y                   Z               Mass
    ------------   -----------------  -----------------  -----------------  -----------------
         O            2.529017710433    -0.080265181522     0.198711003878    15.994914619570
         O            0.818941710433     1.241693818478    -0.436739996122    15.994914619570
         C           -1.820675289567    -0.173988181522    -0.594384996122    12.000000000000
         C           -2.588205289567     0.644651818478     0.447396003878    12.000000000000
         C           -0.869775589567    -1.094510781522     0.106884403878    12.000000000000
         C            0.409701710433    -1.022651181522     0.316999003878    12.000000000000
         C            1.211800710433     0.162331818478    -0.030650996122    12.000000000000
         H           -2.552806389567    -0.678548681522    -1.234616396122     1.007825032230
         H           -1.263852289567     0.500180818478    -1.242231996122     1.007825032230
         H           -3.296100289567     1.319423818478    -0.041758996122     1.007825032230
         H           -1.892211289567     1.245322818478     1.038706003878     1.007825032230
         H           -3.149103289567    -0.004124181522     1.126744003878     1.007825032230
         H           -1.370823289567    -2.082907181522     0.405920003878     1.007825032230
         H            0.949046710433    -1.814288181522     0.826826003878     1.007825032230
         H            2.986407710433     0.753941818478    -0.033873996122     1.007825032230

  Basis Set: AUG-CC-PVTZ
    Blend: AUG-CC-PVTZ
  Basis Set: (AUG-CC-PVTZ AUX)
    Blend: AUG-CC-PVTZ-JKFIT
	 Reference Energy          =    -343.8506475760177068 [Eh]
	 Singles Energy            =      -0.0000000000000000 [Eh]
	 Same-Spin Energy          =      -0.3408615635999355 [Eh]
	 Opposite-Spin Energy      =      -1.0995576167268468 [Eh]
	 Correlation Energy        =      -1.4404191803267823 [Eh]
	 Total Energy              =    -345.2910667563444918 [Eh]

	 ================> DF-SCS-MP2 Energies <==================
	-----------------------------------------------------------
	 SCS Same-Spin Scale       =       0.3333333333333333 [-]
	 SCS Opposite-Spin Scale   =       1.2000000000000000 [-]
	 SCS Same-Spin Energy      =      -0.1136205211999785 [Eh]
	 SCS Opposite-Spin Energy  =      -1.3194691400722161 [Eh]
	 SCS Correlation Energy    =      -1.4330896612721946 [Eh]
	 SCS Total Energy          =    -345.2837372372899267 [Eh]
	-----------------------------------------------------------

  Dipole Moment: [D]
     X:    -0.3740      Y:    -1.0957      Z:     0.2809     Total:     1.1914

*** Psi4 exiting successfully. Buy a developer a beer!
