                               Psi4 1.3.2 release

  ==> Input File <==

--------------------------------------------------------------------------
#psi4
#
memory 32 gb

molecule  {
0 1
  O        2.5331200    -0.0725200     0.2027050
  O        0.8230440     1.2494390    -0.4327460
  C       -1.8165730    -0.1662430    -0.5903910
  C       -2.5841030     0.6523970     0.4513900
  C       -0.9003636    -1.1897910     0.0958426
  C        0.4138040    -1.0149060     0.3209930
  C        1.2571883     0.1468788    -0.0066760
  H       -2.5251580    -0.7208810    -1.2155130
  H       -1.2597500     0.5079260    -1.2382380
  H       -3.2919980     1.3271690    -0.0377650
  H       -1.8881090     1.2530680     1.0427000
  H       -3.1450010     0.0036210     1.1307380
  H       -1.3667210    -2.0751620     0.4099140
  H        0.9531490    -1.8065430     0.8308200
  H        2.9905100     0.7616870    -0.0298800
units angstrom
no_reorient  #important for SAPT in psi4, default
symmetry c1  #important for SAPT in psi4, default
}

set PROPERTIES_ORIGIN ["COM"]
properties('MP2/aug-cc-pvtz', properties = ['dipole'])
--------------------------------------------------------------------------

    Molecular point group: c1
  Charge       = 0
  Multiplicity = 1
  Basis Set: AUG-CC-PVTZ
    Blend: AUG-CC-PVTZ
  Basis Set: (AUG-CC-PVTZ AUX)
    Blend: AUG-CC-PVTZ-JKFIT

    Orbital Energies [Eh]
    ---------------------

    Doubly Occupied:

       1A    -20.626004     2A    -20.535981     3A    -11.392140
       4A    -11.269399     5A    -11.243544     6A    -11.230625
       7A    -11.217981     8A     -1.476475     9A     -1.333674
      10A     -1.099773    11A     -1.017002    12A     -0.915556
      13A     -0.841076    14A     -0.767731    15A     -0.709979
      16A     -0.673501    17A     -0.652319    18A     -0.637987
      19A     -0.594690    20A     -0.581378    21A     -0.564817
      22A     -0.521856    23A     -0.498933    24A     -0.487575
      25A     -0.471774    26A     -0.440772    27A     -0.380302

  @DF-RHF Final Energy:  -343.84930070412162

   => Energetics <=

    Nuclear Repulsion Energy =            292.0702131555297569
    One-Electron Energy =               -1047.4733368456240896
    Two-Electron Energy =                 411.5538229859727721
    Total Energy =                       -343.8493007041216174
  Basis Set: (AUG-CC-PVTZ AUX)
    Blend: AUG-CC-PVTZ-RI
    Molecular point group: c1

    Geometry (in Angstrom), charge = 0, multiplicity = 1:

       Center              X                  Y                   Z               Mass
    ------------   -----------------  -----------------  -----------------  -----------------
         O            2.527989546004    -0.064621857658     0.197965694324    15.994914619570
         O            0.817913546004     1.257337142342    -0.437485305676    15.994914619570
         C           -1.821703453996    -0.158344857658    -0.595130305676    12.000000000000
         C           -2.589233453996     0.660295142342     0.446650694324    12.000000000000
         C           -0.905494053996    -1.181892857658     0.091103294324    12.000000000000
         C            0.408673546004    -1.007007857658     0.316253694324    12.000000000000
         C            1.252057846004     0.154776942342    -0.011415305676    12.000000000000
         H           -2.530288453996    -0.712982857658    -1.220252305676     1.007825032230
         H           -1.264880453996     0.515824142342    -1.242977305676     1.007825032230
         H           -3.297128453996     1.335067142342    -0.042504305676     1.007825032230
         H           -1.893239453996     1.260966142342     1.037960694324     1.007825032230
         H           -3.150131453996     0.011519142342     1.125998694324     1.007825032230
         H           -1.371851453996    -2.067263857658     0.405174694324     1.007825032230
         H            0.948018546004    -1.798644857658     0.826080694324     1.007825032230
         H            2.985379546004     0.769585142342    -0.034619305676     1.007825032230

  Basis Set: AUG-CC-PVTZ
    Blend: AUG-CC-PVTZ
  Basis Set: (AUG-CC-PVTZ AUX)
    Blend: AUG-CC-PVTZ-JKFIT
	 Reference Energy          =    -343.8493007041216174 [Eh]
	 Singles Energy            =      -0.0000000000000000 [Eh]
	 Same-Spin Energy          =      -0.3410765048626520 [Eh]
	 Opposite-Spin Energy      =      -1.1004526182898773 [Eh]
	 Correlation Energy        =      -1.4415291231525293 [Eh]
	 Total Energy              =    -345.2908298272741376 [Eh]

	 ================> DF-SCS-MP2 Energies <==================
	-----------------------------------------------------------
	 SCS Same-Spin Scale       =       0.3333333333333333 [-]
	 SCS Opposite-Spin Scale   =       1.2000000000000000 [-]
	 SCS Same-Spin Energy      =      -0.1136921682875507 [Eh]
	 SCS Opposite-Spin Energy  =      -1.3205431419478526 [Eh]
	 SCS Correlation Energy    =      -1.4342353102354033 [Eh]
	 SCS Total Energy          =    -345.2835360143570256 [Eh]
	-----------------------------------------------------------

  Dipole Moment: [D]
     X:     0.0260      Y:    -1.3133      Z:     0.4509     Total:     1.3888

*** Psi4 exiting successfully. Buy a developer a beer!
