                               Psi4 1.3.2 release

  ==> Input File <==

--------------------------------------------------------------------------
#psi4
#
memory 32 gb

molecule  {
0 1
  O        2.5331200    -0.0725200     0.2027050
  O        0.8230440     1.2494390    -0.4327460
  C       -1.8165730    -0.1662430    -0.5903910
  C       -2.5841030     0.6523970     0.4513900
  C       -0.9018550    -1.1471370     0.0763090
  C        0.4138040    -1.0149060     0.3209930
  C        1.3128379     0.1522241    -0.0097781
  H       -2.5251580    -0.7208810    -1.2155130
  H       -1.2597500     0.5079260    -1.2382380
  H       -3.2919980     1.3271690    -0.0377650
  H       -1.8881090     1.2530680     1.0427000
  H       -3.1450010     0.0036210     1.1307380
  H       -1.3667210    -2.0751620     0.4099140
  H        0.9531490    -1.8065430     0.8308200
  H        2.9905100     0.7616870    -0.0298800
units angstrom
no_reorient  #important for SAPT in psi4, default
symmetry c1  #important for SAPT in psi4, default
}

set PROPERTIES_ORIGIN ["COM"]
properties('MP2/aug-cc-pvtz', properties = ['dipole'])
--------------------------------------------------------------------------

    Molecular point group: c1
  Charge       = 0
  Multiplicity = 1
  Basis Set: AUG-CC-PVTZ
    Blend: AUG-CC-PVTZ
  Basis Set: (AUG-CC-PVTZ AUX)
    Blend: AUG-CC-PVTZ-JKFIT

    Orbital Energies [Eh]
    ---------------------

    Doubly Occupied:

       1A    -20.641069     2A    -20.530257     3A    -11.391926
       4A    -11.266014     5A    -11.242506     6A    -11.225700
       7A    -11.216244     8A     -1.508890     9A     -1.326695
      10A     -1.097029    11A     -1.013189    12A     -0.916925
      13A     -0.847385    14A     -0.768348    15A     -0.718817
      16A     -0.673685    17A     -0.659576    18A     -0.649020
      19A     -0.593985    20A     -0.574814    21A     -0.553352
      22A     -0.521424    23A     -0.497752    24A     -0.488548
      25A     -0.467095    26A     -0.433763    27A     -0.374795

  @DF-RHF Final Energy:  -343.84277512044076

   => Energetics <=

    Nuclear Repulsion Energy =            292.5168657507160219
    One-Electron Energy =               -1048.3216727423991870
    Two-Electron Energy =                 411.9620318712423455
    Total Energy =                       -343.8427751204407627
  Basis Set: (AUG-CC-PVTZ AUX)
    Blend: AUG-CC-PVTZ-RI
    Molecular point group: c1

    Geometry (in Angstrom), charge = 0, multiplicity = 1:

       Center              X                  Y                   Z               Mass
    ------------   -----------------  -----------------  -----------------  -----------------
         O            2.521493967604    -0.070378755345     0.200680554937    15.994914619570
         O            0.811417967604     1.251580244655    -0.434770445063    15.994914619570
         C           -1.828199032396    -0.164101755345    -0.592415445063    12.000000000000
         C           -2.595729032396     0.654538244655     0.449365554937    12.000000000000
         C           -0.913481032396    -1.144995755345     0.074284554937    12.000000000000
         C            0.402177967604    -1.012764755345     0.318968554937    12.000000000000
         C            1.301211867604     0.154365344655    -0.011802545063    12.000000000000
         H           -2.536784032396    -0.718739755345    -1.217537445063     1.007825032230
         H           -1.271376032396     0.510067244655    -1.240262445063     1.007825032230
         H           -3.303624032396     1.329310244655    -0.039789445063     1.007825032230
         H           -1.899735032396     1.255209244655     1.040675554937     1.007825032230
         H           -3.156627032396     0.005762244655     1.128713554937     1.007825032230
         H           -1.378347032396    -2.073020755345     0.407889554937     1.007825032230
         H            0.941522967604    -1.804401755345     0.828795554937     1.007825032230
         H            2.978883967604     0.763828244655    -0.031904445063     1.007825032230

  Basis Set: AUG-CC-PVTZ
    Blend: AUG-CC-PVTZ
  Basis Set: (AUG-CC-PVTZ AUX)
    Blend: AUG-CC-PVTZ-JKFIT
	 Reference Energy          =    -343.8427751204407627 [Eh]
	 Singles Energy            =      -0.0000000000000000 [Eh]
	 Same-Spin Energy          =      -0.3412420935662435 [Eh]
	 Opposite-Spin Energy      =      -1.1000881906001931 [Eh]
	 Correlation Energy        =      -1.4413302841664366 [Eh]
	 Total Energy              =    -345.2841054046072031 [Eh]

	 ================> DF-SCS-MP2 Energies <==================
	-----------------------------------------------------------
	 SCS Same-Spin Scale       =       0.3333333333333333 [-]
	 SCS Opposite-Spin Scale   =       1.2000000000000000 [-]
	 SCS Same-Spin Energy      =      -0.1137473645220812 [Eh]
	 SCS Opposite-Spin Energy  =      -1.3201058287202316 [Eh]
	 SCS Correlation Energy    =      -1.4338531932423129 [Eh]
	 SCS Total Energy          =    -345.2766283136830907 [Eh]
	-----------------------------------------------------------

  Dipole Moment: [D]
     X:     0.5052      Y:    -1.2845      Z:     0.4763     Total:     1.4601

*** Psi4 exiting successfully. Buy a developer a beer!
