                               Psi4 1.3.2 release

  ==> Input File <==

--------------------------------------------------------------------------
#psi4
#
memory 32 gb

molecule  {
0 1
  O        2.5331200    -0.0725200     0.2027050
  O        0.8230440     1.2494390    -0.4327460
  C       -1.8165730    -0.1662430    -0.5903910
  C       -2.5841030     0.6523970     0.4513900
  C       -0.9018550    -1.1471370     0.0763090
  C        0.4138040    -1.0149060     0.3209930
  C        1.4097728     0.1343712     0.0071008
  H       -2.5251580    -0.7208810    -1.2155130
  H       -1.2597500     0.5079260    -1.2382380
  H       -3.2919980     1.3271690    -0.0377650
  H       -1.8881090     1.2530680     1.0427000
  H       -3.1450010     0.0036210     1.1307380
  H       -1.3667210    -2.0751620     0.4099140
  H        0.9531490    -1.8065430     0.8308200
  H        2.9905100     0.7616870    -0.0298800
units angstrom
no_reorient  #important for SAPT in psi4, default
symmetry c1  #important for SAPT in psi4, default
}

set PROPERTIES_ORIGIN ["COM"]
properties('MP2/aug-cc-pvtz', properties = ['dipole'])
--------------------------------------------------------------------------

    Molecular point group: c1
  Charge       = 0
  Multiplicity = 1
  Basis Set: AUG-CC-PVTZ
    Blend: AUG-CC-PVTZ
  Basis Set: (AUG-CC-PVTZ AUX)
    Blend: AUG-CC-PVTZ-JKFIT

    Orbital Energies [Eh]
    ---------------------

    Doubly Occupied:

       1A    -20.670973     2A    -20.514595     3A    -11.394958
       4A    -11.261205     5A    -11.242629     6A    -11.219982
       7A    -11.211377     8A     -1.584582     9A     -1.288199
      10A     -1.089463    11A     -1.008815    12A     -0.938141
      13A     -0.854779    14A     -0.786557    15A     -0.740189
      16A     -0.704327    17A     -0.665256    18A     -0.650414
      19A     -0.586806    20A     -0.567760    21A     -0.532988
      22A     -0.512013    23A     -0.489622    24A     -0.481444
      25A     -0.447054    26A     -0.417073    27A     -0.368779

  @DF-RHF Final Energy:  -343.79468743740370

   => Energetics <=

    Nuclear Repulsion Energy =            292.4781389889958518
    One-Electron Energy =               -1048.0856951862292590
    Two-Electron Energy =                 411.8128687598297120
    Total Energy =                       -343.7946874374036952
  Basis Set: (AUG-CC-PVTZ AUX)
    Blend: AUG-CC-PVTZ-RI
    Molecular point group: c1

    Geometry (in Angstrom), charge = 0, multiplicity = 1:

       Center              X                  Y                   Z               Mass
    ------------   -----------------  -----------------  -----------------  -----------------
         O            2.509867875105    -0.068237529979     0.198656148323    15.994914619570
         O            0.799791875105     1.253721470021    -0.436794851677    15.994914619570
         C           -1.839825124895    -0.161960529979    -0.594439851677    12.000000000000
         C           -2.607355124895     0.656679470021     0.447341148323    12.000000000000
         C           -0.925107124895    -1.142854529979     0.072260148323    12.000000000000
         C            0.390551875105    -1.010623529979     0.316944148323    12.000000000000
         C            1.386520675105     0.138653670021     0.003051948323    12.000000000000
         H           -2.548410124895    -0.716598529979    -1.219561851677     1.007825032230
         H           -1.283002124895     0.512208470021    -1.242286851677     1.007825032230
         H           -3.315250124895     1.331451470021    -0.041813851677     1.007825032230
         H           -1.911361124895     1.257350470021     1.038651148323     1.007825032230
         H           -3.168253124895     0.007903470021     1.126689148323     1.007825032230
         H           -1.389973124895    -2.070879529979     0.405865148323     1.007825032230
         H            0.929896875105    -1.802260529979     0.826771148323     1.007825032230
         H            2.967257875105     0.765969470021    -0.033928851677     1.007825032230

  Basis Set: AUG-CC-PVTZ
    Blend: AUG-CC-PVTZ
  Basis Set: (AUG-CC-PVTZ AUX)
    Blend: AUG-CC-PVTZ-JKFIT
	 Reference Energy          =    -343.7946874374036952 [Eh]
	 Singles Energy            =      -0.0000000000000000 [Eh]
	 Same-Spin Energy          =      -0.3418060130224736 [Eh]
	 Opposite-Spin Energy      =      -1.1007626782588853 [Eh]
	 Correlation Energy        =      -1.4425686912813589 [Eh]
	 Total Energy              =    -345.2372561286850328 [Eh]

	 ================> DF-SCS-MP2 Energies <==================
	-----------------------------------------------------------
	 SCS Same-Spin Scale       =       0.3333333333333333 [-]
	 SCS Opposite-Spin Scale   =       1.2000000000000000 [-]
	 SCS Same-Spin Energy      =      -0.1139353376741579 [Eh]
	 SCS Opposite-Spin Energy  =      -1.3209152139106624 [Eh]
	 SCS Correlation Energy    =      -1.4348505515848202 [Eh]
	 SCS Total Energy          =    -345.2295379889885112 [Eh]
	-----------------------------------------------------------

  Dipole Moment: [D]
     X:     1.4034      Y:    -1.4997      Z:     0.6332     Total:     2.1493

*** Psi4 exiting successfully. Buy a developer a beer!
