                               Psi4 1.3.2 release

  ==> Input File <==

--------------------------------------------------------------------------
#psi4
#
memory 32 gb

molecule  {
0 1
  O        2.5381765    -0.0503858     0.1958509
  O        0.8431040     1.2564894    -0.4328562
  C       -1.8165730    -0.1662430    -0.5903910
  C       -2.5841030     0.6523970     0.4513900
  C       -0.9018550    -1.1471370     0.0763090
  C        0.4138040    -1.0149060     0.3209930
  C        1.2159030     0.1700770    -0.0266570
  H       -2.5251580    -0.7208810    -1.2155130
  H       -1.2597500     0.5079260    -1.2382380
  H       -3.2919980     1.3271690    -0.0377650
  H       -1.8881090     1.2530680     1.0427000
  H       -3.1450010     0.0036210     1.1307380
  H       -1.3667210    -2.0751620     0.4099140
  H        0.9531490    -1.8065430     0.8308200
  H        2.9905100     0.7616870    -0.0298800
units angstrom
no_reorient  #important for SAPT in psi4, default
symmetry c1  #important for SAPT in psi4, default
}

set PROPERTIES_ORIGIN ["COM"]
properties('MP2/aug-cc-pvtz', properties = ['dipole'])
--------------------------------------------------------------------------

    Molecular point group: c1
  Charge       = 0
  Multiplicity = 1
  Basis Set: AUG-CC-PVTZ
    Blend: AUG-CC-PVTZ
  Basis Set: (AUG-CC-PVTZ AUX)
    Blend: AUG-CC-PVTZ-JKFIT

    Orbital Energies [Eh]
    ---------------------

    Doubly Occupied:

       1A    -20.606244     2A    -20.543008     3A    -11.388048
       4A    -11.272555     5A    -11.245261     6A    -11.232623
       7A    -11.221897     8A     -1.460199     9A     -1.350856
      10A     -1.107037    11A     -1.021119    12A     -0.911127
      13A     -0.842178    14A     -0.755772    15A     -0.707424
      16A     -0.674433    17A     -0.648203    18A     -0.627231
      19A     -0.602064    20A     -0.584149    21A     -0.566796
      22A     -0.528485    23A     -0.504202    24A     -0.495905
      25A     -0.480475    26A     -0.444302    27A     -0.382425

  @DF-RHF Final Energy:  -343.85785348192235

   => Energetics <=

    Nuclear Repulsion Energy =            292.7334441004086329
    One-Electron Energy =               -1048.7745582066615952
    Two-Electron Energy =                 412.1832606243306145
    Total Energy =                       -343.8578534819223478
  Basis Set: (AUG-CC-PVTZ AUX)
    Blend: AUG-CC-PVTZ-RI
    Molecular point group: c1

    Geometry (in Angstrom), charge = 0, multiplicity = 1:

       Center              X                  Y                   Z               Mass
    ------------   -----------------  -----------------  -----------------  -----------------
         O            2.534161302551    -0.055051386410     0.196964211665    15.994914619570
         O            0.839088802551     1.251823813590    -0.431742888335    15.994914619570
         C           -1.820588197449    -0.170908586410    -0.589277688335    12.000000000000
         C           -2.588118197449     0.647731413590     0.452503311665    12.000000000000
         C           -0.905870197449    -1.151802586410     0.077422311665    12.000000000000
         C            0.409788802551    -1.019571586410     0.322106311665    12.000000000000
         C            1.211887802551     0.165411413590    -0.025543688335    12.000000000000
         H           -2.529173197449    -0.725546586410    -1.214399688335     1.007825032230
         H           -1.263765197449     0.503260413590    -1.237124688335     1.007825032230
         H           -3.296013197449     1.322503413590    -0.036651688335     1.007825032230
         H           -1.892124197449     1.248402413590     1.043813311665     1.007825032230
         H           -3.149016197449    -0.001044586410     1.131851311665     1.007825032230
         H           -1.370736197449    -2.079827586410     0.411027311665     1.007825032230
         H            0.949133802551    -1.811208586410     0.831933311665     1.007825032230
         H            2.986494802551     0.757021413590    -0.028766688335     1.007825032230

  Basis Set: AUG-CC-PVTZ
    Blend: AUG-CC-PVTZ
  Basis Set: (AUG-CC-PVTZ AUX)
    Blend: AUG-CC-PVTZ-JKFIT
	 Reference Energy          =    -343.8578534819223478 [Eh]
	 Singles Energy            =      -0.0000000000000000 [Eh]
	 Same-Spin Energy          =      -0.3404186097965916 [Eh]
	 Opposite-Spin Energy      =      -1.0987974123909559 [Eh]
	 Correlation Energy        =      -1.4392160221875474 [Eh]
	 Total Energy              =    -345.2970695041099134 [Eh]

	 ================> DF-SCS-MP2 Energies <==================
	-----------------------------------------------------------
	 SCS Same-Spin Scale       =       0.3333333333333333 [-]
	 SCS Opposite-Spin Scale   =       1.2000000000000000 [-]
	 SCS Same-Spin Energy      =      -0.1134728699321972 [Eh]
	 SCS Opposite-Spin Energy  =      -1.3185568948691471 [Eh]
	 SCS Correlation Energy    =      -1.4320297648013443 [Eh]
	 SCS Total Energy          =    -345.2898832467237185 [Eh]
	-----------------------------------------------------------

  Dipole Moment: [D]
     X:    -0.5338      Y:    -1.1872      Z:     0.3453     Total:     1.3467

*** Psi4 exiting successfully. Buy a developer a beer!
