                               Psi4 1.4a3.dev225

  ==> Input File <==

--------------------------------------------------------------------------
#psi4
#
memory 32 gb

molecule  {
0 1
  O        2.6043210     0.0828630    -0.1445960
  O        0.8461570    -1.2916990     0.2386850
  C       -1.7394130     0.0979440     0.6095950
  C       -2.3802920    -0.6692310    -0.5542970
  C       -0.8230420     1.1744430     0.1086050
  C        0.4895550     1.0683010    -0.1734410
  C        1.2986968    -0.2107937     0.0086431
  H       -2.5220070     0.5621210     1.2198080
  H       -1.1892610    -0.6035630     1.2386490
  H       -3.0933810    -1.4091330    -0.1797240
  H       -1.6064800    -1.1915300    -1.1205690
  H       -2.9131760     0.0061510    -1.2301320
  H       -1.2820910     2.1452700    -0.0812320
  H        1.0432440     1.9287000    -0.5363220
  H        3.0455250    -0.7830240    -0.0219810
units angstrom
no_reorient  #important for SAPT in psi4, default
symmetry c1  #important for SAPT in psi4, default
}

set PROPERTIES_ORIGIN ["COM"]
properties('MP2/aug-cc-pvtz', properties = ['dipole'])
--------------------------------------------------------------------------

    Molecular point group: c1
  Charge       = 0
  Multiplicity = 1
  Basis Set: AUG-CC-PVTZ
    Blend: AUG-CC-PVTZ
  Basis Set: (AUG-CC-PVTZ AUX)
    Blend: AUG-CC-PVTZ-JKFIT

    Orbital Energies [Eh]
    ---------------------

    Doubly Occupied:

       1A    -20.618246     2A    -20.550452     3A    -11.389434
       4A    -11.263763     5A    -11.243015     6A    -11.229334
       7A    -11.217067     8A     -1.470664     9A     -1.372373
      10A     -1.097448    11A     -1.010039    12A     -0.901028
      13A     -0.837626    14A     -0.750947    15A     -0.712551
      16A     -0.676334    17A     -0.649246    18A     -0.636142
      19A     -0.599799    20A     -0.578708    21A     -0.566938
      22A     -0.524315    23A     -0.502067    24A     -0.498462
      25A     -0.484359    26A     -0.443168    27A     -0.376054

  @DF-RHF Final Energy:  -343.85518523961838

   => Energetics <=

    Nuclear Repulsion Energy =            293.8097536392731968
    One-Electron Energy =               -1050.9307199071433843
    Two-Electron Energy =                 413.2657810282518653
    Total Energy =                       -343.8551852396183790
  Basis Set: (AUG-CC-PVTZ AUX)
    Blend: AUG-CC-PVTZ-RI
    Molecular point group: c1

    Geometry (in Angstrom), charge = 0, multiplicity = 1:

       Center              X                  Y                   Z               Mass
    ------------   -----------------  -----------------  -----------------  -----------------
         O            2.516848052617     0.094328505449    -0.152363289527    15.994914619570
         O            0.758684052617    -1.280233494551     0.230917710473    15.994914619570
         C           -1.826885947383     0.109409505449     0.601827710473    12.000000000000
         C           -2.467764947383    -0.657765494551    -0.562064289527    12.000000000000
         C           -0.910514947383     1.185908505449     0.100837710473    12.000000000000
         C            0.402082052617     1.079766505449    -0.181208289527    12.000000000000
         C            1.211223852617    -0.199328194551     0.000875810473    12.000000000000
         H           -2.609479947383     0.573586505449     1.212040710473     1.007825032230
         H           -1.276733947383    -0.592097494551     1.230881710473     1.007825032230
         H           -3.180853947383    -1.397667494551    -0.187491289527     1.007825032230
         H           -1.693952947383    -1.180064494551    -1.128336289527     1.007825032230
         H           -3.000648947383     0.017616505449    -1.237899289527     1.007825032230
         H           -1.369563947383     2.156735505449    -0.088999289527     1.007825032230
         H            0.955771052617     1.940165505449    -0.544089289527     1.007825032230
         H            2.958052052617    -0.771558494551    -0.029748289527     1.007825032230

  Basis Set: AUG-CC-PVTZ
    Blend: AUG-CC-PVTZ
  Basis Set: (AUG-CC-PVTZ AUX)
    Blend: AUG-CC-PVTZ-JKFIT
	 Reference Energy          =    -343.8551852396183790 [Eh]
	 Singles Energy            =      -0.0000000000000000 [Eh]
	 Same-Spin Energy          =      -0.3404311011826897 [Eh]
	 Opposite-Spin Energy      =      -1.0992933782963572 [Eh]
	 Correlation Energy        =      -1.4397244794790469 [Eh]
	 Total Energy              =    -345.2949097190974044 [Eh]

	 ================> DF-SCS-MP2 Energies <==================
	-----------------------------------------------------------
	 SCS Same-Spin Scale       =       0.3333333333333333 [-]
	 SCS Opposite-Spin Scale   =       1.2000000000000000 [-]
	 SCS Same-Spin Energy      =      -0.1134770337275632 [Eh]
	 SCS Opposite-Spin Energy  =      -1.3191520539556285 [Eh]
	 SCS Correlation Energy    =      -1.4326290876831917 [Eh]
	 SCS Total Energy          =    -345.2878143273015894 [Eh]
	-----------------------------------------------------------

  Dipole Moment: [D]
     X:    -0.0663      Y:     0.9157      Z:    -0.1118     Total:     0.9249

*** Psi4 exiting successfully. Buy a developer a beer!
