                               Psi4 1.4a3.dev225

  ==> Input File <==

--------------------------------------------------------------------------
#psi4
#
memory 32 gb

molecule  {
0 1
  O        2.6043210     0.0828630    -0.1445960
  O        0.8461570    -1.2916990     0.2386850
  C       -1.7394130     0.0979440     0.6095950
  C       -2.3802920    -0.6692310    -0.5542970
  C       -0.8230420     1.1744430     0.1086050
  C        0.4895550     1.0683010    -0.1734410
  C        1.2721580    -0.1688410     0.0026710
  H       -2.5220070     0.5621210     1.2198080
  H       -1.1892610    -0.6035630     1.2386490
  H       -3.0933810    -1.4091330    -0.1797240
  H       -1.6064800    -1.1915300    -1.1205690
  H       -2.9131760     0.0061510    -1.2301320
  H       -1.2736722     2.1274654    -0.0777505
  H        1.0432440     1.9287000    -0.5363220
  H        3.0455250    -0.7830240    -0.0219810
units angstrom
no_reorient  #important for SAPT in psi4, default
symmetry c1  #important for SAPT in psi4, default
}

set PROPERTIES_ORIGIN ["COM"]
properties('MP2/aug-cc-pvtz', properties = ['dipole'])
--------------------------------------------------------------------------

    Molecular point group: c1
  Charge       = 0
  Multiplicity = 1
  Basis Set: AUG-CC-PVTZ
    Blend: AUG-CC-PVTZ
  Basis Set: (AUG-CC-PVTZ AUX)
    Blend: AUG-CC-PVTZ-JKFIT

    Orbital Energies [Eh]
    ---------------------

    Doubly Occupied:

       1A    -20.612115     2A    -20.545308     3A    -11.389999
       4A    -11.269281     5A    -11.244063     6A    -11.231915
       7A    -11.219108     8A     -1.455103     9A     -1.350846
      10A     -1.105264    11A     -1.017664    12A     -0.908987
      13A     -0.839477    14A     -0.753082    15A     -0.707743
      16A     -0.674002    17A     -0.647099    18A     -0.626158
      19A     -0.600129    20A     -0.579813    21A     -0.569499
      22A     -0.526343    23A     -0.502508    24A     -0.496071
      25A     -0.479384    26A     -0.445145    27A     -0.380538

  @DF-RHF Final Energy:  -343.85533130989188

   => Energetics <=

    Nuclear Repulsion Energy =            293.8351803084086100
    One-Electron Energy =               -1051.0277384750427245
    Two-Electron Energy =                 413.3372268567422907
    Total Energy =                       -343.8553313098918807
  Basis Set: (AUG-CC-PVTZ AUX)
    Blend: AUG-CC-PVTZ-RI
    Molecular point group: c1

    Geometry (in Angstrom), charge = 0, multiplicity = 1:

       Center              X                  Y                   Z               Mass
    ------------   -----------------  -----------------  -----------------  -----------------
         O            2.519946237481     0.089476164722    -0.151682082109    15.994914619570
         O            0.761782237481    -1.285085835278     0.231598917891    15.994914619570
         C           -1.823787762519     0.104557164722     0.602508917891    12.000000000000
         C           -2.464666762519    -0.662617835278    -0.561383082109    12.000000000000
         C           -0.907416762519     1.181056164722     0.101518917891    12.000000000000
         C            0.405180237481     1.074914164722    -0.180527082109    12.000000000000
         C            1.187783237481    -0.162227835278    -0.004415082109    12.000000000000
         H           -2.606381762519     0.568734164722     1.212721917891     1.007825032230
         H           -1.273635762519    -0.596949835278     1.231562917891     1.007825032230
         H           -3.177755762519    -1.402519835278    -0.186810082109     1.007825032230
         H           -1.690854762519    -1.184916835278    -1.127655082109     1.007825032230
         H           -2.997550762519     0.012764164722    -1.237218082109     1.007825032230
         H           -1.358046962519     2.134078564722    -0.084836582109     1.007825032230
         H            0.958869237481     1.935313164722    -0.543408082109     1.007825032230
         H            2.961150237481    -0.776410835278    -0.029067082109     1.007825032230

  Basis Set: AUG-CC-PVTZ
    Blend: AUG-CC-PVTZ
  Basis Set: (AUG-CC-PVTZ AUX)
    Blend: AUG-CC-PVTZ-JKFIT
	 Reference Energy          =    -343.8553313098918807 [Eh]
	 Singles Energy            =      -0.0000000000000000 [Eh]
	 Same-Spin Energy          =      -0.3412959030513575 [Eh]
	 Opposite-Spin Energy      =      -1.1006801743113632 [Eh]
	 Correlation Energy        =      -1.4419760773627208 [Eh]
	 Total Energy              =    -345.2973073872545910 [Eh]

	 ================> DF-SCS-MP2 Energies <==================
	-----------------------------------------------------------
	 SCS Same-Spin Scale       =       0.3333333333333333 [-]
	 SCS Opposite-Spin Scale   =       1.2000000000000000 [-]
	 SCS Same-Spin Energy      =      -0.1137653010171192 [Eh]
	 SCS Opposite-Spin Energy  =      -1.3208162091736357 [Eh]
	 SCS Correlation Energy    =      -1.4345815101907549 [Eh]
	 SCS Total Energy          =    -345.2899128200826340 [Eh]
	-----------------------------------------------------------

  Dipole Moment: [D]
     X:    -0.3541      Y:     1.1612      Z:    -0.1339     Total:     1.2213

*** Psi4 exiting successfully. Buy a developer a beer!
