                               Psi4 1.3.2 release

  ==> Input File <==

--------------------------------------------------------------------------
#psi4
#
memory 32 gb

molecule  {
0 1
  O        2.5331200    -0.0725200     0.2027050
  O        0.8230440     1.2494390    -0.4327460
  C       -1.8165730    -0.1662430    -0.5903910
  C       -2.5841030     0.6523970     0.4513900
  C       -0.9273754    -1.1859009     0.0522414
  C        0.4138040    -1.0149060     0.3209930
  C        1.2159030     0.1700770    -0.0266570
  H       -2.5083774    -0.7534297    -1.2044854
  H       -1.2597500     0.5079260    -1.2382380
  H       -3.2919980     1.3271690    -0.0377650
  H       -1.8881090     1.2530680     1.0427000
  H       -3.1450010     0.0036210     1.1307380
  H       -1.3667210    -2.0751620     0.4099140
  H        0.9531490    -1.8065430     0.8308200
  H        2.9905100     0.7616870    -0.0298800
units angstrom
no_reorient  #important for SAPT in psi4, default
symmetry c1  #important for SAPT in psi4, default
}

set PROPERTIES_ORIGIN ["COM"]
properties('MP2/aug-cc-pvtz', properties = ['dipole'])
--------------------------------------------------------------------------

    Molecular point group: c1
  Charge       = 0
  Multiplicity = 1
  Basis Set: AUG-CC-PVTZ
    Blend: AUG-CC-PVTZ
  Basis Set: (AUG-CC-PVTZ AUX)
    Blend: AUG-CC-PVTZ-JKFIT

    Orbital Energies [Eh]
    ---------------------

    Doubly Occupied:

       1A    -20.610963     2A    -20.544086     3A    -11.388358
       4A    -11.273572     5A    -11.246524     6A    -11.232085
       7A    -11.222121     8A     -1.457670     9A     -1.352116
      10A     -1.101813    11A     -1.016535    12A     -0.911857
      13A     -0.838784    14A     -0.757232    15A     -0.706792
      16A     -0.671339    17A     -0.647910    18A     -0.627318
      19A     -0.601609    20A     -0.580285    21A     -0.571323
      22A     -0.529760    23A     -0.506884    24A     -0.491962
      25A     -0.481089    26A     -0.446251    27A     -0.373564

  @DF-RHF Final Energy:  -343.85252634094212

   => Energetics <=

    Nuclear Repulsion Energy =            292.2033906451237613
    One-Electron Energy =               -1047.7322329607732172
    Two-Electron Energy =                 411.6763159747072791
    Total Energy =                       -343.8525263409421200
  Basis Set: (AUG-CC-PVTZ AUX)
    Blend: AUG-CC-PVTZ-RI
    Molecular point group: c1

    Geometry (in Angstrom), charge = 0, multiplicity = 1:

       Center              X                  Y                   Z               Mass
    ------------   -----------------  -----------------  -----------------  -----------------
         O            2.536011872852    -0.067542888230     0.205480479447    15.994914619570
         O            0.825935872852     1.254416111770    -0.429970520553    15.994914619570
         C           -1.813681127148    -0.161265888230    -0.587615520553    12.000000000000
         C           -2.581211127148     0.657374111770     0.454165479447    12.000000000000
         C           -0.924483527148    -1.180923788230     0.055016879447    12.000000000000
         C            0.416695872852    -1.009928888230     0.323768479447    12.000000000000
         C            1.218794872852     0.175054111770    -0.023881520553    12.000000000000
         H           -2.505485527148    -0.748452588230    -1.201709920553     1.007825032230
         H           -1.256858127148     0.512903111770    -1.235462520553     1.007825032230
         H           -3.289106127148     1.332146111770    -0.034989520553     1.007825032230
         H           -1.885217127148     1.258045111770     1.045475479447     1.007825032230
         H           -3.142109127148     0.008598111770     1.133513479447     1.007825032230
         H           -1.363829127148    -2.070184888230     0.412689479447     1.007825032230
         H            0.956040872852    -1.801565888230     0.833595479447     1.007825032230
         H            2.993401872852     0.766664111770    -0.027104520553     1.007825032230

  Basis Set: AUG-CC-PVTZ
    Blend: AUG-CC-PVTZ
  Basis Set: (AUG-CC-PVTZ AUX)
    Blend: AUG-CC-PVTZ-JKFIT
	 Reference Energy          =    -343.8525263409421200 [Eh]
	 Singles Energy            =      -0.0000000000000000 [Eh]
	 Same-Spin Energy          =      -0.3412391969290375 [Eh]
	 Opposite-Spin Energy      =      -1.1006920846757053 [Eh]
	 Correlation Energy        =      -1.4419312816047429 [Eh]
	 Total Energy              =    -345.2944576225468722 [Eh]

	 ================> DF-SCS-MP2 Energies <==================
	-----------------------------------------------------------
	 SCS Same-Spin Scale       =       0.3333333333333333 [-]
	 SCS Opposite-Spin Scale   =       1.2000000000000000 [-]
	 SCS Same-Spin Energy      =      -0.1137463989763458 [Eh]
	 SCS Opposite-Spin Energy  =      -1.3208305016108464 [Eh]
	 SCS Correlation Energy    =      -1.4345769005871922 [Eh]
	 SCS Total Energy          =    -345.2871032415293371 [Eh]
	-----------------------------------------------------------

  Dipole Moment: [D]
     X:    -0.4461      Y:    -1.1282      Z:     0.3688     Total:     1.2680

*** Psi4 exiting successfully. Buy a developer a beer!
