                               Psi4 1.4a3.dev225

  ==> Input File <==

--------------------------------------------------------------------------
#psi4
#
memory 32 gb

molecule  {
0 1
  O        2.6043210     0.0828630    -0.1445960
  O        0.8461570    -1.2916990     0.2386850
  C       -1.7394130     0.0979440     0.6095950
  C       -2.3802920    -0.6692310    -0.5542970
  C       -0.8230420     1.1744430     0.1086050
  C        0.4895550     1.0683010    -0.1734410
  C        1.3210014    -0.1596123    -0.0027285
  H       -2.5220070     0.5621210     1.2198080
  H       -1.1892610    -0.6035630     1.2386490
  H       -3.0933810    -1.4091330    -0.1797240
  H       -1.6064800    -1.1915300    -1.1205690
  H       -2.9131760     0.0061510    -1.2301320
  H       -1.2820910     2.1452700    -0.0812320
  H        1.0432440     1.9287000    -0.5363220
  H        3.0455250    -0.7830240    -0.0219810
units angstrom
no_reorient  #important for SAPT in psi4, default
symmetry c1  #important for SAPT in psi4, default
}

set PROPERTIES_ORIGIN ["COM"]
properties('MP2/aug-cc-pvtz', properties = ['dipole'])
--------------------------------------------------------------------------

    Molecular point group: c1
  Charge       = 0
  Multiplicity = 1
  Basis Set: AUG-CC-PVTZ
    Blend: AUG-CC-PVTZ
  Basis Set: (AUG-CC-PVTZ AUX)
    Blend: AUG-CC-PVTZ-JKFIT

    Orbital Energies [Eh]
    ---------------------

    Doubly Occupied:

       1A    -20.627111     2A    -20.538418     3A    -11.391989
       4A    -11.269120     5A    -11.243671     6A    -11.229159
       7A    -11.216539     8A     -1.476435     9A     -1.340591
      10A     -1.100224    11A     -1.014249    12A     -0.910553
      13A     -0.842752    14A     -0.758960    15A     -0.710638
      16A     -0.674975    17A     -0.649822    18A     -0.637933
      19A     -0.596302    20A     -0.575781    21A     -0.562386
      22A     -0.523303    23A     -0.499451    24A     -0.492542
      25A     -0.473194    26A     -0.440580    27A     -0.377434

  @DF-RHF Final Energy:  -343.85172531562989

   => Energetics <=

    Nuclear Repulsion Energy =            293.5435763641290237
    One-Electron Energy =               -1050.4423799246862927
    Two-Electron Energy =                 413.0470782449274338
    Total Energy =                       -343.8517253156298921
  Basis Set: (AUG-CC-PVTZ AUX)
    Blend: AUG-CC-PVTZ-RI
    Molecular point group: c1

    Geometry (in Angstrom), charge = 0, multiplicity = 1:

       Center              X                  Y                   Z               Mass
    ------------   -----------------  -----------------  -----------------  -----------------
         O            2.514172903185     0.088189955859    -0.150999412600    15.994914619570
         O            0.756008903185    -1.286372044141     0.232281587400    15.994914619570
         C           -1.829561096815     0.103270955859     0.603191587400    12.000000000000
         C           -2.470440096815    -0.663904044141    -0.560700412600    12.000000000000
         C           -0.913190096815     1.179769955859     0.102201587400    12.000000000000
         C            0.399406903185     1.073627955859    -0.179844412600    12.000000000000
         C            1.230853303185    -0.154285344141    -0.009131912600    12.000000000000
         H           -2.612155096815     0.567447955859     1.213404587400     1.007825032230
         H           -1.279409096815    -0.598236044141     1.232245587400     1.007825032230
         H           -3.183529096815    -1.403806044141    -0.186127412600     1.007825032230
         H           -1.696628096815    -1.186203044141    -1.126972412600     1.007825032230
         H           -3.003324096815     0.011477955859    -1.236535412600     1.007825032230
         H           -1.372239096815     2.150596955859    -0.087635412600     1.007825032230
         H            0.953095903185     1.934026955859    -0.542725412600     1.007825032230
         H            2.955376903185    -0.777697044141    -0.028384412600     1.007825032230

  Basis Set: AUG-CC-PVTZ
    Blend: AUG-CC-PVTZ
  Basis Set: (AUG-CC-PVTZ AUX)
    Blend: AUG-CC-PVTZ-JKFIT
	 Reference Energy          =    -343.8517253156298921 [Eh]
	 Singles Energy            =      -0.0000000000000000 [Eh]
	 Same-Spin Energy          =      -0.3414351546952811 [Eh]
	 Opposite-Spin Energy      =      -1.1008178964396484 [Eh]
	 Correlation Energy        =      -1.4422530511349296 [Eh]
	 Total Energy              =    -345.2939783667648044 [Eh]

	 ================> DF-SCS-MP2 Energies <==================
	-----------------------------------------------------------
	 SCS Same-Spin Scale       =       0.3333333333333333 [-]
	 SCS Opposite-Spin Scale   =       1.2000000000000000 [-]
	 SCS Same-Spin Energy      =      -0.1138117182317604 [Eh]
	 SCS Opposite-Spin Energy  =      -1.3209814757275782 [Eh]
	 SCS Correlation Energy    =      -1.4347931939593386 [Eh]
	 SCS Total Energy          =    -345.2865185095892571 [Eh]
	-----------------------------------------------------------

  Dipole Moment: [D]
     X:     0.1223      Y:     1.2316      Z:    -0.1780     Total:     1.2504

*** Psi4 exiting successfully. Buy a developer a beer!
