                               Psi4 1.3.2 release

  ==> Input File <==

--------------------------------------------------------------------------
#psi4
#
memory 32 gb

molecule  {
0 1
  O        2.5356985    -0.0614617     0.1992865
  O        0.8330594     1.2530054    -0.4328165
  C       -1.8165730    -0.1662430    -0.5903910
  C       -2.5841030     0.6523970     0.4513900
  C       -0.9018550    -1.1471370     0.0763090
  C        0.4138040    -1.0149060     0.3209930
  C        1.2159030     0.1700770    -0.0266570
  H       -2.5251580    -0.7208810    -1.2155130
  H       -1.2597500     0.5079260    -1.2382380
  H       -3.2919980     1.3271690    -0.0377650
  H       -1.8881090     1.2530680     1.0427000
  H       -3.1450010     0.0036210     1.1307380
  H       -1.3667210    -2.0751620     0.4099140
  H        0.9531490    -1.8065430     0.8308200
  H        2.9905100     0.7616870    -0.0298800
units angstrom
no_reorient  #important for SAPT in psi4, default
symmetry c1  #important for SAPT in psi4, default
}

set PROPERTIES_ORIGIN ["COM"]
properties('MP2/aug-cc-pvtz', properties = ['dipole'])
--------------------------------------------------------------------------

    Molecular point group: c1
  Charge       = 0
  Multiplicity = 1
  Basis Set: AUG-CC-PVTZ
    Blend: AUG-CC-PVTZ
  Basis Set: (AUG-CC-PVTZ AUX)
    Blend: AUG-CC-PVTZ-JKFIT

    Orbital Energies [Eh]
    ---------------------

    Doubly Occupied:

       1A    -20.608786     2A    -20.543777     3A    -11.388121
       4A    -11.271732     5A    -11.244247     6A    -11.232091
       7A    -11.221532     8A     -1.459106     9A     -1.351704
      10A     -1.106287    11A     -1.020438    12A     -0.910020
      13A     -0.841078    14A     -0.754048    15A     -0.707668
      16A     -0.674200    17A     -0.647662    18A     -0.627577
      19A     -0.601669    20A     -0.583799    21A     -0.566549
      22A     -0.528077    23A     -0.504099    24A     -0.495713
      25A     -0.481129    26A     -0.444299    27A     -0.381748

  @DF-RHF Final Energy:  -343.85747380190634

   => Energetics <=

    Nuclear Repulsion Energy =            292.7724240508581488
    One-Electron Energy =               -1048.8654828726262167
    Two-Electron Energy =                 412.2355850198617304
    Total Energy =                       -343.8574738019063375
  Basis Set: (AUG-CC-PVTZ AUX)
    Blend: AUG-CC-PVTZ-RI
    Molecular point group: c1

    Geometry (in Angstrom), charge = 0, multiplicity = 1:

       Center              X                  Y                   Z               Mass
    ------------   -----------------  -----------------  -----------------  -----------------
         O            2.533685232127    -0.063799663197     0.199844231685    15.994914619570
         O            0.831046132127     1.250667436803    -0.432258768315    15.994914619570
         C           -1.818586267873    -0.168580963197    -0.589833268315    12.000000000000
         C           -2.586116267873     0.650059036803     0.451947731685    12.000000000000
         C           -0.903868267873    -1.149474963197     0.076866731685    12.000000000000
         C            0.411790732127    -1.017243963197     0.321550731685    12.000000000000
         C            1.213889732127     0.167739036803    -0.026099268315    12.000000000000
         H           -2.527171267873    -0.723218963197    -1.214955268315     1.007825032230
         H           -1.261763267873     0.505588036803    -1.237680268315     1.007825032230
         H           -3.294011267873     1.324831036803    -0.037207268315     1.007825032230
         H           -1.890122267873     1.250730036803     1.043257731685     1.007825032230
         H           -3.147014267873     0.001283036803     1.131295731685     1.007825032230
         H           -1.368734267873    -2.077499963197     0.410471731685     1.007825032230
         H            0.951135732127    -1.808880963197     0.831377731685     1.007825032230
         H            2.988496732127     0.759349036803    -0.029322268315     1.007825032230

  Basis Set: AUG-CC-PVTZ
    Blend: AUG-CC-PVTZ
  Basis Set: (AUG-CC-PVTZ AUX)
    Blend: AUG-CC-PVTZ-JKFIT
	 Reference Energy          =    -343.8574738019063375 [Eh]
	 Singles Energy            =      -0.0000000000000000 [Eh]
	 Same-Spin Energy          =      -0.3406699540071930 [Eh]
	 Opposite-Spin Energy      =      -1.0993271775972078 [Eh]
	 Correlation Energy        =      -1.4399971316044007 [Eh]
	 Total Energy              =    -345.2974709335107377 [Eh]

	 ================> DF-SCS-MP2 Energies <==================
	-----------------------------------------------------------
	 SCS Same-Spin Scale       =       0.3333333333333333 [-]
	 SCS Opposite-Spin Scale   =       1.2000000000000000 [-]
	 SCS Same-Spin Energy      =      -0.1135566513357310 [Eh]
	 SCS Opposite-Spin Energy  =      -1.3191926131166494 [Eh]
	 SCS Correlation Energy    =      -1.4327492644523803 [Eh]
	 SCS Total Energy          =    -345.2902230663586920 [Eh]
	-----------------------------------------------------------

  Dipole Moment: [D]
     X:    -0.4793      Y:    -1.1546      Z:     0.3398     Total:     1.2955

*** Psi4 exiting successfully. Buy a developer a beer!
