                               Psi4 1.3.2 release

  ==> Input File <==

--------------------------------------------------------------------------
#psi4
#
memory 32 gb

molecule  {
0 1
  O        2.5331200    -0.0725200     0.2027050
  O        0.8230440     1.2494390    -0.4327460
  C       -1.8165730    -0.1662430    -0.5903910
  C       -2.5841030     0.6523970     0.4513900
  C       -0.9018550    -1.1471370     0.0763090
  C        0.4138040    -1.0149060     0.3209930
  C        1.2803957    -0.0071137     0.0400075
  H       -2.5251580    -0.7208810    -1.2155130
  H       -1.2597500     0.5079260    -1.2382380
  H       -3.2919980     1.3271690    -0.0377650
  H       -1.8881090     1.2530680     1.0427000
  H       -3.1450010     0.0036210     1.1307380
  H       -1.3667210    -2.0751620     0.4099140
  H        0.9531490    -1.8065430     0.8308200
  H        2.9905100     0.7616870    -0.0298800
units angstrom
no_reorient  #important for SAPT in psi4, default
symmetry c1  #important for SAPT in psi4, default
}

set PROPERTIES_ORIGIN ["COM"]
properties('MP2/aug-cc-pvtz', properties = ['dipole'])
--------------------------------------------------------------------------

    Molecular point group: c1
  Charge       = 0
  Multiplicity = 1
  Basis Set: AUG-CC-PVTZ
    Blend: AUG-CC-PVTZ
  Basis Set: (AUG-CC-PVTZ AUX)
    Blend: AUG-CC-PVTZ-JKFIT

    Orbital Energies [Eh]
    ---------------------

    Doubly Occupied:

       1A    -20.634982     2A    -20.500845     3A    -11.390440
       4A    -11.294320     5A    -11.242125     6A    -11.233332
       7A    -11.222424     8A     -1.490712     9A     -1.237652
      10A     -1.118838    11A     -1.038755    12A     -0.939370
      13A     -0.855504    14A     -0.793006    15A     -0.706104
      16A     -0.674988    17A     -0.667694    18A     -0.643905
      19A     -0.596485    20A     -0.578448    21A     -0.536126
      22A     -0.514807    23A     -0.493679    24A     -0.489767
      25A     -0.439183    26A     -0.411314    27A     -0.374960

  @DF-RHF Final Energy:  -343.79155403094745

   => Energetics <=

    Nuclear Repulsion Energy =            292.2765413015027320
    One-Electron Energy =               -1047.8966621527283678
    Two-Electron Energy =                 411.8285668202782404
    Total Energy =                       -343.7915540309474522
  Basis Set: (AUG-CC-PVTZ AUX)
    Blend: AUG-CC-PVTZ-RI
    Molecular point group: c1

    Geometry (in Angstrom), charge = 0, multiplicity = 1:

       Center              X                  Y                   Z               Mass
    ------------   -----------------  -----------------  -----------------  -----------------
         O            2.525384991559    -0.051268238893     0.194709413576    15.994914619570
         O            0.815308991559     1.270690761107    -0.440741586424    15.994914619570
         C           -1.824308008441    -0.144991238893    -0.598386586424    12.000000000000
         C           -2.591838008441     0.673648761107     0.443394413576    12.000000000000
         C           -0.909590008441    -1.125885238893     0.068313413576    12.000000000000
         C            0.406068991559    -0.993654238893     0.312997413576    12.000000000000
         C            1.272660691559     0.014138061107     0.032011913576    12.000000000000
         H           -2.532893008441    -0.699629238893    -1.223508586424     1.007825032230
         H           -1.267485008441     0.529177761107    -1.246233586424     1.007825032230
         H           -3.299733008441     1.348420761107    -0.045760586424     1.007825032230
         H           -1.895844008441     1.274319761107     1.034704413576     1.007825032230
         H           -3.152736008441     0.024872761107     1.122742413576     1.007825032230
         H           -1.374456008441    -2.053910238893     0.401918413576     1.007825032230
         H            0.945413991559    -1.785291238893     0.822824413576     1.007825032230
         H            2.982774991559     0.782938761107    -0.037875586424     1.007825032230

  Basis Set: AUG-CC-PVTZ
    Blend: AUG-CC-PVTZ
  Basis Set: (AUG-CC-PVTZ AUX)
    Blend: AUG-CC-PVTZ-JKFIT
	 Reference Energy          =    -343.7915540309474522 [Eh]
	 Singles Energy            =      -0.0000000000000000 [Eh]
	 Same-Spin Energy          =      -0.3452061734511795 [Eh]
	 Opposite-Spin Energy      =      -1.1066659161429120 [Eh]
	 Correlation Energy        =      -1.4518720895940915 [Eh]
	 Total Energy              =    -345.2434261205415282 [Eh]

	 ================> DF-SCS-MP2 Energies <==================
	-----------------------------------------------------------
	 SCS Same-Spin Scale       =       0.3333333333333333 [-]
	 SCS Opposite-Spin Scale   =       1.2000000000000000 [-]
	 SCS Same-Spin Energy      =      -0.1150687244837265 [Eh]
	 SCS Opposite-Spin Energy  =      -1.3279990993714943 [Eh]
	 SCS Correlation Energy    =      -1.4430678238552208 [Eh]
	 SCS Total Energy          =    -345.2346218548026968 [Eh]
	-----------------------------------------------------------

  Dipole Moment: [D]
     X:     0.0072      Y:    -2.0939      Z:     0.7119     Total:     2.2116

*** Psi4 exiting successfully. Buy a developer a beer!
