                               Psi4 1.3.2 release

  ==> Input File <==

--------------------------------------------------------------------------
#psi4
#
memory 32 gb

molecule  {
0 1
  O        2.5331200    -0.0725200     0.2027050
  O        0.8230440     1.2494390    -0.4327460
  C       -1.8265301    -0.1745693    -0.5888520
  C       -2.5841030     0.6523970     0.4513900
  C       -0.9018550    -1.1471370     0.0763090
  C        0.4139009    -1.0255465     0.3259407
  C        1.2159030     0.1700770    -0.0266570
  H       -2.5251580    -0.7208810    -1.2155130
  H       -1.2597500     0.5079260    -1.2382380
  H       -3.2919980     1.3271690    -0.0377650
  H       -1.8881090     1.2530680     1.0427000
  H       -3.1450010     0.0036210     1.1307380
  H       -1.3667210    -2.0751620     0.4099140
  H        0.9531490    -1.8065430     0.8308200
  H        2.9905100     0.7616870    -0.0298800
units angstrom
no_reorient  #important for SAPT in psi4, default
symmetry c1  #important for SAPT in psi4, default
}

set PROPERTIES_ORIGIN ["COM"]
properties('MP2/aug-cc-pvtz', properties = ['dipole'])
--------------------------------------------------------------------------

    Molecular point group: c1
  Charge       = 0
  Multiplicity = 1
  Basis Set: AUG-CC-PVTZ
    Blend: AUG-CC-PVTZ
  Basis Set: (AUG-CC-PVTZ AUX)
    Blend: AUG-CC-PVTZ-JKFIT

    Orbital Energies [Eh]
    ---------------------

    Doubly Occupied:

       1A    -20.611310     2A    -20.544956     3A    -11.388749
       4A    -11.270336     5A    -11.243536     6A    -11.231710
       7A    -11.221093     8A     -1.457994     9A     -1.352622
      10A     -1.104968    11A     -1.019747    12A     -0.907866
      13A     -0.840072    14A     -0.751540    15A     -0.708180
      16A     -0.675693    17A     -0.646545    18A     -0.627689
      19A     -0.601016    20A     -0.585085    21A     -0.565022
      22A     -0.528342    23A     -0.503398    24A     -0.496710
      25A     -0.481430    26A     -0.443198    27A     -0.381262

  @DF-RHF Final Energy:  -343.85644884284415

   => Energetics <=

    Nuclear Repulsion Energy =            292.5877097438554983
    One-Electron Energy =               -1048.5081798253786474
    Two-Electron Energy =                 412.0640212386790040
    Total Energy =                       -343.8564488428441450
  Basis Set: (AUG-CC-PVTZ AUX)
    Blend: AUG-CC-PVTZ-RI
    Molecular point group: c1

    Geometry (in Angstrom), charge = 0, multiplicity = 1:

       Center              X                  Y                   Z               Mass
    ------------   -----------------  -----------------  -----------------  -----------------
         O            2.534302664068    -0.070245157390     0.201926965450    15.994914619570
         O            0.824226664068     1.251713842610    -0.433524034550    15.994914619570
         C           -1.825347435932    -0.172294457390    -0.589630034550    12.000000000000
         C           -2.582920335932     0.654671842610     0.450611965450    12.000000000000
         C           -0.900672335932    -1.144862157390     0.075530965450    12.000000000000
         C            0.415083564068    -1.023271657390     0.325162665450    12.000000000000
         C            1.217085664068     0.172351842610    -0.027435034550    12.000000000000
         H           -2.523975335932    -0.718606157390    -1.216291034550     1.007825032230
         H           -1.258567335932     0.510200842610    -1.239016034550     1.007825032230
         H           -3.290815335932     1.329443842610    -0.038543034550     1.007825032230
         H           -1.886926335932     1.255342842610     1.041921965450     1.007825032230
         H           -3.143818335932     0.005895842610     1.129959965450     1.007825032230
         H           -1.365538335932    -2.072887157390     0.409135965450     1.007825032230
         H            0.954331664068    -1.804268157390     0.830041965450     1.007825032230
         H            2.991692664068     0.763961842610    -0.030658034550     1.007825032230

  Basis Set: AUG-CC-PVTZ
    Blend: AUG-CC-PVTZ
  Basis Set: (AUG-CC-PVTZ AUX)
    Blend: AUG-CC-PVTZ-JKFIT
	 Reference Energy          =    -343.8564488428441450 [Eh]
	 Singles Energy            =      -0.0000000000000000 [Eh]
	 Same-Spin Energy          =      -0.3408570422111475 [Eh]
	 Opposite-Spin Energy      =      -1.0998368237062415 [Eh]
	 Correlation Energy        =      -1.4406938659173889 [Eh]
	 Total Energy              =    -345.2971427087615552 [Eh]

	 ================> DF-SCS-MP2 Energies <==================
	-----------------------------------------------------------
	 SCS Same-Spin Scale       =       0.3333333333333333 [-]
	 SCS Opposite-Spin Scale   =       1.2000000000000000 [-]
	 SCS Same-Spin Energy      =      -0.1136190140703825 [Eh]
	 SCS Opposite-Spin Energy  =      -1.3198041884474898 [Eh]
	 SCS Correlation Energy    =      -1.4334232025178724 [Eh]
	 SCS Total Energy          =    -345.2898720453620172 [Eh]
	-----------------------------------------------------------

  Dipole Moment: [D]
     X:    -0.4150      Y:    -1.1143      Z:     0.3318     Total:     1.2345

*** Psi4 exiting successfully. Buy a developer a beer!
