                               Psi4 1.3.2 release

  ==> Input File <==

--------------------------------------------------------------------------
#psi4
#
memory 32 gb

molecule  {
0 1
  O        2.5331200    -0.0725200     0.2027050
  O        0.8230440     1.2494390    -0.4327460
  C       -1.8559758    -0.1999902    -0.5839315
  C       -2.5841030     0.6523970     0.4513900
  C       -0.9018550    -1.1471370     0.0763090
  C        0.4135905    -1.0575204     0.3406684
  C        1.2159030     0.1700770    -0.0266570
  H       -2.5251580    -0.7208810    -1.2155130
  H       -1.2597500     0.5079260    -1.2382380
  H       -3.2919980     1.3271690    -0.0377650
  H       -1.8881090     1.2530680     1.0427000
  H       -3.1450010     0.0036210     1.1307380
  H       -1.3667210    -2.0751620     0.4099140
  H        0.9531490    -1.8065430     0.8308200
  H        2.9905100     0.7616870    -0.0298800
units angstrom
no_reorient  #important for SAPT in psi4, default
symmetry c1  #important for SAPT in psi4, default
}

set PROPERTIES_ORIGIN ["COM"]
properties('MP2/aug-cc-pvtz', properties = ['dipole'])
--------------------------------------------------------------------------

    Molecular point group: c1
  Charge       = 0
  Multiplicity = 1
  Basis Set: AUG-CC-PVTZ
    Blend: AUG-CC-PVTZ
  Basis Set: (AUG-CC-PVTZ AUX)
    Blend: AUG-CC-PVTZ-JKFIT

    Orbital Energies [Eh]
    ---------------------

    Doubly Occupied:

       1A    -20.611352     2A    -20.546158     3A    -11.390194
       4A    -11.268994     5A    -11.244652     6A    -11.232564
       7A    -11.221116     8A     -1.457736     9A     -1.352782
      10A     -1.103548    11A     -1.019899    12A     -0.904991
      13A     -0.840534    14A     -0.749777    15A     -0.709200
      16A     -0.681640    17A     -0.643933    18A     -0.627034
      19A     -0.602399    20A     -0.588602    21A     -0.561654
      22A     -0.530706    23A     -0.506808    24A     -0.494197
      25A     -0.479883    26A     -0.439147    27A     -0.381805

  @DF-RHF Final Energy:  -343.85127121575158

   => Energetics <=

    Nuclear Repulsion Energy =            291.9106431046478747
    One-Electron Energy =               -1047.1412146294801460
    Two-Electron Energy =                 411.3793003090806906
    Total Energy =                       -343.8512712157515807
  Basis Set: (AUG-CC-PVTZ AUX)
    Blend: AUG-CC-PVTZ-RI
    Molecular point group: c1

    Geometry (in Angstrom), charge = 0, multiplicity = 1:

       Center              X                  Y                   Z               Mass
    ------------   -----------------  -----------------  -----------------  -----------------
         O            2.537871524933    -0.063361390514     0.199570416976    15.994914619570
         O            0.827795524933     1.258597609486    -0.435880583024    15.994914619570
         C           -1.851224275067    -0.190831590514    -0.587066083024    12.000000000000
         C           -2.579351475067     0.661555609486     0.448255416976    12.000000000000
         C           -0.897103475067    -1.137978390514     0.073174416976    12.000000000000
         C            0.418342024933    -1.048361790514     0.337533816976    12.000000000000
         C            1.220654524933     0.179235609486    -0.029791583024    12.000000000000
         H           -2.520406475067    -0.711722390514    -1.218647583024     1.007825032230
         H           -1.254998475067     0.517084609486    -1.241372583024     1.007825032230
         H           -3.287246475067     1.336327609486    -0.040899583024     1.007825032230
         H           -1.883357475067     1.262226609486     1.039565416976     1.007825032230
         H           -3.140249475067     0.012779609486     1.127603416976     1.007825032230
         H           -1.361969475067    -2.066003390514     0.406779416976     1.007825032230
         H            0.957900524933    -1.797384390514     0.827685416976     1.007825032230
         H            2.995261524933     0.770845609486    -0.033014583024     1.007825032230

  Basis Set: AUG-CC-PVTZ
    Blend: AUG-CC-PVTZ
  Basis Set: (AUG-CC-PVTZ AUX)
    Blend: AUG-CC-PVTZ-JKFIT
	 Reference Energy          =    -343.8512712157515807 [Eh]
	 Singles Energy            =      -0.0000000000000000 [Eh]
	 Same-Spin Energy          =      -0.3407407737747359 [Eh]
	 Opposite-Spin Energy      =      -1.0999812400501314 [Eh]
	 Correlation Energy        =      -1.4407220138248673 [Eh]
	 Total Energy              =    -345.2919932295764625 [Eh]

	 ================> DF-SCS-MP2 Energies <==================
	-----------------------------------------------------------
	 SCS Same-Spin Scale       =       0.3333333333333333 [-]
	 SCS Opposite-Spin Scale   =       1.2000000000000000 [-]
	 SCS Same-Spin Energy      =      -0.1135802579249120 [Eh]
	 SCS Opposite-Spin Energy  =      -1.3199774880601576 [Eh]
	 SCS Correlation Energy    =      -1.4335577459850695 [Eh]
	 SCS Total Energy          =    -345.2848289617366504 [Eh]
	-----------------------------------------------------------

  Dipole Moment: [D]
     X:    -0.3885      Y:    -1.0898      Z:     0.3272     Total:     1.2023

*** Psi4 exiting successfully. Buy a developer a beer!
