                               Psi4 1.3.2 release

  ==> Input File <==

--------------------------------------------------------------------------
#psi4
#
memory 32 gb

molecule  {
0 1
  O        2.5331200    -0.0725200     0.2027050
  O        0.8230440     1.2494390    -0.4327460
  C       -1.8165730    -0.1662430    -0.5903910
  C       -2.5841030     0.6523970     0.4513900
  C       -0.8994175    -1.2102391     0.1074322
  C        0.4138040    -1.0149060     0.3209930
  C        1.2159030     0.1700770    -0.0266570
  H       -2.5251580    -0.7208810    -1.2155130
  H       -1.2597500     0.5079260    -1.2382380
  H       -3.2919980     1.3271690    -0.0377650
  H       -1.8881090     1.2530680     1.0427000
  H       -3.1450010     0.0036210     1.1307380
  H       -1.3667210    -2.0751620     0.4099140
  H        0.9045478    -1.8358293     0.8335954
  H        2.9905100     0.7616870    -0.0298800
units angstrom
no_reorient  #important for SAPT in psi4, default
symmetry c1  #important for SAPT in psi4, default
}

set PROPERTIES_ORIGIN ["COM"]
properties('MP2/aug-cc-pvtz', properties = ['dipole'])
--------------------------------------------------------------------------

    Molecular point group: c1
  Charge       = 0
  Multiplicity = 1
  Basis Set: AUG-CC-PVTZ
    Blend: AUG-CC-PVTZ
  Basis Set: (AUG-CC-PVTZ AUX)
    Blend: AUG-CC-PVTZ-JKFIT

    Orbital Energies [Eh]
    ---------------------

    Doubly Occupied:

       1A    -20.612848     2A    -20.546892     3A    -11.392316
       4A    -11.267458     5A    -11.243971     6A    -11.232650
       7A    -11.218896     8A     -1.459662     9A     -1.354276
      10A     -1.100007    11A     -1.016476    12A     -0.909819
      13A     -0.837526    14A     -0.761171    15A     -0.708365
      16A     -0.675095    17A     -0.647947    18A     -0.628941
      19A     -0.599821    20A     -0.582471    21A     -0.574475
      22A     -0.521886    23A     -0.501215    24A     -0.488118
      25A     -0.479667    26A     -0.447673    27A     -0.382800

  @DF-RHF Final Energy:  -343.85079853955210

   => Energetics <=

    Nuclear Repulsion Energy =            291.9893320704055668
    One-Electron Energy =               -1047.2953734259597240
    Two-Electron Energy =                 411.4552428160020554
    Total Energy =                       -343.8507985395521018
  Basis Set: (AUG-CC-PVTZ AUX)
    Blend: AUG-CC-PVTZ-RI
    Molecular point group: c1

    Geometry (in Angstrom), charge = 0, multiplicity = 1:

       Center              X                  Y                   Z               Mass
    ------------   -----------------  -----------------  -----------------  -----------------
         O            2.533317271764    -0.064656696729     0.198944178134    15.994914619570
         O            0.823241271764     1.257302303271    -0.436506821866    15.994914619570
         C           -1.816375728236    -0.158379696729    -0.594151821866    12.000000000000
         C           -2.583905728236     0.660260303271     0.447629178134    12.000000000000
         C           -0.899220228236    -1.202375796729     0.103671378134    12.000000000000
         C            0.414001271764    -1.007042696729     0.317232178134    12.000000000000
         C            1.216100271764     0.177940303271    -0.030417821866    12.000000000000
         H           -2.524960728236    -0.713017696729    -1.219273821866     1.007825032230
         H           -1.259552728236     0.515789303271    -1.241998821866     1.007825032230
         H           -3.291800728236     1.335032303271    -0.041525821866     1.007825032230
         H           -1.887911728236     1.260931303271     1.038939178134     1.007825032230
         H           -3.144803728236     0.011484303271     1.126977178134     1.007825032230
         H           -1.366523728236    -2.067298696729     0.406153178134     1.007825032230
         H            0.904745071764    -1.827965996729     0.829834578134     1.007825032230
         H            2.990707271764     0.769550303271    -0.033640821866     1.007825032230

  Basis Set: AUG-CC-PVTZ
    Blend: AUG-CC-PVTZ
  Basis Set: (AUG-CC-PVTZ AUX)
    Blend: AUG-CC-PVTZ-JKFIT
	 Reference Energy          =    -343.8507985395521018 [Eh]
	 Singles Energy            =      -0.0000000000000000 [Eh]
	 Same-Spin Energy          =      -0.3405220738527720 [Eh]
	 Opposite-Spin Energy      =      -1.0999671737383574 [Eh]
	 Correlation Energy        =      -1.4404892475911293 [Eh]
	 Total Energy              =    -345.2912877871432329 [Eh]

	 ================> DF-SCS-MP2 Energies <==================
	-----------------------------------------------------------
	 SCS Same-Spin Scale       =       0.3333333333333333 [-]
	 SCS Opposite-Spin Scale   =       1.2000000000000000 [-]
	 SCS Same-Spin Energy      =      -0.1135073579509240 [Eh]
	 SCS Opposite-Spin Energy  =      -1.3199606084860289 [Eh]
	 SCS Correlation Energy    =      -1.4334679664369530 [Eh]
	 SCS Total Energy          =    -345.2842665059890805 [Eh]
	-----------------------------------------------------------

  Dipole Moment: [D]
     X:    -0.3379      Y:    -1.1650      Z:     0.3552     Total:     1.2639

*** Psi4 exiting successfully. Buy a developer a beer!
