                               Psi4 1.3.2 release

  ==> Input File <==

--------------------------------------------------------------------------
#psi4
#
memory 32 gb

molecule  {
0 1
  O        2.5331200    -0.0725200     0.2027050
  O        0.8230440     1.2494390    -0.4327460
  C       -1.8165730    -0.1662430    -0.5903910
  C       -2.5374495     0.6704585     0.4701981
  C       -0.9018550    -1.1471370     0.0763090
  C        0.4138040    -1.0149060     0.3209930
  C        1.2159030     0.1700770    -0.0266570
  H       -2.4956045    -0.7353638    -1.2349927
  H       -1.2597500     0.5079260    -1.2382380
  H       -3.2919980     1.3271690    -0.0377650
  H       -1.8881090     1.2530680     1.0427000
  H       -3.1450010     0.0036210     1.1307380
  H       -1.3667210    -2.0751620     0.4099140
  H        0.9531490    -1.8065430     0.8308200
  H        2.9905100     0.7616870    -0.0298800
units angstrom
no_reorient  #important for SAPT in psi4, default
symmetry c1  #important for SAPT in psi4, default
}

set PROPERTIES_ORIGIN ["COM"]
properties('MP2/aug-cc-pvtz', properties = ['dipole'])
--------------------------------------------------------------------------

    Molecular point group: c1
  Charge       = 0
  Multiplicity = 1
  Basis Set: AUG-CC-PVTZ
    Blend: AUG-CC-PVTZ
  Basis Set: (AUG-CC-PVTZ AUX)
    Blend: AUG-CC-PVTZ-JKFIT

    Orbital Energies [Eh]
    ---------------------

    Doubly Occupied:

       1A    -20.611146     2A    -20.544421     3A    -11.388046
       4A    -11.270370     5A    -11.242600     6A    -11.231852
       7A    -11.222395     8A     -1.457948     9A     -1.352471
      10A     -1.105839    11A     -1.019403    12A     -0.909059
      13A     -0.841255    14A     -0.752257    15A     -0.707728
      16A     -0.673775    17A     -0.647474    18A     -0.627934
      19A     -0.598766    20A     -0.586592    21A     -0.564172
      22A     -0.535176    23A     -0.498254    24A     -0.496213
      25A     -0.480900    26A     -0.443545    27A     -0.380758

  @DF-RHF Final Energy:  -343.85298353146266

   => Energetics <=

    Nuclear Repulsion Energy =            293.1043626169997083
    One-Electron Energy =               -1049.5339940474532341
    Two-Electron Energy =                 412.5766478989909274
    Total Energy =                       -343.8529835314626553
  Basis Set: (AUG-CC-PVTZ AUX)
    Blend: AUG-CC-PVTZ-RI
    Molecular point group: c1

    Geometry (in Angstrom), charge = 0, multiplicity = 1:

       Center              X                  Y                   Z               Mass
    ------------   -----------------  -----------------  -----------------  -----------------
         O            2.527226882294    -0.074540340163     0.200645390666    15.994914619570
         O            0.817150882294     1.247418659837    -0.434805609334    15.994914619570
         C           -1.822466117706    -0.168263340163    -0.592450609334    12.000000000000
         C           -2.543342617706     0.668438159837     0.468138490666    12.000000000000
         C           -0.907748117706    -1.149157340163     0.074249390666    12.000000000000
         C            0.407910882294    -1.016926340163     0.318933390666    12.000000000000
         C            1.210009882294     0.168056659837    -0.028716609334    12.000000000000
         H           -2.501497617706    -0.737384140163    -1.237052309334     1.007825032230
         H           -1.265643117706     0.505905659837    -1.240297609334     1.007825032230
         H           -3.297891117706     1.325148659837    -0.039824609334     1.007825032230
         H           -1.894002117706     1.251047659837     1.040640390666     1.007825032230
         H           -3.150894117706     0.001600659837     1.128678390666     1.007825032230
         H           -1.372614117706    -2.077182340163     0.407854390666     1.007825032230
         H            0.947255882294    -1.808563340163     0.828760390666     1.007825032230
         H            2.984616882294     0.759666659837    -0.031939609334     1.007825032230

  Basis Set: AUG-CC-PVTZ
    Blend: AUG-CC-PVTZ
  Basis Set: (AUG-CC-PVTZ AUX)
    Blend: AUG-CC-PVTZ-JKFIT
	 Reference Energy          =    -343.8529835314626553 [Eh]
	 Singles Energy            =      -0.0000000000000000 [Eh]
	 Same-Spin Energy          =      -0.3409897803739217 [Eh]
	 Opposite-Spin Energy      =      -1.1000387656000588 [Eh]
	 Correlation Energy        =      -1.4410285459739804 [Eh]
	 Total Energy              =    -345.2940120774366619 [Eh]

	 ================> DF-SCS-MP2 Energies <==================
	-----------------------------------------------------------
	 SCS Same-Spin Scale       =       0.3333333333333333 [-]
	 SCS Opposite-Spin Scale   =       1.2000000000000000 [-]
	 SCS Same-Spin Energy      =      -0.1136632601246406 [Eh]
	 SCS Opposite-Spin Energy  =      -1.3200465187200705 [Eh]
	 SCS Correlation Energy    =      -1.4337097788447111 [Eh]
	 SCS Total Energy          =    -345.2866933103073848 [Eh]
	-----------------------------------------------------------

  Dipole Moment: [D]
     X:    -0.4158      Y:    -1.1193      Z:     0.3259     Total:     1.2377

*** Psi4 exiting successfully. Buy a developer a beer!
