                               Psi4 1.3.2 release

  ==> Input File <==

--------------------------------------------------------------------------
#psi4
#
memory 32 gb

molecule  {
0 1
  O        2.5429647    -0.0286146     0.1877018
  O        0.8230440     1.2494390    -0.4327460
  C       -1.8165730    -0.1662430    -0.5903910
  C       -2.5841030     0.6523970     0.4513900
  C       -0.9018550    -1.1471370     0.0763090
  C        0.3715005    -0.9892357     0.3070892
  C        1.2159030     0.1700770    -0.0266570
  H       -2.5251580    -0.7208810    -1.2155130
  H       -1.2597500     0.5079260    -1.2382380
  H       -3.2919980     1.3271690    -0.0377650
  H       -1.8881090     1.2530680     1.0427000
  H       -3.1450010     0.0036210     1.1307380
  H       -1.3667210    -2.0751620     0.4099140
  H        0.9531490    -1.8065430     0.8308200
  H        2.9905100     0.7616870    -0.0298800
units angstrom
no_reorient  #important for SAPT in psi4, default
symmetry c1  #important for SAPT in psi4, default
}

set PROPERTIES_ORIGIN ["COM"]
properties('MP2/aug-cc-pvtz', properties = ['dipole'])
--------------------------------------------------------------------------

    Molecular point group: c1
  Charge       = 0
  Multiplicity = 1
  Basis Set: AUG-CC-PVTZ
    Blend: AUG-CC-PVTZ
  Basis Set: (AUG-CC-PVTZ AUX)
    Blend: AUG-CC-PVTZ-JKFIT

    Orbital Energies [Eh]
    ---------------------

    Doubly Occupied:

       1A    -20.607707     2A    -20.543060     3A    -11.389898
       4A    -11.264322     5A    -11.244764     6A    -11.229938
       7A    -11.220308     8A     -1.464545     9A     -1.354399
      10A     -1.112826    11A     -1.020635    12A     -0.913729
      13A     -0.844944    14A     -0.761473    15A     -0.707067
      16A     -0.668887    17A     -0.654564    18A     -0.629298
      19A     -0.602837    20A     -0.581704    21A     -0.565990
      22A     -0.526442    23A     -0.502179    24A     -0.493675
      25A     -0.481236    26A     -0.441712    27A     -0.390290

  @DF-RHF Final Energy:  -343.85490376769616

   => Energetics <=

    Nuclear Repulsion Energy =            293.5478709580755776
    One-Electron Energy =               -1050.3686909706220831
    Two-Electron Energy =                 412.9659162448503480
    Total Energy =                       -343.8549037676961575
  Basis Set: (AUG-CC-PVTZ AUX)
    Blend: AUG-CC-PVTZ-RI
    Molecular point group: c1

    Geometry (in Angstrom), charge = 0, multiplicity = 1:

       Center              X                  Y                   Z               Mass
    ------------   -----------------  -----------------  -----------------  -----------------
         O            2.546464693745    -0.038712353743     0.191767834759    15.994914619570
         O            0.826543993745     1.239341246257    -0.428679965241    15.994914619570
         C           -1.813073006255    -0.176340753743    -0.586324965241    12.000000000000
         C           -2.580603006255     0.642299246257     0.455456034759    12.000000000000
         C           -0.898355006255    -1.157234753743     0.080375034759    12.000000000000
         C            0.375000493745    -0.999333453743     0.311155234759    12.000000000000
         C            1.219402993745     0.159979246257    -0.022590965241    12.000000000000
         H           -2.521658006255    -0.730978753743    -1.211446965241     1.007825032230
         H           -1.256250006255     0.497828246257    -1.234171965241     1.007825032230
         H           -3.288498006255     1.317071246257    -0.033698965241     1.007825032230
         H           -1.884609006255     1.242970246257     1.046766034759     1.007825032230
         H           -3.141501006255    -0.006476753743     1.134804034759     1.007825032230
         H           -1.363221006255    -2.085259753743     0.413980034759     1.007825032230
         H            0.956648993745    -1.816640753743     0.834886034759     1.007825032230
         H            2.994009993745     0.751589246257    -0.025813965241     1.007825032230

  Basis Set: AUG-CC-PVTZ
    Blend: AUG-CC-PVTZ
  Basis Set: (AUG-CC-PVTZ AUX)
    Blend: AUG-CC-PVTZ-JKFIT
	 Reference Energy          =    -343.8549037676961575 [Eh]
	 Singles Energy            =      -0.0000000000000000 [Eh]
	 Same-Spin Energy          =      -0.3398463329936303 [Eh]
	 Opposite-Spin Energy      =      -1.0975767359379078 [Eh]
	 Correlation Energy        =      -1.4374230689315382 [Eh]
	 Total Energy              =    -345.2923268366276943 [Eh]

	 ================> DF-SCS-MP2 Energies <==================
	-----------------------------------------------------------
	 SCS Same-Spin Scale       =       0.3333333333333333 [-]
	 SCS Opposite-Spin Scale   =       1.2000000000000000 [-]
	 SCS Same-Spin Energy      =      -0.1132821109978767 [Eh]
	 SCS Opposite-Spin Energy  =      -1.3170920831254893 [Eh]
	 SCS Correlation Energy    =      -1.4303741941233661 [Eh]
	 SCS Total Energy          =    -345.2852779618195314 [Eh]
	-----------------------------------------------------------

  Dipole Moment: [D]
     X:    -0.4422      Y:    -1.1698      Z:     0.3364     Total:     1.2950

*** Psi4 exiting successfully. Buy a developer a beer!
