                               Psi4 1.3.2 release

  ==> Input File <==

--------------------------------------------------------------------------
#psi4
#
memory 32 gb

molecule  {
0 1
  O        2.5331200    -0.0725200     0.2027050
  O        0.8230440     1.2494390    -0.4327460
  C       -1.8165730    -0.1662430    -0.5903910
  C       -2.5841030     0.6523970     0.4513900
  C       -0.9018550    -1.1471370     0.0763090
  C        0.4138040    -1.0149060     0.3209930
  C        1.1514103     0.3472677    -0.0933215
  H       -2.5251580    -0.7208810    -1.2155130
  H       -1.2597500     0.5079260    -1.2382380
  H       -3.2919980     1.3271690    -0.0377650
  H       -1.8881090     1.2530680     1.0427000
  H       -3.1450010     0.0036210     1.1307380
  H       -1.3667210    -2.0751620     0.4099140
  H        0.9531490    -1.8065430     0.8308200
  H        2.9905100     0.7616870    -0.0298800
units angstrom
no_reorient  #important for SAPT in psi4, default
symmetry c1  #important for SAPT in psi4, default
}

set PROPERTIES_ORIGIN ["COM"]
properties('MP2/aug-cc-pvtz', properties = ['dipole'])
--------------------------------------------------------------------------

    Molecular point group: c1
  Charge       = 0
  Multiplicity = 1
  Basis Set: AUG-CC-PVTZ
    Blend: AUG-CC-PVTZ
  Basis Set: (AUG-CC-PVTZ AUX)
    Blend: AUG-CC-PVTZ-JKFIT

    Orbital Energies [Eh]
    ---------------------

    Doubly Occupied:

       1A    -20.586020     2A    -20.576297     3A    -11.375149
       4A    -11.252148     5A    -11.241696     6A    -11.232307
       7A    -11.222159     8A     -1.577665     9A     -1.354178
      10A     -1.095195    11A     -1.004776    12A     -0.880836
      13A     -0.819019    14A     -0.764249    15A     -0.733020
      16A     -0.687245    17A     -0.684736    18A     -0.654165
      19A     -0.601561    20A     -0.588115    21A     -0.568783
      22A     -0.528230    23A     -0.507052    24A     -0.503577
      25A     -0.492995    26A     -0.427853    27A     -0.372736

  @DF-RHF Final Energy:  -343.77202117756985

   => Energetics <=

    Nuclear Repulsion Energy =            294.3896047354093639
    One-Electron Energy =               -1051.6597305068639798
    Two-Electron Energy =                 413.4981045938847046
    Total Energy =                       -343.7720211775698544
  Basis Set: (AUG-CC-PVTZ AUX)
    Blend: AUG-CC-PVTZ-RI
    Molecular point group: c1

    Geometry (in Angstrom), charge = 0, multiplicity = 1:

       Center              X                  Y                   Z               Mass
    ------------   -----------------  -----------------  -----------------  -----------------
         O            2.540855128644    -0.093771722530     0.210700509525    15.994914619570
         O            0.830779128644     1.228187277470    -0.424750490475    15.994914619570
         C           -1.808837871356    -0.187494722530    -0.582395490475    12.000000000000
         C           -2.576367871356     0.631145277470     0.459385509525    12.000000000000
         C           -0.894119871356    -1.168388722530     0.084304509525    12.000000000000
         C            0.421539128644    -1.036157722530     0.328988509525    12.000000000000
         C            1.159145428644     0.326015977470    -0.085325990475    12.000000000000
         H           -2.517422871356    -0.742132722530    -1.207517490475     1.007825032230
         H           -1.252014871356     0.486674277470    -1.230242490475     1.007825032230
         H           -3.284262871356     1.305917277470    -0.029769490475     1.007825032230
         H           -1.880373871356     1.231816277470     1.050695509525     1.007825032230
         H           -3.137265871356    -0.017630722530     1.138733509525     1.007825032230
         H           -1.358985871356    -2.096413722530     0.417909509525     1.007825032230
         H            0.960884128644    -1.827794722530     0.838815509525     1.007825032230
         H            2.998245128644     0.740435277470    -0.021884490475     1.007825032230

  Basis Set: AUG-CC-PVTZ
    Blend: AUG-CC-PVTZ
  Basis Set: (AUG-CC-PVTZ AUX)
    Blend: AUG-CC-PVTZ-JKFIT
	 Reference Energy          =    -343.7720211775698544 [Eh]
	 Singles Energy            =      -0.0000000000000000 [Eh]
	 Same-Spin Energy          =      -0.3379383779230084 [Eh]
	 Opposite-Spin Energy      =      -1.0952362013367651 [Eh]
	 Correlation Energy        =      -1.4331745792597737 [Eh]
	 Total Energy              =    -345.2051957568296530 [Eh]

	 ================> DF-SCS-MP2 Energies <==================
	-----------------------------------------------------------
	 SCS Same-Spin Scale       =       0.3333333333333333 [-]
	 SCS Opposite-Spin Scale   =       1.2000000000000000 [-]
	 SCS Same-Spin Energy      =      -0.1126461259743361 [Eh]
	 SCS Opposite-Spin Energy  =      -1.3142834416041180 [Eh]
	 SCS Correlation Energy    =      -1.4269295675784541 [Eh]
	 SCS Total Energy          =    -345.1989507451482950 [Eh]
	-----------------------------------------------------------

  Dipole Moment: [D]
     X:    -1.0731      Y:     0.0990      Z:    -0.1400     Total:     1.0867

*** Psi4 exiting successfully. Buy a developer a beer!
