                               Psi4 1.3.2 release

  ==> Input File <==

--------------------------------------------------------------------------
#psi4
#
memory 32 gb

molecule  {
0 1
  O        2.5331200    -0.0725200     0.2027050
  O        0.8230440     1.2494390    -0.4327460
  C       -1.8165730    -0.1662430    -0.5903910
  C       -2.5841030     0.6523970     0.4513900
  C       -0.9018550    -1.1471370     0.0763090
  C        0.4138040    -1.0149060     0.3209930
  C        1.0220332     0.2057828    -0.0604148
  H       -2.5251580    -0.7208810    -1.2155130
  H       -1.2597500     0.5079260    -1.2382380
  H       -3.2919980     1.3271690    -0.0377650
  H       -1.8881090     1.2530680     1.0427000
  H       -3.1450010     0.0036210     1.1307380
  H       -1.3667210    -2.0751620     0.4099140
  H        0.9531490    -1.8065430     0.8308200
  H        2.9905100     0.7616870    -0.0298800
units angstrom
no_reorient  #important for SAPT in psi4, default
symmetry c1  #important for SAPT in psi4, default
}

set PROPERTIES_ORIGIN ["COM"]
properties('MP2/aug-cc-pvtz', properties = ['dipole'])
--------------------------------------------------------------------------

    Molecular point group: c1
  Charge       = 0
  Multiplicity = 1
  Basis Set: AUG-CC-PVTZ
    Blend: AUG-CC-PVTZ
  Basis Set: (AUG-CC-PVTZ AUX)
    Blend: AUG-CC-PVTZ-JKFIT

    Orbital Energies [Eh]
    ---------------------

    Doubly Occupied:

       1A    -20.573512     2A    -20.546368     3A    -11.386345
       4A    -11.282329     5A    -11.251128     6A    -11.244725
       7A    -11.231974     8A     -1.484265     9A     -1.301887
      10A     -1.126694    11A     -1.035598    12A     -0.910922
      13A     -0.839732    14A     -0.739971    15A     -0.714895
      16A     -0.678010    17A     -0.637028    18A     -0.627894
      19A     -0.608222    20A     -0.594221    21A     -0.569148
      22A     -0.538996    23A     -0.511806    24A     -0.504886
      25A     -0.470119    26A     -0.434934    27A     -0.395540

  @DF-RHF Final Energy:  -343.81854684462701

   => Energetics <=

    Nuclear Repulsion Energy =            293.8541929461453606
    One-Electron Energy =               -1050.8631799828219755
    Two-Electron Energy =                 413.1904401920496639
    Total Energy =                       -343.8185468446270079
  Basis Set: (AUG-CC-PVTZ AUX)
    Blend: AUG-CC-PVTZ-RI
    Molecular point group: c1

    Geometry (in Angstrom), charge = 0, multiplicity = 1:

       Center              X                  Y                   Z               Mass
    ------------   -----------------  -----------------  -----------------  -----------------
         O            2.556372245098    -0.076802431444     0.206753774778    15.994914619570
         O            0.846296245098     1.245156568556    -0.428697225222    15.994914619570
         C           -1.793320754902    -0.170525431444    -0.586342225222    12.000000000000
         C           -2.560850754902     0.648114568556     0.455438774778    12.000000000000
         C           -0.878602754902    -1.151419431444     0.080357774778    12.000000000000
         C            0.437056245098    -1.019188431444     0.325041774778    12.000000000000
         C            1.045285445098     0.201500368556    -0.056366025222    12.000000000000
         H           -2.501905754902    -0.725163431444    -1.211464225222     1.007825032230
         H           -1.236497754902     0.503643568556    -1.234189225222     1.007825032230
         H           -3.268745754902     1.322886568556    -0.033716225222     1.007825032230
         H           -1.864856754902     1.248785568556     1.046748774778     1.007825032230
         H           -3.121748754902    -0.000661431444     1.134786774778     1.007825032230
         H           -1.343468754902    -2.079444431444     0.413962774778     1.007825032230
         H            0.976401245098    -1.810825431444     0.834868774778     1.007825032230
         H            3.013762245098     0.757404568556    -0.025831225222     1.007825032230

  Basis Set: AUG-CC-PVTZ
    Blend: AUG-CC-PVTZ
  Basis Set: (AUG-CC-PVTZ AUX)
    Blend: AUG-CC-PVTZ-JKFIT
	 Reference Energy          =    -343.8185468446270079 [Eh]
	 Singles Energy            =      -0.0000000000000000 [Eh]
	 Same-Spin Energy          =      -0.3418957929472045 [Eh]
	 Opposite-Spin Energy      =      -1.1021702560958264 [Eh]
	 Correlation Energy        =      -1.4440660490430308 [Eh]
	 Total Energy              =    -345.2626128936700525 [Eh]

	 ================> DF-SCS-MP2 Energies <==================
	-----------------------------------------------------------
	 SCS Same-Spin Scale       =       0.3333333333333333 [-]
	 SCS Opposite-Spin Scale   =       1.2000000000000000 [-]
	 SCS Same-Spin Energy      =      -0.1139652643157348 [Eh]
	 SCS Opposite-Spin Energy  =      -1.3226043073149916 [Eh]
	 SCS Correlation Energy    =      -1.4365695716307263 [Eh]
	 SCS Total Energy          =    -345.2551164162577493 [Eh]
	-----------------------------------------------------------

  Dipole Moment: [D]
     X:    -2.4540      Y:    -0.8447      Z:     0.0506     Total:     2.5958

*** Psi4 exiting successfully. Buy a developer a beer!
