                               Psi4 1.3.2 release

  ==> Input File <==

--------------------------------------------------------------------------
#psi4
#
memory 32 gb

molecule  {
0 1
  O        2.5331200    -0.0725200     0.2027050
  O        0.8230440     1.2494390    -0.4327460
  C       -1.8165730    -0.1662430    -0.5903910
  C       -2.5841030     0.6523970     0.4513900
  C       -0.9018550    -1.1471370     0.0763090
  C        0.2181285    -1.0345725     0.2846016
  C        1.2159030     0.1700770    -0.0266570
  H       -2.5251580    -0.7208810    -1.2155130
  H       -1.2597500     0.5079260    -1.2382380
  H       -3.2919980     1.3271690    -0.0377650
  H       -1.8881090     1.2530680     1.0427000
  H       -3.1450010     0.0036210     1.1307380
  H       -1.3667210    -2.0751620     0.4099140
  H        0.9531490    -1.8065430     0.8308200
  H        2.9905100     0.7616870    -0.0298800
units angstrom
no_reorient  #important for SAPT in psi4, default
symmetry c1  #important for SAPT in psi4, default
}

set PROPERTIES_ORIGIN ["COM"]
properties('MP2/aug-cc-pvtz', properties = ['dipole'])
--------------------------------------------------------------------------

    Molecular point group: c1
  Charge       = 0
  Multiplicity = 1
  Basis Set: AUG-CC-PVTZ
    Blend: AUG-CC-PVTZ
  Basis Set: (AUG-CC-PVTZ AUX)
    Blend: AUG-CC-PVTZ-JKFIT

    Orbital Energies [Eh]
    ---------------------

    Doubly Occupied:

       1A    -20.622197     2A    -20.549695     3A    -11.397090
       4A    -11.238837     5A    -11.225792     6A    -11.222994
       7A    -11.216355     8A     -1.462779     9A     -1.357790
      10A     -1.140378    11A     -1.018496    12A     -0.891446
      13A     -0.846760    14A     -0.748755    15A     -0.708697
      16A     -0.664015    17A     -0.660594    18A     -0.630730
      19A     -0.605561    20A     -0.584250    21A     -0.555525
      22A     -0.524331    23A     -0.501693    24A     -0.492204
      25A     -0.480860    26A     -0.426808    27A     -0.418566

  @DF-RHF Final Energy:  -343.78509852301079

   => Energetics <=

    Nuclear Repulsion Energy =            294.1267806714688504
    One-Electron Energy =               -1051.4373637283033531
    Two-Electron Energy =                 413.5254845338237146
    Total Energy =                       -343.7850985230107881
  Basis Set: (AUG-CC-PVTZ AUX)
    Blend: AUG-CC-PVTZ-RI
    Molecular point group: c1

    Geometry (in Angstrom), charge = 0, multiplicity = 1:

       Center              X                  Y                   Z               Mass
    ------------   -----------------  -----------------  -----------------  -----------------
         O            2.556588815551    -0.070161237389     0.207069641171    15.994914619570
         O            0.846512815551     1.251797762611    -0.428381358829    15.994914619570
         C           -1.793104184449    -0.163884237389    -0.586026358829    12.000000000000
         C           -2.560634184449     0.654755762611     0.455754641171    12.000000000000
         C           -0.878386184449    -1.144778237389     0.080673641171    12.000000000000
         C            0.241597315551    -1.032213737389     0.288966241171    12.000000000000
         C            1.239371815551     0.172435762611    -0.022292358829    12.000000000000
         H           -2.501689184449    -0.718522237389    -1.211148358829     1.007825032230
         H           -1.236281184449     0.510284762611    -1.233873358829     1.007825032230
         H           -3.268529184449     1.329527762611    -0.033400358829     1.007825032230
         H           -1.864640184449     1.255426762611     1.047064641171     1.007825032230
         H           -3.121532184449     0.005979762611     1.135102641171     1.007825032230
         H           -1.343252184449    -2.072803237389     0.414278641171     1.007825032230
         H            0.976617815551    -1.804184237389     0.835184641171     1.007825032230
         H            3.013978815551     0.764045762611    -0.025515358829     1.007825032230

  Basis Set: AUG-CC-PVTZ
    Blend: AUG-CC-PVTZ
  Basis Set: (AUG-CC-PVTZ AUX)
    Blend: AUG-CC-PVTZ-JKFIT
	 Reference Energy          =    -343.7850985230107881 [Eh]
	 Singles Energy            =      -0.0000000000000000 [Eh]
	 Same-Spin Energy          =      -0.3399517842689683 [Eh]
	 Opposite-Spin Energy      =      -1.0979417184772391 [Eh]
	 Correlation Energy        =      -1.4378935027462074 [Eh]
	 Total Energy              =    -345.2229920257569802 [Eh]

	 ================> DF-SCS-MP2 Energies <==================
	-----------------------------------------------------------
	 SCS Same-Spin Scale       =       0.3333333333333333 [-]
	 SCS Opposite-Spin Scale   =       1.2000000000000000 [-]
	 SCS Same-Spin Energy      =      -0.1133172614229894 [Eh]
	 SCS Opposite-Spin Energy  =      -1.3175300621726869 [Eh]
	 SCS Correlation Energy    =      -1.4308473235956762 [Eh]
	 SCS Total Energy          =    -345.2159458466064734 [Eh]
	-----------------------------------------------------------

  Dipole Moment: [D]
     X:    -0.0953      Y:    -0.9561      Z:     0.2799     Total:     1.0007

*** Psi4 exiting successfully. Buy a developer a beer!
