                               Psi4 1.3.2 release

  ==> Input File <==

--------------------------------------------------------------------------
#psi4
#
memory 32 gb

molecule  {
0 1
  O        2.5331200    -0.0725200     0.2027050
  O        0.8230440     1.2494390    -0.4327460
  C       -1.8165730    -0.1662430    -0.5903910
  C       -2.5841030     0.6523970     0.4513900
  C       -0.9018550    -1.1471370     0.0763090
  C        0.4138040    -1.0149060     0.3209930
  C        1.2019115     0.1035756    -0.0056099
  H       -2.5251580    -0.7208810    -1.2155130
  H       -1.2597500     0.5079260    -1.2382380
  H       -3.2919980     1.3271690    -0.0377650
  H       -1.8881090     1.2530680     1.0427000
  H       -3.1450010     0.0036210     1.1307380
  H       -1.3667210    -2.0751620     0.4099140
  H        0.9531490    -1.8065430     0.8308200
  H        3.0348867     0.7392830    -0.0173150
units angstrom
no_reorient  #important for SAPT in psi4, default
symmetry c1  #important for SAPT in psi4, default
}

set PROPERTIES_ORIGIN ["COM"]
properties('MP2/aug-cc-pvtz', properties = ['dipole'])
--------------------------------------------------------------------------

    Molecular point group: c1
  Charge       = 0
  Multiplicity = 1
  Basis Set: AUG-CC-PVTZ
    Blend: AUG-CC-PVTZ
  Basis Set: (AUG-CC-PVTZ AUX)
    Blend: AUG-CC-PVTZ-JKFIT

    Orbital Energies [Eh]
    ---------------------

    Doubly Occupied:

       1A    -20.608706     2A    -20.531552     3A    -11.389666
       4A    -11.282327     5A    -11.243011     6A    -11.234302
       7A    -11.223334     8A     -1.443025     9A     -1.313752
      10A     -1.115268    11A     -1.030434    12A     -0.921509
      13A     -0.844913    14A     -0.761038    15A     -0.702250
      16A     -0.667371    17A     -0.651331    18A     -0.619287
      19A     -0.596425    20A     -0.580164    21A     -0.562335
      22A     -0.529469    23A     -0.503484    24A     -0.496012
      25A     -0.465583    26A     -0.437592    27A     -0.384193

  @DF-RHF Final Energy:  -343.84280728476085

   => Energetics <=

    Nuclear Repulsion Energy =            292.5434378961120956
    One-Electron Energy =               -1048.4958250403105922
    Two-Electron Energy =                 412.1095798594376447
    Total Energy =                       -343.8428072847608519
  Basis Set: (AUG-CC-PVTZ AUX)
    Blend: AUG-CC-PVTZ-RI
    Molecular point group: c1

    Geometry (in Angstrom), charge = 0, multiplicity = 1:

       Center              X                  Y                   Z               Mass
    ------------   -----------------  -----------------  -----------------  -----------------
         O            2.534351155154    -0.064318319681     0.200054066186    15.994914619570
         O            0.824275155154     1.257640680319    -0.435396933814    15.994914619570
         C           -1.815341844846    -0.158041319681    -0.593041933814    12.000000000000
         C           -2.582871844846     0.660598680319     0.448739066186    12.000000000000
         C           -0.900623844846    -1.138935319681     0.073658066186    12.000000000000
         C            0.415035155154    -1.006704319681     0.318342066186    12.000000000000
         C            1.203142655154     0.111777280319    -0.008260833814    12.000000000000
         H           -2.523926844846    -0.712679319681    -1.218163933814     1.007825032230
         H           -1.258518844846     0.516127680319    -1.240888933814     1.007825032230
         H           -3.290766844846     1.335370680319    -0.040415933814     1.007825032230
         H           -1.886877844846     1.261269680319     1.040049066186     1.007825032230
         H           -3.143769844846     0.011822680319     1.128087066186     1.007825032230
         H           -1.365489844846    -2.066960319681     0.407263066186     1.007825032230
         H            0.954380155154    -1.798341319681     0.828169066186     1.007825032230
         H            3.036117855154     0.747484680319    -0.019965933814     1.007825032230

  Basis Set: AUG-CC-PVTZ
    Blend: AUG-CC-PVTZ
  Basis Set: (AUG-CC-PVTZ AUX)
    Blend: AUG-CC-PVTZ-JKFIT
	 Reference Energy          =    -343.8428072847608519 [Eh]
	 Singles Energy            =      -0.0000000000000000 [Eh]
	 Same-Spin Energy          =      -0.3426108737318702 [Eh]
	 Opposite-Spin Energy      =      -1.1026823017893204 [Eh]
	 Correlation Energy        =      -1.4452931755211904 [Eh]
	 Total Energy              =    -345.2881004602820667 [Eh]

	 ================> DF-SCS-MP2 Energies <==================
	-----------------------------------------------------------
	 SCS Same-Spin Scale       =       0.3333333333333333 [-]
	 SCS Opposite-Spin Scale   =       1.2000000000000000 [-]
	 SCS Same-Spin Energy      =      -0.1142036245772901 [Eh]
	 SCS Opposite-Spin Energy  =      -1.3232187621471845 [Eh]
	 SCS Correlation Energy    =      -1.4374223867244744 [Eh]
	 SCS Total Energy          =    -345.2802296714853014 [Eh]
	-----------------------------------------------------------

  Dipole Moment: [D]
     X:    -0.5407      Y:    -1.5022      Z:     0.4564     Total:     1.6605

*** Psi4 exiting successfully. Buy a developer a beer!
