                               Psi4 1.4a3.dev225

  ==> Input File <==

--------------------------------------------------------------------------
#psi4
#
memory 32 gb

molecule  {
0 1
  O        2.6043210     0.0828630    -0.1445960
  O        0.8461570    -1.2916990     0.2386850
  C       -1.7394130     0.0979440     0.6095950
  C       -2.3802920    -0.6692310    -0.5542970
  C       -0.8230420     1.1744430     0.1086050
  C        0.5090479     1.0667247    -0.1776296
  C        1.2721580    -0.1688410     0.0026710
  H       -2.5220070     0.5621210     1.2198080
  H       -1.1892610    -0.6035630     1.2386490
  H       -3.0933810    -1.4091330    -0.1797240
  H       -1.6064800    -1.1915300    -1.1205690
  H       -2.9131760     0.0061510    -1.2301320
  H       -1.2820910     2.1452700    -0.0812320
  H        1.0432440     1.9287000    -0.5363220
  H        3.0455250    -0.7830240    -0.0219810
units angstrom
no_reorient  #important for SAPT in psi4, default
symmetry c1  #important for SAPT in psi4, default
}

set PROPERTIES_ORIGIN ["COM"]
properties('MP2/aug-cc-pvtz', properties = ['dipole'])
--------------------------------------------------------------------------

    Molecular point group: c1
  Charge       = 0
  Multiplicity = 1
  Basis Set: AUG-CC-PVTZ
    Blend: AUG-CC-PVTZ
  Basis Set: (AUG-CC-PVTZ AUX)
    Blend: AUG-CC-PVTZ-JKFIT

    Orbital Energies [Eh]
    ---------------------

    Doubly Occupied:

       1A    -20.610716     2A    -20.544539     3A    -11.388802
       4A    -11.276291     5A    -11.244439     6A    -11.233038
       7A    -11.219837     8A     -1.454444     9A     -1.350089
      10A     -1.102798    11A     -1.018444    12A     -0.909324
      13A     -0.838589    14A     -0.751196    15A     -0.707806
      16A     -0.675416    17A     -0.644750    18A     -0.625756
      19A     -0.599594    20A     -0.579946    21A     -0.568658
      22A     -0.526907    23A     -0.502966    24A     -0.496240
      25A     -0.479222    26A     -0.446007    27A     -0.376891

  @DF-RHF Final Energy:  -343.85377657585491

   => Energetics <=

    Nuclear Repulsion Energy =            293.6507569939121254
    One-Electron Energy =               -1050.6636566516431230
    Two-Electron Energy =                 413.1591230818760323
    Total Energy =                       -343.8537765758549085
  Basis Set: (AUG-CC-PVTZ AUX)
    Blend: AUG-CC-PVTZ-RI
    Molecular point group: c1

    Geometry (in Angstrom), charge = 0, multiplicity = 1:

       Center              X                  Y                   Z               Mass
    ------------   -----------------  -----------------  -----------------  -----------------
         O            2.517693117554     0.089485876415    -0.151144644456    15.994914619570
         O            0.759529117554    -1.285076123585     0.232136355544    15.994914619570
         C           -1.826040882446     0.104566876415     0.603046355544    12.000000000000
         C           -2.466919882446    -0.662608123585    -0.560845644456    12.000000000000
         C           -0.909669882446     1.181065876415     0.102056355544    12.000000000000
         C            0.422420017554     1.073347576415    -0.184178244456    12.000000000000
         C            1.185530117554    -0.162218123585    -0.003877644456    12.000000000000
         H           -2.608634882446     0.568743876415     1.213259355544     1.007825032230
         H           -1.275888882446    -0.596940123585     1.232100355544     1.007825032230
         H           -3.180008882446    -1.402510123585    -0.186272644456     1.007825032230
         H           -1.693107882446    -1.184907123585    -1.127117644456     1.007825032230
         H           -2.999803882446     0.012773876415    -1.236680644456     1.007825032230
         H           -1.368718882446     2.151892876415    -0.087780644456     1.007825032230
         H            0.956616117554     1.935322876415    -0.542870644456     1.007825032230
         H            2.958897117554    -0.776401123585    -0.028529644456     1.007825032230

  Basis Set: AUG-CC-PVTZ
    Blend: AUG-CC-PVTZ
  Basis Set: (AUG-CC-PVTZ AUX)
    Blend: AUG-CC-PVTZ-JKFIT
	 Reference Energy          =    -343.8537765758549085 [Eh]
	 Singles Energy            =      -0.0000000000000000 [Eh]
	 Same-Spin Energy          =      -0.3416059071684122 [Eh]
	 Opposite-Spin Energy      =      -1.1012590418774906 [Eh]
	 Correlation Energy        =      -1.4428649490459029 [Eh]
	 Total Energy              =    -345.2966415249007923 [Eh]

	 ================> DF-SCS-MP2 Energies <==================
	-----------------------------------------------------------
	 SCS Same-Spin Scale       =       0.3333333333333333 [-]
	 SCS Opposite-Spin Scale   =       1.2000000000000000 [-]
	 SCS Same-Spin Energy      =      -0.1138686357228041 [Eh]
	 SCS Opposite-Spin Energy  =      -1.3215108502529886 [Eh]
	 SCS Correlation Energy    =      -1.4353794859757927 [Eh]
	 SCS Total Energy          =    -345.2891560618306812 [Eh]
	-----------------------------------------------------------

  Dipole Moment: [D]
     X:    -0.3935      Y:     1.1720      Z:    -0.1338     Total:     1.2435

*** Psi4 exiting successfully. Buy a developer a beer!
