                               Psi4 1.3.2 release

  ==> Input File <==

--------------------------------------------------------------------------
#psi4
#
memory 32 gb

molecule  {
0 1
  O        2.5331200    -0.0725200     0.2027050
  O        0.8230440     1.2494390    -0.4327460
  C       -1.8364167    -0.1829698    -0.5872623
  C       -2.5841030     0.6523970     0.4513900
  C       -0.9018550    -1.1471370     0.0763090
  C        0.4138976    -1.0361963     0.3308695
  C        1.2159030     0.1700770    -0.0266570
  H       -2.5251580    -0.7208810    -1.2155130
  H       -1.2597500     0.5079260    -1.2382380
  H       -3.2919980     1.3271690    -0.0377650
  H       -1.8881090     1.2530680     1.0427000
  H       -3.1450010     0.0036210     1.1307380
  H       -1.3667210    -2.0751620     0.4099140
  H        0.9531490    -1.8065430     0.8308200
  H        2.9905100     0.7616870    -0.0298800
units angstrom
no_reorient  #important for SAPT in psi4, default
symmetry c1  #important for SAPT in psi4, default
}

set PROPERTIES_ORIGIN ["COM"]
properties('MP2/aug-cc-pvtz', properties = ['dipole'])
--------------------------------------------------------------------------

    Molecular point group: c1
  Charge       = 0
  Multiplicity = 1
  Basis Set: AUG-CC-PVTZ
    Blend: AUG-CC-PVTZ
  Basis Set: (AUG-CC-PVTZ AUX)
    Blend: AUG-CC-PVTZ-JKFIT

    Orbital Energies [Eh]
    ---------------------

    Doubly Occupied:

       1A    -20.611332     2A    -20.545367     3A    -11.389259
       4A    -11.269826     5A    -11.243874     6A    -11.231927
       7A    -11.221058     8A     -1.457915     9A     -1.352679
      10A     -1.104448    11A     -1.019767    12A     -0.906847
      13A     -0.840189    14A     -0.750787    15A     -0.708519
      16A     -0.677614    17A     -0.645758    18A     -0.627457
      19A     -0.601071    20A     -0.586581    21A     -0.563818
      22A     -0.529091    23A     -0.503917    24A     -0.496594
      25A     -0.481028    26A     -0.442010    27A     -0.381450

  @DF-RHF Final Energy:  -343.85547106055628

   => Energetics <=

    Nuclear Repulsion Energy =            292.3605704734491155
    One-Electron Energy =               -1048.0517185557230277
    Two-Electron Energy =                 411.8356770217176290
    Total Energy =                       -343.8554710605562832
  Basis Set: (AUG-CC-PVTZ AUX)
    Blend: AUG-CC-PVTZ-RI
    Molecular point group: c1

    Geometry (in Angstrom), charge = 0, multiplicity = 1:

       Center              X                  Y                   Z               Mass
    ------------   -----------------  -----------------  -----------------  -----------------
         O            2.535488830168    -0.067960319319     0.201145155349    15.994914619570
         O            0.825412830168     1.253998680681    -0.434305844651    15.994914619570
         C           -1.834047869832    -0.178410119319    -0.588822144651    12.000000000000
         C           -2.581734169832     0.656956680681     0.449830155349    12.000000000000
         C           -0.899486169832    -1.142577319319     0.074749155349    12.000000000000
         C            0.416266430168    -1.031636619319     0.329309655349    12.000000000000
         C            1.218271830168     0.174636680681    -0.028216844651    12.000000000000
         H           -2.522789169832    -0.716321319319    -1.217072844651     1.007825032230
         H           -1.257381169832     0.512485680681    -1.239797844651     1.007825032230
         H           -3.289629169832     1.331728680681    -0.039324844651     1.007825032230
         H           -1.885740169832     1.257627680681     1.041140155349     1.007825032230
         H           -3.142632169832     0.008180680681     1.129178155349     1.007825032230
         H           -1.364352169832    -2.070602319319     0.408354155349     1.007825032230
         H            0.955517830168    -1.801983319319     0.829260155349     1.007825032230
         H            2.992878830168     0.766246680681    -0.031439844651     1.007825032230

  Basis Set: AUG-CC-PVTZ
    Blend: AUG-CC-PVTZ
  Basis Set: (AUG-CC-PVTZ AUX)
    Blend: AUG-CC-PVTZ-JKFIT
	 Reference Energy          =    -343.8554710605562832 [Eh]
	 Singles Energy            =      -0.0000000000000000 [Eh]
	 Same-Spin Energy          =      -0.3408013724547360 [Eh]
	 Opposite-Spin Energy      =      -1.0998409215589275 [Eh]
	 Correlation Energy        =      -1.4406422940136636 [Eh]
	 Total Energy              =    -345.2961133545699681 [Eh]

	 ================> DF-SCS-MP2 Energies <==================
	-----------------------------------------------------------
	 SCS Same-Spin Scale       =       0.3333333333333333 [-]
	 SCS Opposite-Spin Scale   =       1.2000000000000000 [-]
	 SCS Same-Spin Energy      =      -0.1136004574849120 [Eh]
	 SCS Opposite-Spin Energy  =      -1.3198091058707131 [Eh]
	 SCS Correlation Energy    =      -1.4334095633556250 [Eh]
	 SCS Total Energy          =    -345.2888806239118935 [Eh]
	-----------------------------------------------------------

  Dipole Moment: [D]
     X:    -0.4055      Y:    -1.1062      Z:     0.3297     Total:     1.2235

*** Psi4 exiting successfully. Buy a developer a beer!
