                               Psi4 1.3.2 release

  ==> Input File <==

--------------------------------------------------------------------------
#psi4
#
memory 32 gb

molecule  {
0 1
  O        2.5331200    -0.0725200     0.2027050
  O        0.8230440     1.2494390    -0.4327460
  C       -1.8165730    -0.1662430    -0.5903910
  C       -2.5841030     0.6523970     0.4513900
  C       -0.9018550    -1.1471370     0.0763090
  C        0.4138040    -1.0149060     0.3209930
  C        1.2185871     0.1811008    -0.0301053
  H       -2.5251580    -0.7208810    -1.2155130
  H       -1.2597500     0.5079260    -1.2382380
  H       -3.2919980     1.3271690    -0.0377650
  H       -1.8881090     1.2530680     1.0427000
  H       -3.1450010     0.0036210     1.1307380
  H       -1.3667210    -2.0751620     0.4099140
  H        0.9531490    -1.8065430     0.8308200
  H        2.9829887     0.7652003    -0.0319131
units angstrom
no_reorient  #important for SAPT in psi4, default
symmetry c1  #important for SAPT in psi4, default
}

set PROPERTIES_ORIGIN ["COM"]
properties('MP2/aug-cc-pvtz', properties = ['dipole'])
--------------------------------------------------------------------------

    Molecular point group: c1
  Charge       = 0
  Multiplicity = 1
  Basis Set: AUG-CC-PVTZ
    Blend: AUG-CC-PVTZ
  Basis Set: (AUG-CC-PVTZ AUX)
    Blend: AUG-CC-PVTZ-JKFIT

    Orbital Energies [Eh]
    ---------------------

    Doubly Occupied:

       1A    -20.611690     2A    -20.546614     3A    -11.387900
       4A    -11.269113     5A    -11.243096     6A    -11.231131
       7A    -11.220836     8A     -1.461224     9A     -1.358641
      10A     -1.104040    11A     -1.018054    12A     -0.906822
      13A     -0.839118    14A     -0.751378    15A     -0.709126
      16A     -0.674846    17A     -0.647307    18A     -0.629782
      19A     -0.601953    20A     -0.583769    21A     -0.566322
      22A     -0.527369    23A     -0.504174    24A     -0.495863
      25A     -0.484128    26A     -0.444559    27A     -0.380290

  @DF-RHF Final Energy:  -343.85717477526373

   => Energetics <=

    Nuclear Repulsion Energy =            292.8694406376162078
    One-Electron Energy =               -1049.0549400516197238
    Two-Electron Energy =                 412.3283246387397867
    Total Energy =                       -343.8571747752637293
  Basis Set: (AUG-CC-PVTZ AUX)
    Blend: AUG-CC-PVTZ-RI
    Molecular point group: c1

    Geometry (in Angstrom), charge = 0, multiplicity = 1:

       Center              X                  Y                   Z               Mass
    ------------   -----------------  -----------------  -----------------  -----------------
         O            2.532873898707    -0.073877532871     0.203139020066    15.994914619570
         O            0.822797898707     1.248081467129    -0.432311979934    15.994914619570
         C           -1.816819101293    -0.167600532871    -0.589956979934    12.000000000000
         C           -2.584349101293     0.651039467129     0.451824020066    12.000000000000
         C           -0.902101101293    -1.148494532871     0.076743020066    12.000000000000
         C            0.413557898707    -1.016263532871     0.321427020066    12.000000000000
         C            1.218340998707     0.179743267129    -0.029671279934    12.000000000000
         H           -2.525404101293    -0.722238532871    -1.215078979934     1.007825032230
         H           -1.259996101293     0.506568467129    -1.237803979934     1.007825032230
         H           -3.292244101293     1.325811467129    -0.037330979934     1.007825032230
         H           -1.888355101293     1.251710467129     1.043134020066     1.007825032230
         H           -3.145247101293     0.002263467129     1.131172020066     1.007825032230
         H           -1.366967101293    -2.076519532871     0.410348020066     1.007825032230
         H            0.952902898707    -1.807900532871     0.831254020066     1.007825032230
         H            2.982742598707     0.763842767129    -0.031479079934     1.007825032230

  Basis Set: AUG-CC-PVTZ
    Blend: AUG-CC-PVTZ
  Basis Set: (AUG-CC-PVTZ AUX)
    Blend: AUG-CC-PVTZ-JKFIT
	 Reference Energy          =    -343.8571747752637293 [Eh]
	 Singles Energy            =      -0.0000000000000000 [Eh]
	 Same-Spin Energy          =      -0.3406978484149329 [Eh]
	 Opposite-Spin Energy      =      -1.0994906462509462 [Eh]
	 Correlation Energy        =      -1.4401884946658789 [Eh]
	 Total Energy              =    -345.2973632699296331 [Eh]

	 ================> DF-SCS-MP2 Energies <==================
	-----------------------------------------------------------
	 SCS Same-Spin Scale       =       0.3333333333333333 [-]
	 SCS Opposite-Spin Scale   =       1.2000000000000000 [-]
	 SCS Same-Spin Energy      =      -0.1135659494716443 [Eh]
	 SCS Opposite-Spin Energy  =      -1.3193887755011353 [Eh]
	 SCS Correlation Energy    =      -1.4329547249727796 [Eh]
	 SCS Total Energy          =    -345.2901295002365032 [Eh]
	-----------------------------------------------------------

  Dipole Moment: [D]
     X:    -0.4047      Y:    -1.0560      Z:     0.3133     Total:     1.1735

*** Psi4 exiting successfully. Buy a developer a beer!
