                               Psi4 1.4a3.dev225

  ==> Input File <==

--------------------------------------------------------------------------
#psi4
#
memory 32 gb

molecule  {
0 1
  O        2.6043210     0.0828630    -0.1445960
  O        0.8461570    -1.2916990     0.2386850
  C       -1.7394130     0.0979440     0.6095950
  C       -2.3802920    -0.6692310    -0.5542970
  C       -0.8230420     1.1744430     0.1086050
  C        0.4895550     1.0683010    -0.1734410
  C        1.2791192    -0.1504925    -0.0011857
  H       -2.5220070     0.5621210     1.2198080
  H       -1.1892610    -0.6035630     1.2386490
  H       -3.0933810    -1.4091330    -0.1797240
  H       -1.6064800    -1.1915300    -1.1205690
  H       -2.9131760     0.0061510    -1.2301320
  H       -1.2820910     2.1452700    -0.0812320
  H        1.0432440     1.9287000    -0.5363220
  H        3.0455250    -0.7830240    -0.0219810
units angstrom
no_reorient  #important for SAPT in psi4, default
symmetry c1  #important for SAPT in psi4, default
}

set PROPERTIES_ORIGIN ["COM"]
properties('MP2/aug-cc-pvtz', properties = ['dipole'])
--------------------------------------------------------------------------

    Molecular point group: c1
  Charge       = 0
  Multiplicity = 1
  Basis Set: AUG-CC-PVTZ
    Blend: AUG-CC-PVTZ
  Basis Set: (AUG-CC-PVTZ AUX)
    Blend: AUG-CC-PVTZ-JKFIT

    Orbital Energies [Eh]
    ---------------------

    Doubly Occupied:

       1A    -20.615014     2A    -20.541182     3A    -11.390931
       4A    -11.273747     5A    -11.244164     6A    -11.232176
       7A    -11.219062     8A     -1.455695     9A     -1.340479
      10A     -1.105987    11A     -1.019448    12A     -0.911235
      13A     -0.840955    14A     -0.753981    15A     -0.706584
      16A     -0.673670    17A     -0.647164    18A     -0.626251
      19A     -0.598485    20A     -0.578596    21A     -0.566880
      22A     -0.526137    23A     -0.501715    24A     -0.494936
      25A     -0.474972    26A     -0.443549    27A     -0.381035

  @DF-RHF Final Energy:  -343.85315543922121

   => Energetics <=

    Nuclear Repulsion Energy =            293.6446044458022016
    One-Electron Energy =               -1050.6674600815035774
    Two-Electron Energy =                 413.1697001964801643
    Total Energy =                       -343.8531554392212115
  Basis Set: (AUG-CC-PVTZ AUX)
    Blend: AUG-CC-PVTZ-RI
    Molecular point group: c1

    Geometry (in Angstrom), charge = 0, multiplicity = 1:

       Center              X                  Y                   Z               Mass
    ------------   -----------------  -----------------  -----------------  -----------------
         O            2.519196133530     0.087096153335    -0.151184451585    15.994914619570
         O            0.761032133530    -1.287465846665     0.232096548415    15.994914619570
         C           -1.824537866470     0.102177153335     0.603006548415    12.000000000000
         C           -2.465416866470    -0.664997846665    -0.560885451585    12.000000000000
         C           -0.908166866470     1.178676153335     0.102016548415    12.000000000000
         C            0.404430133530     1.072534153335    -0.180029451585    12.000000000000
         C            1.193994333530    -0.146259346665    -0.007774151585    12.000000000000
         H           -2.607131866470     0.566354153335     1.213219548415     1.007825032230
         H           -1.274385866470    -0.599329846665     1.232060548415     1.007825032230
         H           -3.178505866470    -1.404899846665    -0.186312451585     1.007825032230
         H           -1.691604866470    -1.187296846665    -1.127157451585     1.007825032230
         H           -2.998300866470     0.010384153335    -1.236720451585     1.007825032230
         H           -1.367215866470     2.149503153335    -0.087820451585     1.007825032230
         H            0.958119133530     1.932933153335    -0.542910451585     1.007825032230
         H            2.960400133530    -0.778790846665    -0.028569451585     1.007825032230

  Basis Set: AUG-CC-PVTZ
    Blend: AUG-CC-PVTZ
  Basis Set: (AUG-CC-PVTZ AUX)
    Blend: AUG-CC-PVTZ-JKFIT
	 Reference Energy          =    -343.8531554392212115 [Eh]
	 Singles Energy            =      -0.0000000000000000 [Eh]
	 Same-Spin Energy          =      -0.3417243958496148 [Eh]
	 Opposite-Spin Energy      =      -1.1014124713846831 [Eh]
	 Correlation Energy        =      -1.4431368672342979 [Eh]
	 Total Energy              =    -345.2962923064554843 [Eh]

	 ================> DF-SCS-MP2 Energies <==================
	-----------------------------------------------------------
	 SCS Same-Spin Scale       =       0.3333333333333333 [-]
	 SCS Opposite-Spin Scale   =       1.2000000000000000 [-]
	 SCS Same-Spin Energy      =      -0.1139081319498716 [Eh]
	 SCS Opposite-Spin Energy  =      -1.3216949656616197 [Eh]
	 SCS Correlation Energy    =      -1.4356030976114913 [Eh]
	 SCS Total Energy          =    -345.2887585368326882 [Eh]
	-----------------------------------------------------------

  Dipole Moment: [D]
     X:    -0.2963      Y:     1.2615      Z:    -0.1541     Total:     1.3050

*** Psi4 exiting successfully. Buy a developer a beer!
