                               Psi4 1.3.2 release

  ==> Input File <==

--------------------------------------------------------------------------
#psi4
#
memory 32 gb

molecule  {
0 1
  O        2.5382438    -0.0506009     0.1952372
  O        0.8230440     1.2494390    -0.4327460
  C       -1.8165730    -0.1662430    -0.5903910
  C       -2.5841030     0.6523970     0.4513900
  C       -0.9018550    -1.1471370     0.0763090
  C        0.3925268    -1.0022494     0.3140930
  C        1.2159030     0.1700770    -0.0266570
  H       -2.5251580    -0.7208810    -1.2155130
  H       -1.2597500     0.5079260    -1.2382380
  H       -3.2919980     1.3271690    -0.0377650
  H       -1.8881090     1.2530680     1.0427000
  H       -3.1450010     0.0036210     1.1307380
  H       -1.3667210    -2.0751620     0.4099140
  H        0.9531490    -1.8065430     0.8308200
  H        2.9905100     0.7616870    -0.0298800
units angstrom
no_reorient  #important for SAPT in psi4, default
symmetry c1  #important for SAPT in psi4, default
}

set PROPERTIES_ORIGIN ["COM"]
properties('MP2/aug-cc-pvtz', properties = ['dipole'])
--------------------------------------------------------------------------

    Molecular point group: c1
  Charge       = 0
  Multiplicity = 1
  Basis Set: AUG-CC-PVTZ
    Blend: AUG-CC-PVTZ
  Basis Set: (AUG-CC-PVTZ AUX)
    Blend: AUG-CC-PVTZ-JKFIT

    Orbital Energies [Eh]
    ---------------------

    Doubly Occupied:

       1A    -20.609558     2A    -20.543763     3A    -11.388967
       4A    -11.267593     5A    -11.243953     6A    -11.230726
       7A    -11.220718     8A     -1.461166     9A     -1.353397
      10A     -1.109048    11A     -1.020232    12A     -0.911114
      13A     -0.842531    14A     -0.756589    15A     -0.707551
      16A     -0.671322    17A     -0.650715    18A     -0.628565
      19A     -0.602176    20A     -0.582106    21A     -0.566805
      22A     -0.527056    23A     -0.503073    24A     -0.494686
      25A     -0.481484    26A     -0.443104    27A     -0.385676

  @DF-RHF Final Energy:  -343.85753706884526

   => Energetics <=

    Nuclear Repulsion Energy =            293.1715285743586037
    One-Electron Energy =               -1049.6507807535649590
    Two-Electron Energy =                 412.6217151103610945
    Total Energy =                       -343.8575370688452608
  Basis Set: (AUG-CC-PVTZ AUX)
    Blend: AUG-CC-PVTZ-RI
    Molecular point group: c1

    Geometry (in Angstrom), charge = 0, multiplicity = 1:

       Center              X                  Y                   Z               Mass
    ------------   -----------------  -----------------  -----------------  -----------------
         O            2.539976668164    -0.055622980980     0.197258569970    15.994914619570
         O            0.824776868164     1.244416919020    -0.430724630030    15.994914619570
         C           -1.814840131836    -0.171265080980    -0.588369630030    12.000000000000
         C           -2.582370131836     0.647374919020     0.453411369970    12.000000000000
         C           -0.900122131836    -1.152159080980     0.078330369970    12.000000000000
         C            0.394259668164    -1.007271480980     0.316114369970    12.000000000000
         C            1.217635868164     0.165054919020    -0.024635630030    12.000000000000
         H           -2.523425131836    -0.725903080980    -1.213491630030     1.007825032230
         H           -1.258017131836     0.502903919020    -1.236216630030     1.007825032230
         H           -3.290265131836     1.322146919020    -0.035743630030     1.007825032230
         H           -1.886376131836     1.248045919020     1.044721369970     1.007825032230
         H           -3.143268131836    -0.001401080980     1.132759369970     1.007825032230
         H           -1.364988131836    -2.080184080980     0.411935369970     1.007825032230
         H            0.954881868164    -1.811565080980     0.832841369970     1.007825032230
         H            2.992242868164     0.756664919020    -0.027858630030     1.007825032230

  Basis Set: AUG-CC-PVTZ
    Blend: AUG-CC-PVTZ
  Basis Set: (AUG-CC-PVTZ AUX)
    Blend: AUG-CC-PVTZ-JKFIT
	 Reference Energy          =    -343.8575370688452608 [Eh]
	 Singles Energy            =      -0.0000000000000000 [Eh]
	 Same-Spin Energy          =      -0.3403517983305598 [Eh]
	 Opposite-Spin Energy      =      -1.0986407120185204 [Eh]
	 Correlation Energy        =      -1.4389925103490802 [Eh]
	 Total Energy              =    -345.2965295791943277 [Eh]

	 ================> DF-SCS-MP2 Energies <==================
	-----------------------------------------------------------
	 SCS Same-Spin Scale       =       0.3333333333333333 [-]
	 SCS Opposite-Spin Scale   =       1.2000000000000000 [-]
	 SCS Same-Spin Energy      =      -0.1134505994435199 [Eh]
	 SCS Opposite-Spin Energy  =      -1.3183688544222245 [Eh]
	 SCS Correlation Energy    =      -1.4318194538657445 [Eh]
	 SCS Total Energy          =    -345.2893565227109889 [Eh]
	-----------------------------------------------------------

  Dipole Moment: [D]
     X:    -0.4331      Y:    -1.1470      Z:     0.3360     Total:     1.2713

*** Psi4 exiting successfully. Buy a developer a beer!
