                               Psi4 1.3.2 release

  ==> Input File <==

--------------------------------------------------------------------------
#psi4
#
memory 32 gb

molecule  {
0 1
  O        2.5304076    -0.0834523     0.2064128
  O        0.8230440     1.2494390    -0.4327460
  C       -1.8165730    -0.1662430    -0.5903910
  C       -2.5841030     0.6523970     0.4513900
  C       -0.9018550    -1.1471370     0.0763090
  C        0.4245346    -1.0210992     0.3244034
  C        1.2159030     0.1700770    -0.0266570
  H       -2.5251580    -0.7208810    -1.2155130
  H       -1.2597500     0.5079260    -1.2382380
  H       -3.2919980     1.3271690    -0.0377650
  H       -1.8881090     1.2530680     1.0427000
  H       -3.1450010     0.0036210     1.1307380
  H       -1.3667210    -2.0751620     0.4099140
  H        0.9531490    -1.8065430     0.8308200
  H        2.9905100     0.7616870    -0.0298800
units angstrom
no_reorient  #important for SAPT in psi4, default
symmetry c1  #important for SAPT in psi4, default
}

set PROPERTIES_ORIGIN ["COM"]
properties('MP2/aug-cc-pvtz', properties = ['dipole'])
--------------------------------------------------------------------------

    Molecular point group: c1
  Charge       = 0
  Multiplicity = 1
  Basis Set: AUG-CC-PVTZ
    Blend: AUG-CC-PVTZ
  Basis Set: (AUG-CC-PVTZ AUX)
    Blend: AUG-CC-PVTZ-JKFIT

    Orbital Energies [Eh]
    ---------------------

    Doubly Occupied:

       1A    -20.612094     2A    -20.544950     3A    -11.387904
       4A    -11.272574     5A    -11.242907     6A    -11.231992
       7A    -11.221409     8A     -1.456625     9A     -1.352208
      10A     -1.103884    11A     -1.019496    12A     -0.908011
      13A     -0.838705    14A     -0.750668    15A     -0.707900
      16A     -0.675263    17A     -0.645588    18A     -0.627654
      19A     -0.600631    20A     -0.584437    21A     -0.565465
      22A     -0.527978    23A     -0.504455    24A     -0.495929
      25A     -0.481870    26A     -0.444699    27A     -0.378769

  @DF-RHF Final Energy:  -343.85496444270274

   => Energetics <=

    Nuclear Repulsion Energy =            292.6467928197048423
    One-Electron Energy =               -1048.6353850296200108
    Two-Electron Energy =                 412.1336277672124311
    Total Energy =                       -343.8549644427027374
  Basis Set: (AUG-CC-PVTZ AUX)
    Blend: AUG-CC-PVTZ-RI
    Molecular point group: c1

    Geometry (in Angstrom), charge = 0, multiplicity = 1:

       Center              X                  Y                   Z               Mass
    ------------   -----------------  -----------------  -----------------  -----------------
         O            2.529554281588    -0.080961790412     0.205410979336    15.994914619570
         O            0.822190681588     1.251929509588    -0.433747820664    15.994914619570
         C           -1.817426318412    -0.163752490412    -0.591392820664    12.000000000000
         C           -2.584956318412     0.654887509588     0.450388179336    12.000000000000
         C           -0.902708318412    -1.144646490412     0.075307179336    12.000000000000
         C            0.423681281588    -1.018608690412     0.323401579336    12.000000000000
         C            1.215049681588     0.172567509588    -0.027658820664    12.000000000000
         H           -2.526011318412    -0.718390490412    -1.216514820664     1.007825032230
         H           -1.260603318412     0.510416509588    -1.239239820664     1.007825032230
         H           -3.292851318412     1.329659509588    -0.038766820664     1.007825032230
         H           -1.888962318412     1.255558509588     1.041698179336     1.007825032230
         H           -3.145854318412     0.006111509588     1.129736179336     1.007825032230
         H           -1.367574318412    -2.072671490412     0.408912179336     1.007825032230
         H            0.952295681588    -1.804052490412     0.829818179336     1.007825032230
         H            2.989656681588     0.764177509588    -0.030881820664     1.007825032230

  Basis Set: AUG-CC-PVTZ
    Blend: AUG-CC-PVTZ
  Basis Set: (AUG-CC-PVTZ AUX)
    Blend: AUG-CC-PVTZ-JKFIT
	 Reference Energy          =    -343.8549644427027374 [Eh]
	 Singles Energy            =      -0.0000000000000000 [Eh]
	 Same-Spin Energy          =      -0.3412460059192837 [Eh]
	 Opposite-Spin Energy      =      -1.1005615796125245 [Eh]
	 Correlation Energy        =      -1.4418075855318082 [Eh]
	 Total Energy              =    -345.2967720282345567 [Eh]

	 ================> DF-SCS-MP2 Energies <==================
	-----------------------------------------------------------
	 SCS Same-Spin Scale       =       0.3333333333333333 [-]
	 SCS Opposite-Spin Scale   =       1.2000000000000000 [-]
	 SCS Same-Spin Energy      =      -0.1137486686397612 [Eh]
	 SCS Opposite-Spin Energy  =      -1.3206738955350295 [Eh]
	 SCS Correlation Energy    =      -1.4344225641747907 [Eh]
	 SCS Total Energy          =    -345.2893870068775186 [Eh]
	-----------------------------------------------------------

  Dipole Moment: [D]
     X:    -0.4215      Y:    -1.1090      Z:     0.3331     Total:     1.2322

*** Psi4 exiting successfully. Buy a developer a beer!
