                               Psi4 1.4a3.dev225

  ==> Input File <==

--------------------------------------------------------------------------
#psi4
#
memory 32 gb

molecule  {
0 1
  O        2.6043210     0.0828630    -0.1445960
  O        0.8461570    -1.2916990     0.2386850
  C       -1.7394130     0.0979440     0.6095950
  C       -2.3802920    -0.6692310    -0.5542970
  C       -0.7924934     1.2103297     0.0919038
  C        0.4895550     1.0683010    -0.1734410
  C        1.2721580    -0.1688410     0.0026710
  H       -2.5220070     0.5621210     1.2198080
  H       -1.1892610    -0.6035630     1.2386490
  H       -3.0933810    -1.4091330    -0.1797240
  H       -1.6064800    -1.1915300    -1.1205690
  H       -2.9131760     0.0061510    -1.2301320
  H       -1.2820910     2.1452700    -0.0812320
  H        1.0432440     1.9287000    -0.5363220
  H        3.0455250    -0.7830240    -0.0219810
units angstrom
no_reorient  #important for SAPT in psi4, default
symmetry c1  #important for SAPT in psi4, default
}

set PROPERTIES_ORIGIN ["COM"]
properties('MP2/aug-cc-pvtz', properties = ['dipole'])
--------------------------------------------------------------------------

    Molecular point group: c1
  Charge       = 0
  Multiplicity = 1
  Basis Set: AUG-CC-PVTZ
    Blend: AUG-CC-PVTZ
  Basis Set: (AUG-CC-PVTZ AUX)
    Blend: AUG-CC-PVTZ-JKFIT

    Orbital Energies [Eh]
    ---------------------

    Doubly Occupied:

       1A    -20.613762     2A    -20.547145     3A    -11.392329
       4A    -11.266087     5A    -11.241445     6A    -11.233255
       7A    -11.217149     8A     -1.456679     9A     -1.352363
      10A     -1.103942    11A     -1.016869    12A     -0.907183
      13A     -0.838279    14A     -0.753592    15A     -0.709051
      16A     -0.673587    17A     -0.648402    18A     -0.627165
      19A     -0.598257    20A     -0.582002    21A     -0.570353
      22A     -0.521583    23A     -0.497324    24A     -0.492525
      25A     -0.479473    26A     -0.444915    27A     -0.388839

  @DF-RHF Final Energy:  -343.85401768932400

   => Energetics <=

    Nuclear Repulsion Energy =            293.5358734087059247
    One-Electron Energy =               -1050.4326751539531415
    Two-Electron Energy =                 413.0427840559232209
    Total Energy =                       -343.8540176893239959
  Basis Set: (AUG-CC-PVTZ AUX)
    Blend: AUG-CC-PVTZ-RI
    Molecular point group: c1

    Geometry (in Angstrom), charge = 0, multiplicity = 1:

       Center              X                  Y                   Z               Mass
    ------------   -----------------  -----------------  -----------------  -----------------
         O            2.516367128763     0.084992672179    -0.149643919279    15.994914619570
         O            0.758203128763    -1.289569327821     0.233637080721    15.994914619570
         C           -1.827366871237     0.100073672179     0.604547080721    12.000000000000
         C           -2.468245871237    -0.667101327821    -0.559344919279    12.000000000000
         C           -0.880447271237     1.212459372179     0.086855880721    12.000000000000
         C            0.401601128763     1.070430672179    -0.178488919279    12.000000000000
         C            1.184204128763    -0.166711327821    -0.002376919279    12.000000000000
         H           -2.609960871237     0.564250672179     1.214760080721     1.007825032230
         H           -1.277214871237    -0.601433327821     1.233601080721     1.007825032230
         H           -3.181334871237    -1.407003327821    -0.184771919279     1.007825032230
         H           -1.694433871237    -1.189400327821    -1.125616919279     1.007825032230
         H           -3.001129871237     0.008280672179    -1.235179919279     1.007825032230
         H           -1.370044871237     2.147399672179    -0.086279919279     1.007825032230
         H            0.955290128763     1.930829672179    -0.541369919279     1.007825032230
         H            2.957571128763    -0.780894327821    -0.027028919279     1.007825032230

  Basis Set: AUG-CC-PVTZ
    Blend: AUG-CC-PVTZ
  Basis Set: (AUG-CC-PVTZ AUX)
    Blend: AUG-CC-PVTZ-JKFIT
	 Reference Energy          =    -343.8540176893239959 [Eh]
	 Singles Energy            =      -0.0000000000000000 [Eh]
	 Same-Spin Energy          =      -0.3406590984066205 [Eh]
	 Opposite-Spin Energy      =      -1.1000526368498056 [Eh]
	 Correlation Energy        =      -1.4407117352564260 [Eh]
	 Total Energy              =    -345.2947294245803960 [Eh]

	 ================> DF-SCS-MP2 Energies <==================
	-----------------------------------------------------------
	 SCS Same-Spin Scale       =       0.3333333333333333 [-]
	 SCS Opposite-Spin Scale   =       1.2000000000000000 [-]
	 SCS Same-Spin Energy      =      -0.1135530328022068 [Eh]
	 SCS Opposite-Spin Energy  =      -1.3200631642197667 [Eh]
	 SCS Correlation Energy    =      -1.4336161970219734 [Eh]
	 SCS Total Energy          =    -345.2876338863459864 [Eh]
	-----------------------------------------------------------

  Dipole Moment: [D]
     X:    -0.2621      Y:     1.1768      Z:    -0.1435     Total:     1.2142

*** Psi4 exiting successfully. Buy a developer a beer!
