                               Psi4 1.4a3.dev225

  ==> Input File <==

--------------------------------------------------------------------------
#psi4
#
memory 32 gb

molecule  {
0 1
  O        2.6043210     0.0828630    -0.1445960
  O        0.8461570    -1.2916990     0.2386850
  C       -1.7394130     0.0979440     0.6095950
  C       -2.3802920    -0.6692310    -0.5542970
  C       -0.8230420     1.1744430     0.1086050
  C        0.4895550     1.0683010    -0.1734410
  C        1.2916954    -0.1651495     0.0005112
  H       -2.5220070     0.5621210     1.2198080
  H       -1.1892610    -0.6035630     1.2386490
  H       -3.0933810    -1.4091330    -0.1797240
  H       -1.6064800    -1.1915300    -1.1205690
  H       -2.9131760     0.0061510    -1.2301320
  H       -1.2820910     2.1452700    -0.0812320
  H        1.0432440     1.9287000    -0.5363220
  H        3.0455250    -0.7830240    -0.0219810
units angstrom
no_reorient  #important for SAPT in psi4, default
symmetry c1  #important for SAPT in psi4, default
}

set PROPERTIES_ORIGIN ["COM"]
properties('MP2/aug-cc-pvtz', properties = ['dipole'])
--------------------------------------------------------------------------

    Molecular point group: c1
  Charge       = 0
  Multiplicity = 1
  Basis Set: AUG-CC-PVTZ
    Blend: AUG-CC-PVTZ
  Basis Set: (AUG-CC-PVTZ AUX)
    Blend: AUG-CC-PVTZ-JKFIT

    Orbital Energies [Eh]
    ---------------------

    Doubly Occupied:

       1A    -20.618188     2A    -20.542624     3A    -11.390856
       4A    -11.270615     5A    -11.243931     6A    -11.230933
       7A    -11.218103     8A     -1.462394     9A     -1.347773
      10A     -1.102892    11A     -1.016319    12A     -0.908811
      13A     -0.840568    14A     -0.754195    15A     -0.708297
      16A     -0.674613    17A     -0.647732    18A     -0.630397
      19A     -0.598586    20A     -0.578108    21A     -0.566208
      22A     -0.525158    23A     -0.501245    24A     -0.494729
      25A     -0.477221    26A     -0.443451    27A     -0.379339

  @DF-RHF Final Energy:  -343.85458499926864

   => Energetics <=

    Nuclear Repulsion Energy =            293.6531973900657135
    One-Electron Energy =               -1050.6689906724864159
    Two-Electron Energy =                 413.1612082831520070
    Total Energy =                       -343.8545849992686385
  Basis Set: (AUG-CC-PVTZ AUX)
    Blend: AUG-CC-PVTZ-RI
    Molecular point group: c1

    Geometry (in Angstrom), charge = 0, multiplicity = 1:

       Center              X                  Y                   Z               Mass
    ------------   -----------------  -----------------  -----------------  -----------------
         O            2.517687780352     0.088854071667    -0.151387972880    15.994914619570
         O            0.759523780352    -1.285707928333     0.231893027120    15.994914619570
         C           -1.826046219648     0.103935071667     0.602803027120    12.000000000000
         C           -2.466925219648    -0.663239928333    -0.561088972880    12.000000000000
         C           -0.909675219648     1.180434071667     0.101813027120    12.000000000000
         C            0.402921780352     1.074292071667    -0.180232972880    12.000000000000
         C            1.205062180352    -0.159158428333    -0.006280772880    12.000000000000
         H           -2.608640219648     0.568112071667     1.213016027120     1.007825032230
         H           -1.275894219648    -0.597571928333     1.231857027120     1.007825032230
         H           -3.180014219648    -1.403141928333    -0.186515972880     1.007825032230
         H           -1.693113219648    -1.185538928333    -1.127360972880     1.007825032230
         H           -2.999809219648     0.012142071667    -1.236923972880     1.007825032230
         H           -1.368724219648     2.151261071667    -0.088023972880     1.007825032230
         H            0.956610780352     1.934691071667    -0.543113972880     1.007825032230
         H            2.958891780352    -0.777032928333    -0.028772972880     1.007825032230

  Basis Set: AUG-CC-PVTZ
    Blend: AUG-CC-PVTZ
  Basis Set: (AUG-CC-PVTZ AUX)
    Blend: AUG-CC-PVTZ-JKFIT
	 Reference Energy          =    -343.8545849992686385 [Eh]
	 Singles Energy            =      -0.0000000000000000 [Eh]
	 Same-Spin Energy          =      -0.3413568604544183 [Eh]
	 Opposite-Spin Energy      =      -1.1007820756554043 [Eh]
	 Correlation Energy        =      -1.4421389361098225 [Eh]
	 Total Energy              =    -345.2967239353784521 [Eh]

	 ================> DF-SCS-MP2 Energies <==================
	-----------------------------------------------------------
	 SCS Same-Spin Scale       =       0.3333333333333333 [-]
	 SCS Opposite-Spin Scale   =       1.2000000000000000 [-]
	 SCS Same-Spin Energy      =      -0.1137856201514728 [Eh]
	 SCS Opposite-Spin Energy  =      -1.3209384907864852 [Eh]
	 SCS Correlation Energy    =      -1.4347241109379578 [Eh]
	 SCS Total Energy          =    -345.2893091102066023 [Eh]
	-----------------------------------------------------------

  Dipole Moment: [D]
     X:    -0.1613      Y:     1.1839      Z:    -0.1504     Total:     1.2043

*** Psi4 exiting successfully. Buy a developer a beer!
