                               Psi4 1.3.2 release

  ==> Input File <==

--------------------------------------------------------------------------
#psi4
#
memory 32 gb

molecule  {
0 1
  O        2.5331200    -0.0725200     0.2027050
  O        0.8230440     1.2494390    -0.4327460
  C       -1.8165730    -0.1662430    -0.5903910
  C       -2.5841030     0.6523970     0.4513900
  C       -0.9018550    -1.1471370     0.0763090
  C        0.4138040    -1.0149060     0.3209930
  C        1.2159030     0.1700770    -0.0266570
  H       -2.5251580    -0.7208810    -1.2155130
  H       -1.2597500     0.5079260    -1.2382380
  H       -3.2919980     1.3271690    -0.0377650
  H       -1.8881090     1.2530680     1.0427000
  H       -3.1450010     0.0036210     1.1307380
  H       -1.3667210    -2.0751620     0.4099140
  H        0.9531490    -1.8065430     0.8308200
  H        2.9905100     0.7616870    -0.0298800
units angstrom
no_reorient  #important for SAPT in psi4, default
symmetry c1  #important for SAPT in psi4, default
}

set PROPERTIES_ORIGIN ["COM"]
properties('MP2/aug-cc-pvtz', properties = ['dipole'])
--------------------------------------------------------------------------

    Molecular point group: c1
  Charge       = 0
  Multiplicity = 1
  Basis Set: AUG-CC-PVTZ
    Blend: AUG-CC-PVTZ
  Basis Set: (AUG-CC-PVTZ AUX)
    Blend: AUG-CC-PVTZ-JKFIT

    Orbital Energies [Eh]
    ---------------------

    Doubly Occupied:

       1A    -20.611280     2A    -20.544536     3A    -11.388215
       4A    -11.270908     5A    -11.243233     6A    -11.231560
       7A    -11.221169     8A     -1.458068     9A     -1.352562
      10A     -1.105536    11A     -1.019759    12A     -0.908940
      13A     -0.840001    14A     -0.752420    15A     -0.707852
      16A     -0.673941    17A     -0.647177    18A     -0.627932
      19A     -0.601213    20A     -0.583448    21A     -0.566271
      22A     -0.527672    23A     -0.503995    24A     -0.495547
      25A     -0.481736    26A     -0.444230    27A     -0.381067

  @DF-RHF Final Energy:  -343.85667234735769

   => Energetics <=

    Nuclear Repulsion Energy =            292.8163136838022069
    One-Electron Energy =               -1048.9654312816203401
    Two-Electron Energy =                 412.2924452504603892
    Total Energy =                       -343.8566723473576872
  Basis Set: (AUG-CC-PVTZ AUX)
    Blend: AUG-CC-PVTZ-RI
    Molecular point group: c1

    Geometry (in Angstrom), charge = 0, multiplicity = 1:

       Center              X                  Y                   Z               Mass
    ------------   -----------------  -----------------  -----------------  -----------------
         O            2.533120060102    -0.072519980711     0.202704961550    15.994914619570
         O            0.823044060102     1.249439019289    -0.432746038450    15.994914619570
         C           -1.816572939898    -0.166242980711    -0.590391038450    12.000000000000
         C           -2.584102939898     0.652397019289     0.451389961550    12.000000000000
         C           -0.901854939898    -1.147136980711     0.076308961550    12.000000000000
         C            0.413804060102    -1.014905980711     0.320992961550    12.000000000000
         C            1.215903060102     0.170077019289    -0.026657038450    12.000000000000
         H           -2.525157939898    -0.720880980711    -1.215513038450     1.007825032230
         H           -1.259749939898     0.507926019289    -1.238238038450     1.007825032230
         H           -3.291997939898     1.327169019289    -0.037765038450     1.007825032230
         H           -1.888108939898     1.253068019289     1.042699961550     1.007825032230
         H           -3.145000939898     0.003621019289     1.130737961550     1.007825032230
         H           -1.366720939898    -2.075161980711     0.409913961550     1.007825032230
         H            0.953149060102    -1.806542980711     0.830819961550     1.007825032230
         H            2.990510060102     0.761687019289    -0.029880038450     1.007825032230

  Basis Set: AUG-CC-PVTZ
    Blend: AUG-CC-PVTZ
  Basis Set: (AUG-CC-PVTZ AUX)
    Blend: AUG-CC-PVTZ-JKFIT
	 Reference Energy          =    -343.8566723473576872 [Eh]
	 Singles Energy            =      -0.0000000000000000 [Eh]
	 Same-Spin Energy          =      -0.3409297274555791 [Eh]
	 Opposite-Spin Energy      =      -1.0998773025301596 [Eh]
	 Correlation Energy        =      -1.4408070299857387 [Eh]
	 Total Energy              =    -345.2974793773434499 [Eh]

	 ================> DF-SCS-MP2 Energies <==================
	-----------------------------------------------------------
	 SCS Same-Spin Scale       =       0.3333333333333333 [-]
	 SCS Opposite-Spin Scale   =       1.2000000000000000 [-]
	 SCS Same-Spin Energy      =      -0.1136432424851930 [Eh]
	 SCS Opposite-Spin Energy  =      -1.3198527630361914 [Eh]
	 SCS Correlation Energy    =      -1.4334960055213843 [Eh]
	 SCS Total Energy          =    -345.2901683528790500 [Eh]
	-----------------------------------------------------------

  Dipole Moment: [D]
     X:    -0.4252      Y:    -1.1222      Z:     0.3343     Total:     1.2457

*** Psi4 exiting successfully. Buy a developer a beer!
