                               Psi4 1.3.2 release

  ==> Input File <==

--------------------------------------------------------------------------
#psi4
#
memory 32 gb

molecule  {
0 1
  O        2.5331200    -0.0725200     0.2027050
  O        0.8230440     1.2494390    -0.4327460
  C       -1.8165730    -0.1662430    -0.5903910
  C       -2.5841030     0.6523970     0.4513900
  C       -0.8990173    -1.2110414     0.1057138
  C        0.4138040    -1.0149060     0.3209930
  C        1.2774487     0.1347471     0.0034658
  H       -2.5251580    -0.7208810    -1.2155130
  H       -1.2597500     0.5079260    -1.2382380
  H       -3.2919980     1.3271690    -0.0377650
  H       -1.8881090     1.2530680     1.0427000
  H       -3.1450010     0.0036210     1.1307380
  H       -1.3667210    -2.0751620     0.4099140
  H        0.9531490    -1.8065430     0.8308200
  H        2.9905100     0.7616870    -0.0298800
units angstrom
no_reorient  #important for SAPT in psi4, default
symmetry c1  #important for SAPT in psi4, default
}

set PROPERTIES_ORIGIN ["COM"]
properties('MP2/aug-cc-pvtz', properties = ['dipole'])
--------------------------------------------------------------------------

    Molecular point group: c1
  Charge       = 0
  Multiplicity = 1
  Basis Set: AUG-CC-PVTZ
    Blend: AUG-CC-PVTZ
  Basis Set: (AUG-CC-PVTZ AUX)
    Blend: AUG-CC-PVTZ-JKFIT

    Orbital Energies [Eh]
    ---------------------

    Doubly Occupied:

       1A    -20.633159     2A    -20.531566     3A    -11.394067
       4A    -11.268872     5A    -11.244063     6A    -11.230244
       7A    -11.216467     8A     -1.489237     9A     -1.321605
      10A     -1.097355    11A     -1.015809    12A     -0.920015
      13A     -0.841313    14A     -0.775957    15A     -0.713044
      16A     -0.673483    17A     -0.655485    18A     -0.644565
      19A     -0.590928    20A     -0.582707    21A     -0.560259
      22A     -0.519104    23A     -0.496758    24A     -0.482553
      25A     -0.465995    26A     -0.437725    27A     -0.379966

  @DF-RHF Final Energy:  -343.84069456590629

   => Energetics <=

    Nuclear Repulsion Energy =            291.7288478382034782
    One-Electron Energy =               -1046.7744820147672726
    Two-Electron Energy =                 411.2049396106575045
    Total Energy =                       -343.8406945659062899
  Basis Set: (AUG-CC-PVTZ AUX)
    Blend: AUG-CC-PVTZ-RI
    Molecular point group: c1

    Geometry (in Angstrom), charge = 0, multiplicity = 1:

       Center              X                  Y                   Z               Mass
    ------------   -----------------  -----------------  -----------------  -----------------
         O            2.525398100686    -0.060618104805     0.195565392790    15.994914619570
         O            0.815322100686     1.261340895195    -0.439885607210    15.994914619570
         C           -1.824294899314    -0.154341104805    -0.597530607210    12.000000000000
         C           -2.591824899314     0.664298895195     0.444250392790    12.000000000000
         C           -0.906739199314    -1.199139504805     0.098574192790    12.000000000000
         C            0.406082100686    -1.003004104805     0.313853392790    12.000000000000
         C            1.269726800686     0.146648995195    -0.003673807210    12.000000000000
         H           -2.532879899314    -0.708979104805    -1.222652607210     1.007825032230
         H           -1.267471899314     0.519827895195    -1.245377607210     1.007825032230
         H           -3.299719899314     1.339070895195    -0.044904607210     1.007825032230
         H           -1.895830899314     1.264969895195     1.035560392790     1.007825032230
         H           -3.152722899314     0.015522895195     1.123598392790     1.007825032230
         H           -1.374442899314    -2.063260104805     0.402774392790     1.007825032230
         H            0.945427100686    -1.794641104805     0.823680392790     1.007825032230
         H            2.982788100686     0.773588895195    -0.037019607210     1.007825032230

  Basis Set: AUG-CC-PVTZ
    Blend: AUG-CC-PVTZ
  Basis Set: (AUG-CC-PVTZ AUX)
    Blend: AUG-CC-PVTZ-JKFIT
	 Reference Energy          =    -343.8406945659062899 [Eh]
	 Singles Energy            =      -0.0000000000000000 [Eh]
	 Same-Spin Energy          =      -0.3412472095933081 [Eh]
	 Opposite-Spin Energy      =      -1.1009397210066660 [Eh]
	 Correlation Energy        =      -1.4421869305999742 [Eh]
	 Total Energy              =    -345.2828814965062634 [Eh]

	 ================> DF-SCS-MP2 Energies <==================
	-----------------------------------------------------------
	 SCS Same-Spin Scale       =       0.3333333333333333 [-]
	 SCS Opposite-Spin Scale   =       1.2000000000000000 [-]
	 SCS Same-Spin Energy      =      -0.1137490698644360 [Eh]
	 SCS Opposite-Spin Energy  =      -1.3211276652079993 [Eh]
	 SCS Correlation Energy    =      -1.4348767350724354 [Eh]
	 SCS Total Energy          =    -345.2755713009786973 [Eh]
	-----------------------------------------------------------

  Dipole Moment: [D]
     X:     0.2450      Y:    -1.4074      Z:     0.5078     Total:     1.5162

*** Psi4 exiting successfully. Buy a developer a beer!
