                               Psi4 1.3.2 release

  ==> Input File <==

--------------------------------------------------------------------------
#psi4
#
memory 32 gb

molecule  {
0 1
  O        2.5218049    -0.1165599     0.2162016
  O        0.7832891     1.2343541    -0.4321547
  C       -1.8165730    -0.1662430    -0.5903910
  C       -2.5841030     0.6523970     0.4513900
  C       -0.9018550    -1.1471370     0.0763090
  C        0.4138040    -1.0149060     0.3209930
  C        1.2159030     0.1700770    -0.0266570
  H       -2.5251580    -0.7208810    -1.2155130
  H       -1.2597500     0.5079260    -1.2382380
  H       -3.2919980     1.3271690    -0.0377650
  H       -1.8881090     1.2530680     1.0427000
  H       -3.1450010     0.0036210     1.1307380
  H       -1.3667210    -2.0751620     0.4099140
  H        0.9531490    -1.8065430     0.8308200
  H        2.9905100     0.7616870    -0.0298800
units angstrom
no_reorient  #important for SAPT in psi4, default
symmetry c1  #important for SAPT in psi4, default
}

set PROPERTIES_ORIGIN ["COM"]
properties('MP2/aug-cc-pvtz', properties = ['dipole'])
--------------------------------------------------------------------------

    Molecular point group: c1
  Charge       = 0
  Multiplicity = 1
  Basis Set: AUG-CC-PVTZ
    Blend: AUG-CC-PVTZ
  Basis Set: (AUG-CC-PVTZ AUX)
    Blend: AUG-CC-PVTZ-JKFIT

    Orbital Energies [Eh]
    ---------------------

    Doubly Occupied:

       1A    -20.620786     2A    -20.547494     3A    -11.388804
       4A    -11.267604     5A    -11.239174     6A    -11.229442
       7A    -11.219730     8A     -1.454448     9A     -1.356075
      10A     -1.102543    11A     -1.017075    12A     -0.904883
      13A     -0.835923    14A     -0.747083    15A     -0.707831
      16A     -0.672680    17A     -0.645829    18A     -0.629441
      19A     -0.598723    20A     -0.582033    21A     -0.564854
      22A     -0.526084    23A     -0.503546    24A     -0.495239
      25A     -0.483575    26A     -0.443360    27A     -0.378315

  @DF-RHF Final Energy:  -343.84963608963625

   => Energetics <=

    Nuclear Repulsion Energy =            293.0400704117545274
    One-Electron Energy =               -1049.4542614106785550
    Two-Electron Energy =                 412.5645549092877786
    Total Energy =                       -343.8496360896362489
  Basis Set: (AUG-CC-PVTZ AUX)
    Blend: AUG-CC-PVTZ-RI
    Molecular point group: c1

    Geometry (in Angstrom), charge = 0, multiplicity = 1:

       Center              X                  Y                   Z               Mass
    ------------   -----------------  -----------------  -----------------  -----------------
         O            2.529969282485    -0.107107875071     0.213949394773    15.994914619570
         O            0.791453482485     1.243806124929    -0.434406905227    15.994914619570
         C           -1.808408617515    -0.156790975071    -0.592643205227    12.000000000000
         C           -2.575938617515     0.661849024929     0.449137794773    12.000000000000
         C           -0.893690617515    -1.137684975071     0.074056794773    12.000000000000
         C            0.421968382485    -1.005453975071     0.318740794773    12.000000000000
         C            1.224067382485     0.179529024929    -0.028909205227    12.000000000000
         H           -2.516993617515    -0.711428975071    -1.217765205227     1.007825032230
         H           -1.251585617515     0.517378024929    -1.240490205227     1.007825032230
         H           -3.283833617515     1.336621024929    -0.040017205227     1.007825032230
         H           -1.879944617515     1.262520024929     1.040447794773     1.007825032230
         H           -3.136836617515     0.013073024929     1.128485794773     1.007825032230
         H           -1.358556617515    -2.065709975071     0.407661794773     1.007825032230
         H            0.961313382485    -1.797090975071     0.828567794773     1.007825032230
         H            2.998674382485     0.771139024929    -0.032132205227     1.007825032230

  Basis Set: AUG-CC-PVTZ
    Blend: AUG-CC-PVTZ
  Basis Set: (AUG-CC-PVTZ AUX)
    Blend: AUG-CC-PVTZ-JKFIT
	 Reference Energy          =    -343.8496360896362489 [Eh]
	 Singles Energy            =      -0.0000000000000000 [Eh]
	 Same-Spin Energy          =      -0.3420498059862578 [Eh]
	 Opposite-Spin Energy      =      -1.1022770087555120 [Eh]
	 Correlation Energy        =      -1.4443268147417698 [Eh]
	 Total Energy              =    -345.2939629043780201 [Eh]

	 ================> DF-SCS-MP2 Energies <==================
	-----------------------------------------------------------
	 SCS Same-Spin Scale       =       0.3333333333333333 [-]
	 SCS Opposite-Spin Scale   =       1.2000000000000000 [-]
	 SCS Same-Spin Energy      =      -0.1140166019954193 [Eh]
	 SCS Opposite-Spin Energy  =      -1.3227324105066145 [Eh]
	 SCS Correlation Energy    =      -1.4367490125020337 [Eh]
	 SCS Total Energy          =    -345.2863851021382970 [Eh]
	-----------------------------------------------------------

  Dipole Moment: [D]
     X:    -0.2141      Y:    -0.9941      Z:     0.3124     Total:     1.0638

*** Psi4 exiting successfully. Buy a developer a beer!
