                               Psi4 1.4a3.dev225

  ==> Input File <==

--------------------------------------------------------------------------
#psi4
#
memory 32 gb

molecule  {
0 1
  O        2.6043210     0.0828630    -0.1445960
  O        0.8461570    -1.2916990     0.2386850
  C       -1.7394130     0.0979440     0.6095950
  C       -2.3802920    -0.6692310    -0.5542970
  C       -0.8230420     1.1744430     0.1086050
  C        0.4895550     1.0683010    -0.1734410
  C        1.2721580    -0.1688410     0.0026710
  H       -2.5220070     0.5621210     1.2198080
  H       -1.1892610    -0.6035630     1.2386490
  H       -3.0933810    -1.4091330    -0.1797240
  H       -1.6064800    -1.1915300    -1.1205690
  H       -2.9131760     0.0061510    -1.2301320
  H       -1.2820910     2.1452700    -0.0812320
  H        1.0687454     1.9683276    -0.5530353
  H        3.0455250    -0.7830240    -0.0219810
units angstrom
no_reorient  #important for SAPT in psi4, default
symmetry c1  #important for SAPT in psi4, default
}

set PROPERTIES_ORIGIN ["COM"]
properties('MP2/aug-cc-pvtz', properties = ['dipole'])
--------------------------------------------------------------------------

    Molecular point group: c1
  Charge       = 0
  Multiplicity = 1
  Basis Set: AUG-CC-PVTZ
    Blend: AUG-CC-PVTZ
  Basis Set: (AUG-CC-PVTZ AUX)
    Blend: AUG-CC-PVTZ-JKFIT

    Orbital Energies [Eh]
    ---------------------

    Doubly Occupied:

       1A    -20.612150     2A    -20.545776     3A    -11.390716
       4A    -11.271861     5A    -11.249607     6A    -11.232411
       7A    -11.219267     8A     -1.455263     9A     -1.351161
      10A     -1.104074    11A     -1.016426    12A     -0.907847
      13A     -0.839049    14A     -0.750610    15A     -0.705819
      16A     -0.668290    17A     -0.645824    18A     -0.626266
      19A     -0.599820    20A     -0.576819    21A     -0.567917
      22A     -0.525915    23A     -0.502009    24A     -0.495967
      25A     -0.479537    26A     -0.444490    27A     -0.380819

  @DF-RHF Final Energy:  -343.85273328041109

   => Energetics <=

    Nuclear Repulsion Energy =            293.4948294181845085
    One-Electron Energy =               -1050.3637015746849102
    Two-Electron Energy =                 413.0161388760893146
    Total Energy =                       -343.8527332804110870
  Basis Set: (AUG-CC-PVTZ AUX)
    Blend: AUG-CC-PVTZ-RI
    Molecular point group: c1

    Geometry (in Angstrom), charge = 0, multiplicity = 1:

       Center              X                  Y                   Z               Mass
    ------------   -----------------  -----------------  -----------------  -----------------
         O            2.519774164978     0.088897651945    -0.151478660512    15.994914619570
         O            0.761610164978    -1.285664348055     0.231802339488    15.994914619570
         C           -1.823959835022     0.103978651945     0.602712339488    12.000000000000
         C           -2.464838835022    -0.663196348055    -0.561179660512    12.000000000000
         C           -0.907588835022     1.180477651945     0.101722339488    12.000000000000
         C            0.405008164978     1.074335651945    -0.180323660512    12.000000000000
         C            1.187611164978    -0.162806348055    -0.004211660512    12.000000000000
         H           -2.606553835022     0.568155651945     1.212925339488     1.007825032230
         H           -1.273807835022    -0.597528348055     1.231766339488     1.007825032230
         H           -3.177927835022    -1.403098348055    -0.186606660512     1.007825032230
         H           -1.691026835022    -1.185495348055    -1.127451660512     1.007825032230
         H           -2.997722835022     0.012185651945    -1.237014660512     1.007825032230
         H           -1.366637835022     2.151304651945    -0.088114660512     1.007825032230
         H            0.984198564978     1.974362251945    -0.559917960512     1.007825032230
         H            2.960978164978    -0.776989348055    -0.028863660512     1.007825032230

  Basis Set: AUG-CC-PVTZ
    Blend: AUG-CC-PVTZ
  Basis Set: (AUG-CC-PVTZ AUX)
    Blend: AUG-CC-PVTZ-JKFIT
	 Reference Energy          =    -343.8527332804110870 [Eh]
	 Singles Energy            =      -0.0000000000000000 [Eh]
	 Same-Spin Energy          =      -0.3414409437129349 [Eh]
	 Opposite-Spin Energy      =      -1.1011825764860079 [Eh]
	 Correlation Energy        =      -1.4426235201989428 [Eh]
	 Total Energy              =    -345.2953568006100227 [Eh]

	 ================> DF-SCS-MP2 Energies <==================
	-----------------------------------------------------------
	 SCS Same-Spin Scale       =       0.3333333333333333 [-]
	 SCS Opposite-Spin Scale   =       1.2000000000000000 [-]
	 SCS Same-Spin Energy      =      -0.1138136479043116 [Eh]
	 SCS Opposite-Spin Energy  =      -1.3214190917832094 [Eh]
	 SCS Correlation Energy    =      -1.4352327396875211 [Eh]
	 SCS Total Energy          =    -345.2879660200986223 [Eh]
	-----------------------------------------------------------

  Dipole Moment: [D]
     X:    -0.3535      Y:     1.1433      Z:    -0.1298     Total:     1.2037

*** Psi4 exiting successfully. Buy a developer a beer!
