                               Psi4 1.3.2 release

  ==> Input File <==

--------------------------------------------------------------------------
#psi4
#
memory 32 gb

molecule  {
0 1
  O        2.5331200    -0.0725200     0.2027050
  O        0.8230440     1.2494390    -0.4327460
  C       -1.8165730    -0.1662430    -0.5903910
  C       -2.5841030     0.6523970     0.4513900
  C       -1.0239980    -1.0161575    -0.0127160
  C        0.4138040    -1.0149060     0.3209930
  C        1.2159030     0.1700770    -0.0266570
  H       -2.5251580    -0.7208810    -1.2155130
  H       -1.2597500     0.5079260    -1.2382380
  H       -3.2919980     1.3271690    -0.0377650
  H       -1.8881090     1.2530680     1.0427000
  H       -3.1450010     0.0036210     1.1307380
  H       -1.3667210    -2.0751620     0.4099140
  H        0.9531490    -1.8065430     0.8308200
  H        2.9905100     0.7616870    -0.0298800
units angstrom
no_reorient  #important for SAPT in psi4, default
symmetry c1  #important for SAPT in psi4, default
}

set PROPERTIES_ORIGIN ["COM"]
properties('MP2/aug-cc-pvtz', properties = ['dipole'])
--------------------------------------------------------------------------

    Molecular point group: c1
  Charge       = 0
  Multiplicity = 1
  Basis Set: AUG-CC-PVTZ
    Blend: AUG-CC-PVTZ
  Basis Set: (AUG-CC-PVTZ AUX)
    Blend: AUG-CC-PVTZ-JKFIT

    Orbital Energies [Eh]
    ---------------------

    Doubly Occupied:

       1A    -20.603037     2A    -20.535273     3A    -11.377570
       4A    -11.294478     5A    -11.250850     6A    -11.234633
       7A    -11.226316     8A     -1.450041     9A     -1.344832
      10A     -1.139441    11A     -1.011267    12A     -0.924959
      13A     -0.832325    14A     -0.744986    15A     -0.700743
      16A     -0.680228    17A     -0.650969    18A     -0.626454
      19A     -0.612146    20A     -0.582058    21A     -0.556884
      22A     -0.543647    23A     -0.530181    24A     -0.487757
      25A     -0.476708    26A     -0.432947    27A     -0.346812

  @DF-RHF Final Energy:  -343.79290307328017

   => Energetics <=

    Nuclear Repulsion Energy =            293.9332144072091637
    One-Electron Energy =               -1051.0571485106029286
    Two-Electron Energy =                 413.3310310301136496
    Total Energy =                       -343.7929030732801721
  Basis Set: (AUG-CC-PVTZ AUX)
    Blend: AUG-CC-PVTZ-RI
    Molecular point group: c1

    Geometry (in Angstrom), charge = 0, multiplicity = 1:

       Center              X                  Y                   Z               Mass
    ------------   -----------------  -----------------  -----------------  -----------------
         O            2.547769539453    -0.088229284403     0.213382363442    15.994914619570
         O            0.837693539453     1.233729715597    -0.422068636558    15.994914619570
         C           -1.801923460547    -0.181952284403    -0.579713636558    12.000000000000
         C           -2.569453460547     0.636687715597     0.462067363442    12.000000000000
         C           -1.009348460547    -1.031866784403    -0.002038636558    12.000000000000
         C            0.428453539453    -1.030615284403     0.331670363442    12.000000000000
         C            1.230552539453     0.154367715597    -0.015979636558    12.000000000000
         H           -2.510508460547    -0.736590284403    -1.204835636558     1.007825032230
         H           -1.245100460547     0.492216715597    -1.227560636558     1.007825032230
         H           -3.277348460547     1.311459715597    -0.027087636558     1.007825032230
         H           -1.873459460547     1.237358715597     1.053377363442     1.007825032230
         H           -3.130351460547    -0.012088284403     1.141415363442     1.007825032230
         H           -1.352071460547    -2.090871284403     0.420591363442     1.007825032230
         H            0.967798539453    -1.822252284403     0.841497363442     1.007825032230
         H            3.005159539453     0.745977715597    -0.019202636558     1.007825032230

  Basis Set: AUG-CC-PVTZ
    Blend: AUG-CC-PVTZ
  Basis Set: (AUG-CC-PVTZ AUX)
    Blend: AUG-CC-PVTZ-JKFIT
	 Reference Energy          =    -343.7929030732801721 [Eh]
	 Singles Energy            =      -0.0000000000000000 [Eh]
	 Same-Spin Energy          =      -0.3460380128832287 [Eh]
	 Opposite-Spin Energy      =      -1.1064586022345142 [Eh]
	 Correlation Energy        =      -1.4524966151177430 [Eh]
	 Total Energy              =    -345.2453996883979244 [Eh]

	 ================> DF-SCS-MP2 Energies <==================
	-----------------------------------------------------------
	 SCS Same-Spin Scale       =       0.3333333333333333 [-]
	 SCS Opposite-Spin Scale   =       1.2000000000000000 [-]
	 SCS Same-Spin Energy      =      -0.1153460042944096 [Eh]
	 SCS Opposite-Spin Energy  =      -1.3277503226814169 [Eh]
	 SCS Correlation Energy    =      -1.4430963269758266 [Eh]
	 SCS Total Energy          =    -345.2359994002559915 [Eh]
	-----------------------------------------------------------

  Dipole Moment: [D]
     X:    -0.9136      Y:    -0.9580      Z:     0.2420     Total:     1.3457

*** Psi4 exiting successfully. Buy a developer a beer!
