                               Psi4 1.3.2 release

  ==> Input File <==

--------------------------------------------------------------------------
#psi4
#
memory 32 gb

molecule  {
0 1
  O        2.5331200    -0.0725200     0.2027050
  O        0.8230440     1.2494390    -0.4327460
  C       -1.8165730    -0.1662430    -0.5903910
  C       -2.5841030     0.6523970     0.4513900
  C       -0.9018550    -1.1471370     0.0763090
  C        0.4138040    -1.0149060     0.3209930
  C        1.2213713     0.1921053    -0.0335358
  H       -2.5251580    -0.7208810    -1.2155130
  H       -1.2597500     0.5079260    -1.2382380
  H       -3.2919980     1.3271690    -0.0377650
  H       -1.8881090     1.2530680     1.0427000
  H       -3.1450010     0.0036210     1.1307380
  H       -1.3667210    -2.0751620     0.4099140
  H        0.9531490    -1.8065430     0.8308200
  H        2.9754331     0.7686497    -0.0339283
units angstrom
no_reorient  #important for SAPT in psi4, default
symmetry c1  #important for SAPT in psi4, default
}

set PROPERTIES_ORIGIN ["COM"]
properties('MP2/aug-cc-pvtz', properties = ['dipole'])
--------------------------------------------------------------------------

    Molecular point group: c1
  Charge       = 0
  Multiplicity = 1
  Basis Set: AUG-CC-PVTZ
    Blend: AUG-CC-PVTZ
  Basis Set: (AUG-CC-PVTZ AUX)
    Blend: AUG-CC-PVTZ-JKFIT

    Orbital Energies [Eh]
    ---------------------

    Doubly Occupied:

       1A    -20.612101     2A    -20.548677     3A    -11.387583
       4A    -11.267344     5A    -11.242903     6A    -11.230708
       7A    -11.220508     8A     -1.464624     9A     -1.364545
      10A     -1.102578    11A     -1.016372    12A     -0.904705
      13A     -0.838214    14A     -0.750491    15A     -0.710451
      16A     -0.675749    17A     -0.647685    18A     -0.631761
      19A     -0.602546    20A     -0.583991    21A     -0.566361
      22A     -0.527073    23A     -0.504362    24A     -0.496528
      25A     -0.486145    26A     -0.444651    27A     -0.379458

  @DF-RHF Final Energy:  -343.85713554875247

   => Energetics <=

    Nuclear Repulsion Energy =            292.9246834744493526
    One-Electron Energy =               -1049.1474048744912579
    Two-Electron Energy =                 412.3655858512894383
    Total Energy =                       -343.8571355487524670
  Basis Set: (AUG-CC-PVTZ AUX)
    Blend: AUG-CC-PVTZ-RI
    Molecular point group: c1

    Geometry (in Angstrom), charge = 0, multiplicity = 1:

       Center              X                  Y                   Z               Mass
    ------------   -----------------  -----------------  -----------------  -----------------
         O            2.532616077110    -0.075232126581     0.203570763396    15.994914619570
         O            0.822540077110     1.246726873419    -0.431880236604    15.994914619570
         C           -1.817076922890    -0.168955126581    -0.589525236604    12.000000000000
         C           -2.584606922890     0.649684873419     0.452255763396    12.000000000000
         C           -0.902358922890    -1.149849126581     0.077174763396    12.000000000000
         C            0.413300077110    -1.017618126581     0.321858763396    12.000000000000
         C            1.220867377110     0.189393173419    -0.032670036604    12.000000000000
         H           -2.525661922890    -0.723593126581    -1.214647236604     1.007825032230
         H           -1.260253922890     0.505213873419    -1.237372236604     1.007825032230
         H           -3.292501922890     1.324456873419    -0.036899236604     1.007825032230
         H           -1.888612922890     1.250355873419     1.043565763396     1.007825032230
         H           -3.145504922890     0.000908873419     1.131603763396     1.007825032230
         H           -1.367224922890    -2.077874126581     0.410779763396     1.007825032230
         H            0.952645077110    -1.809255126581     0.831685763396     1.007825032230
         H            2.974929177110     0.765937573419    -0.033062536604     1.007825032230

  Basis Set: AUG-CC-PVTZ
    Blend: AUG-CC-PVTZ
  Basis Set: (AUG-CC-PVTZ AUX)
    Blend: AUG-CC-PVTZ-JKFIT
	 Reference Energy          =    -343.8571355487524670 [Eh]
	 Singles Energy            =      -0.0000000000000000 [Eh]
	 Same-Spin Energy          =      -0.3404815083983067 [Eh]
	 Opposite-Spin Energy      =      -1.0991300195140177 [Eh]
	 Correlation Energy        =      -1.4396115279123243 [Eh]
	 Total Energy              =    -345.2967470766648148 [Eh]

	 ================> DF-SCS-MP2 Energies <==================
	-----------------------------------------------------------
	 SCS Same-Spin Scale       =       0.3333333333333333 [-]
	 SCS Opposite-Spin Scale   =       1.2000000000000000 [-]
	 SCS Same-Spin Energy      =      -0.1134938361327689 [Eh]
	 SCS Opposite-Spin Energy  =      -1.3189560234168212 [Eh]
	 SCS Correlation Energy    =      -1.4324498595495900 [Eh]
	 SCS Total Energy          =    -345.2895854083020595 [Eh]
	-----------------------------------------------------------

  Dipole Moment: [D]
     X:    -0.3838      Y:    -0.9891      Z:     0.2922     Total:     1.1005

*** Psi4 exiting successfully. Buy a developer a beer!
