                               Psi4 1.3.2 release

  ==> Input File <==

--------------------------------------------------------------------------
#psi4
#
memory 32 gb

molecule  {
0 1
  O        2.5331200    -0.0725200     0.2027050
  O        0.8230440     1.2494390    -0.4327460
  C       -1.8165730    -0.1662430    -0.5903910
  C       -2.5841030     0.6523970     0.4513900
  C       -0.9019996    -1.1257463     0.0666525
  C        0.4138040    -1.0149060     0.3209930
  C        1.1948907     0.1811364    -0.0364902
  H       -2.5251580    -0.7208810    -1.2155130
  H       -1.2597500     0.5079260    -1.2382380
  H       -3.2919980     1.3271690    -0.0377650
  H       -1.8881090     1.2530680     1.0427000
  H       -3.1450010     0.0036210     1.1307380
  H       -1.3667210    -2.0751620     0.4099140
  H        0.9531490    -1.8065430     0.8308200
  H        2.9905100     0.7616870    -0.0298800
units angstrom
no_reorient  #important for SAPT in psi4, default
symmetry c1  #important for SAPT in psi4, default
}

set PROPERTIES_ORIGIN ["COM"]
properties('MP2/aug-cc-pvtz', properties = ['dipole'])
--------------------------------------------------------------------------

    Molecular point group: c1
  Charge       = 0
  Multiplicity = 1
  Basis Set: AUG-CC-PVTZ
    Blend: AUG-CC-PVTZ
  Basis Set: (AUG-CC-PVTZ AUX)
    Blend: AUG-CC-PVTZ-JKFIT

    Orbital Energies [Eh]
    ---------------------

    Doubly Occupied:

       1A    -20.603644     2A    -20.548728     3A    -11.386294
       4A    -11.271910     5A    -11.243488     6A    -11.232144
       7A    -11.222855     8A     -1.454601     9A     -1.357116
      10A     -1.108894    11A     -1.021347    12A     -0.906922
      13A     -0.838895    14A     -0.745941    15A     -0.708380
      16A     -0.674496    17A     -0.645229    18A     -0.625155
      19A     -0.603404    20A     -0.586950    21A     -0.563683
      22A     -0.530711    23A     -0.506997    24A     -0.498166
      25A     -0.485470    26A     -0.444424    27A     -0.381549

  @DF-RHF Final Energy:  -343.85551718127584

   => Energetics <=

    Nuclear Repulsion Energy =            293.2195381619430918
    One-Electron Energy =               -1049.7553269576249022
    Two-Electron Energy =                 412.6802716144059673
    Total Energy =                       -343.8555171812758431
  Basis Set: (AUG-CC-PVTZ AUX)
    Blend: AUG-CC-PVTZ-RI
    Molecular point group: c1

    Geometry (in Angstrom), charge = 0, multiplicity = 1:

       Center              X                  Y                   Z               Mass
    ------------   -----------------  -----------------  -----------------  -----------------
         O            2.535657557705    -0.076411952170     0.205042499991    15.994914619570
         O            0.825581557705     1.245547047830    -0.430408500009    15.994914619570
         C           -1.814035442295    -0.170134952170    -0.588053500009    12.000000000000
         C           -2.581565442295     0.648505047830     0.453727499991    12.000000000000
         C           -0.899462042295    -1.129638252170     0.068989999991    12.000000000000
         C            0.416341557705    -1.018797952170     0.323330499991    12.000000000000
         C            1.197428257705     0.177244447830    -0.034152700009    12.000000000000
         H           -2.522620442295    -0.724772952170    -1.213175500009     1.007825032230
         H           -1.257212442295     0.504034047830    -1.235900500009     1.007825032230
         H           -3.289460442295     1.323277047830    -0.035427500009     1.007825032230
         H           -1.885571442295     1.249176047830     1.045037499991     1.007825032230
         H           -3.142463442295    -0.000270952170     1.133075499991     1.007825032230
         H           -1.364183442295    -2.079053952170     0.412251499991     1.007825032230
         H            0.955686557705    -1.810434952170     0.833157499991     1.007825032230
         H            2.993047557705     0.757795047830    -0.027542500009     1.007825032230

  Basis Set: AUG-CC-PVTZ
    Blend: AUG-CC-PVTZ
  Basis Set: (AUG-CC-PVTZ AUX)
    Blend: AUG-CC-PVTZ-JKFIT
	 Reference Energy          =    -343.8555171812758431 [Eh]
	 Singles Energy            =      -0.0000000000000000 [Eh]
	 Same-Spin Energy          =      -0.3409644104400769 [Eh]
	 Opposite-Spin Energy      =      -1.0998093316953608 [Eh]
	 Correlation Energy        =      -1.4407737421354376 [Eh]
	 Total Energy              =    -345.2962909234112772 [Eh]

	 ================> DF-SCS-MP2 Energies <==================
	-----------------------------------------------------------
	 SCS Same-Spin Scale       =       0.3333333333333333 [-]
	 SCS Opposite-Spin Scale   =       1.2000000000000000 [-]
	 SCS Same-Spin Energy      =      -0.1136548034800256 [Eh]
	 SCS Opposite-Spin Energy  =      -1.3197711980344329 [Eh]
	 SCS Correlation Energy    =      -1.4334260015144584 [Eh]
	 SCS Total Energy          =    -345.2889431827903195 [Eh]
	-----------------------------------------------------------

  Dipole Moment: [D]
     X:    -0.6584      Y:    -1.0242      Z:     0.2743     Total:     1.2481

*** Psi4 exiting successfully. Buy a developer a beer!
