                               Psi4 1.3.2 release

  ==> Input File <==

--------------------------------------------------------------------------
#psi4
#
memory 32 gb

molecule  {
0 1
  O        2.5331200    -0.0725200     0.2027050
  O        0.8230440     1.2494390    -0.4327460
  C       -1.8165730    -0.1662430    -0.5903910
  C       -2.5841030     0.6523970     0.4513900
  C       -0.9013096    -1.1684874     0.0860400
  C        0.4138040    -1.0149060     0.3209930
  C        1.2366710     0.1586567    -0.0167179
  H       -2.5251580    -0.7208810    -1.2155130
  H       -1.2597500     0.5079260    -1.2382380
  H       -3.2919980     1.3271690    -0.0377650
  H       -1.8881090     1.2530680     1.0427000
  H       -3.1450010     0.0036210     1.1307380
  H       -1.3667210    -2.0751620     0.4099140
  H        0.9531490    -1.8065430     0.8308200
  H        2.9905100     0.7616870    -0.0298800
units angstrom
no_reorient  #important for SAPT in psi4, default
symmetry c1  #important for SAPT in psi4, default
}

set PROPERTIES_ORIGIN ["COM"]
properties('MP2/aug-cc-pvtz', properties = ['dipole'])
--------------------------------------------------------------------------

    Molecular point group: c1
  Charge       = 0
  Multiplicity = 1
  Basis Set: AUG-CC-PVTZ
    Blend: AUG-CC-PVTZ
  Basis Set: (AUG-CC-PVTZ AUX)
    Blend: AUG-CC-PVTZ-JKFIT

    Orbital Energies [Eh]
    ---------------------

    Doubly Occupied:

       1A    -20.618721     2A    -20.540297     3A    -11.390177
       4A    -11.270075     5A    -11.243260     6A    -11.231059
       7A    -11.219547     8A     -1.465764     9A     -1.344327
      10A     -1.102498    11A     -1.018315    12A     -0.911837
      13A     -0.840693    14A     -0.759788    15A     -0.708291
      16A     -0.673663    17A     -0.649547    18A     -0.632303
      19A     -0.598230    20A     -0.581311    21A     -0.567032
      22A     -0.524714    23A     -0.501319    24A     -0.491962
      25A     -0.477095    26A     -0.442979    27A     -0.380660

  @DF-RHF Final Energy:  -343.85461386458479

   => Energetics <=

    Nuclear Repulsion Energy =            292.4329232490438244
    One-Electron Energy =               -1048.2041466734624464
    Two-Electron Energy =                 411.9166095598338302
    Total Energy =                       -343.8546138645847918
  Basis Set: (AUG-CC-PVTZ AUX)
    Blend: AUG-CC-PVTZ-RI
    Molecular point group: c1

    Geometry (in Angstrom), charge = 0, multiplicity = 1:

       Center              X                  Y                   Z               Mass
    ------------   -----------------  -----------------  -----------------  -----------------
         O            2.530563792340    -0.068589557413     0.200345786454    15.994914619570
         O            0.820487792340     1.253369442587    -0.435105213546    15.994914619570
         C           -1.819129207660    -0.162312557413    -0.592750213546    12.000000000000
         C           -2.586659207660     0.656327442587     0.449030786454    12.000000000000
         C           -0.903865807660    -1.164556957413     0.083680786454    12.000000000000
         C            0.411247792340    -1.010975557413     0.318633786454    12.000000000000
         C            1.234114792340     0.162587142587    -0.019077113546    12.000000000000
         H           -2.527714207660    -0.716950557413    -1.217872213546     1.007825032230
         H           -1.262306207660     0.511856442587    -1.240597213546     1.007825032230
         H           -3.294554207660     1.331099442587    -0.040124213546     1.007825032230
         H           -1.890665207660     1.256998442587     1.040340786454     1.007825032230
         H           -3.147557207660     0.007551442587     1.128378786454     1.007825032230
         H           -1.369277207660    -2.071231557413     0.407554786454     1.007825032230
         H            0.950592792340    -1.802612557413     0.828460786454     1.007825032230
         H            2.987953792340     0.765617442587    -0.032239213546     1.007825032230

  Basis Set: AUG-CC-PVTZ
    Blend: AUG-CC-PVTZ
  Basis Set: (AUG-CC-PVTZ AUX)
    Blend: AUG-CC-PVTZ-JKFIT
	 Reference Energy          =    -343.8546138645847918 [Eh]
	 Singles Energy            =      -0.0000000000000000 [Eh]
	 Same-Spin Energy          =      -0.3409686346357723 [Eh]
	 Opposite-Spin Energy      =      -1.1000945828024000 [Eh]
	 Correlation Energy        =      -1.4410632174381723 [Eh]
	 Total Energy              =    -345.2956770820229622 [Eh]

	 ================> DF-SCS-MP2 Energies <==================
	-----------------------------------------------------------
	 SCS Same-Spin Scale       =       0.3333333333333333 [-]
	 SCS Opposite-Spin Scale   =       1.2000000000000000 [-]
	 SCS Same-Spin Energy      =      -0.1136562115452574 [Eh]
	 SCS Opposite-Spin Energy  =      -1.3201134993628800 [Eh]
	 SCS Correlation Energy    =      -1.4337697109081375 [Eh]
	 SCS Total Energy          =    -345.2883835754929578 [Eh]
	-----------------------------------------------------------

  Dipole Moment: [D]
     X:    -0.1973      Y:    -1.2184      Z:     0.3931     Total:     1.2954

*** Psi4 exiting successfully. Buy a developer a beer!
