                               Psi4 1.3.2 release

  ==> Input File <==

--------------------------------------------------------------------------
#psi4
#
memory 32 gb

molecule  {
0 1
  O        2.5331200    -0.0725200     0.2027050
  O        0.8230440     1.2494390    -0.4327460
  C       -1.8165730    -0.1662430    -0.5903910
  C       -2.5841030     0.6523970     0.4513900
  C       -0.9006864    -1.0836725     0.0458565
  C        0.4138040    -1.0149060     0.3209930
  C        1.2159030     0.1700770    -0.0266570
  H       -2.5251580    -0.7208810    -1.2155130
  H       -1.2597500     0.5079260    -1.2382380
  H       -3.2919980     1.3271690    -0.0377650
  H       -1.8881090     1.2530680     1.0427000
  H       -3.1450010     0.0036210     1.1307380
  H       -1.3667210    -2.0751620     0.4099140
  H        1.0002719    -1.7750869     0.8266472
  H        2.9905100     0.7616870    -0.0298800
units angstrom
no_reorient  #important for SAPT in psi4, default
symmetry c1  #important for SAPT in psi4, default
}

set PROPERTIES_ORIGIN ["COM"]
properties('MP2/aug-cc-pvtz', properties = ['dipole'])
--------------------------------------------------------------------------

    Molecular point group: c1
  Charge       = 0
  Multiplicity = 1
  Basis Set: AUG-CC-PVTZ
    Blend: AUG-CC-PVTZ
  Basis Set: (AUG-CC-PVTZ AUX)
    Blend: AUG-CC-PVTZ-JKFIT

    Orbital Energies [Eh]
    ---------------------

    Doubly Occupied:

       1A    -20.609941     2A    -20.542442     3A    -11.384372
       4A    -11.275224     5A    -11.243415     6A    -11.230521
       7A    -11.223687     8A     -1.456748     9A     -1.351133
      10A     -1.112835    11A     -1.023414    12A     -0.910314
      13A     -0.841750    14A     -0.745737    15A     -0.707454
      16A     -0.675200    17A     -0.646811    18A     -0.627458
      19A     -0.605463    20A     -0.585534    21A     -0.554829
      22A     -0.533845    23A     -0.510887    24A     -0.496099
      25A     -0.481364    26A     -0.438905    27A     -0.379743

  @DF-RHF Final Energy:  -343.84964855447186

   => Energetics <=

    Nuclear Repulsion Energy =            293.6889554926160599
    One-Electron Energy =               -1050.6869618402188280
    Two-Electron Energy =                 413.1483577931309128
    Total Energy =                       -343.8496485544718553
  Basis Set: (AUG-CC-PVTZ AUX)
    Blend: AUG-CC-PVTZ-RI
    Molecular point group: c1

    Geometry (in Angstrom), charge = 0, multiplicity = 1:

       Center              X                  Y                   Z               Mass
    ------------   -----------------  -----------------  -----------------  -----------------
         O            2.532505234070    -0.080448586233     0.206399379109    15.994914619570
         O            0.822429234070     1.241510413767    -0.429051620891    15.994914619570
         C           -1.817187765930    -0.174171586233    -0.586696620891    12.000000000000
         C           -2.584717765930     0.644468413767     0.455084379109    12.000000000000
         C           -0.901301165930    -1.091601086233     0.049550879109    12.000000000000
         C            0.413189234070    -1.022834586233     0.324687379109    12.000000000000
         C            1.215288234070     0.162148413767    -0.022962620891    12.000000000000
         H           -2.525772765930    -0.728809586233    -1.211818620891     1.007825032230
         H           -1.260364765930     0.499997413767    -1.234543620891     1.007825032230
         H           -3.292612765930     1.319240413767    -0.034070620891     1.007825032230
         H           -1.888723765930     1.245139413767     1.046394379109     1.007825032230
         H           -3.145615765930    -0.004307586233     1.134432379109     1.007825032230
         H           -1.367335765930    -2.083090586233     0.413608379109     1.007825032230
         H            0.999657134070    -1.783015486233     0.830341579109     1.007825032230
         H            2.989895234070     0.753758413767    -0.026185620891     1.007825032230

  Basis Set: AUG-CC-PVTZ
    Blend: AUG-CC-PVTZ
  Basis Set: (AUG-CC-PVTZ AUX)
    Blend: AUG-CC-PVTZ-JKFIT
	 Reference Energy          =    -343.8496485544718553 [Eh]
	 Singles Energy            =      -0.0000000000000000 [Eh]
	 Same-Spin Energy          =      -0.3417123151055947 [Eh]
	 Opposite-Spin Energy      =      -1.1006241248304722 [Eh]
	 Correlation Energy        =      -1.4423364399360670 [Eh]
	 Total Energy              =    -345.2919849944079260 [Eh]

	 ================> DF-SCS-MP2 Energies <==================
	-----------------------------------------------------------
	 SCS Same-Spin Scale       =       0.3333333333333333 [-]
	 SCS Opposite-Spin Scale   =       1.2000000000000000 [-]
	 SCS Same-Spin Energy      =      -0.1139041050351982 [Eh]
	 SCS Opposite-Spin Energy  =      -1.3207489497965665 [Eh]
	 SCS Correlation Energy    =      -1.4346530548317649 [Eh]
	 SCS Total Energy          =    -345.2843016093036113 [Eh]
	-----------------------------------------------------------

  Dipole Moment: [D]
     X:    -0.5010      Y:    -1.0570      Z:     0.3076     Total:     1.2095

*** Psi4 exiting successfully. Buy a developer a beer!
