                               Psi4 1.3.2 release

  ==> Input File <==

--------------------------------------------------------------------------
#psi4
#
memory 32 gb

molecule  {
0 1
  O        2.5331200    -0.0725200     0.2027050
  O        0.8230440     1.2494390    -0.4327460
  C       -1.8165730    -0.1662430    -0.5903910
  C       -2.6523125     0.6234419     0.4208057
  C       -0.9018550    -1.1471370     0.0763090
  C        0.4138040    -1.0149060     0.3209930
  C        1.2159030     0.1700770    -0.0266570
  H       -2.5678586    -0.6978956    -1.1848731
  H       -1.2597500     0.5079260    -1.2382380
  H       -3.2919980     1.3271690    -0.0377650
  H       -1.8881090     1.2530680     1.0427000
  H       -3.1450010     0.0036210     1.1307380
  H       -1.3667210    -2.0751620     0.4099140
  H        0.9531490    -1.8065430     0.8308200
  H        2.9905100     0.7616870    -0.0298800
units angstrom
no_reorient  #important for SAPT in psi4, default
symmetry c1  #important for SAPT in psi4, default
}

set PROPERTIES_ORIGIN ["COM"]
properties('MP2/aug-cc-pvtz', properties = ['dipole'])
--------------------------------------------------------------------------

    Molecular point group: c1
  Charge       = 0
  Multiplicity = 1
  Basis Set: AUG-CC-PVTZ
    Blend: AUG-CC-PVTZ
  Basis Set: (AUG-CC-PVTZ AUX)
    Blend: AUG-CC-PVTZ-JKFIT

    Orbital Energies [Eh]
    ---------------------

    Doubly Occupied:

       1A    -20.611529     2A    -20.544783     3A    -11.388538
       4A    -11.271936     5A    -11.244295     6A    -11.232025
       7A    -11.221469     8A     -1.458305     9A     -1.352764
      10A     -1.105573    11A     -1.021159    12A     -0.909671
      13A     -0.839481    14A     -0.752917    15A     -0.708148
      16A     -0.674862    17A     -0.647570    18A     -0.627908
      19A     -0.606923    20A     -0.579963    21A     -0.570718
      22A     -0.529079    23A     -0.513100    24A     -0.484227
      25A     -0.473980    26A     -0.444841    27A     -0.381298

  @DF-RHF Final Energy:  -343.84925735196646

   => Energetics <=

    Nuclear Repulsion Energy =            292.4181124453104417
    One-Electron Energy =               -1048.1406152682441189
    Two-Electron Energy =                 411.8732454709671629
    Total Energy =                       -343.8492573519664575
  Basis Set: (AUG-CC-PVTZ AUX)
    Blend: AUG-CC-PVTZ-RI
    Molecular point group: c1

    Geometry (in Angstrom), charge = 0, multiplicity = 1:

       Center              X                  Y                   Z               Mass
    ------------   -----------------  -----------------  -----------------  -----------------
         O            2.541731032748    -0.069278720703     0.206064519569    15.994914619570
         O            0.831655032748     1.252680279297    -0.429386480431    15.994914619570
         C           -1.807961967252    -0.163001720703    -0.587031480431    12.000000000000
         C           -2.643701467252     0.626683179297     0.424165219569    12.000000000000
         C           -0.893243967252    -1.143895720703     0.079668519569    12.000000000000
         C            0.422415032748    -1.011664720703     0.324352519569    12.000000000000
         C            1.224514032748     0.173318279297    -0.023297480431    12.000000000000
         H           -2.559247567252    -0.694654320703    -1.181513580431     1.007825032230
         H           -1.251138967252     0.511167279297    -1.234878480431     1.007825032230
         H           -3.283386967252     1.330410279297    -0.034405480431     1.007825032230
         H           -1.879497967252     1.256309279297     1.046059519569     1.007825032230
         H           -3.136389967252     0.006862279297     1.134097519569     1.007825032230
         H           -1.358109967252    -2.071920720703     0.413273519569     1.007825032230
         H            0.961760032748    -1.803301720703     0.834179519569     1.007825032230
         H            2.999121032748     0.764928279297    -0.026520480431     1.007825032230

  Basis Set: AUG-CC-PVTZ
    Blend: AUG-CC-PVTZ
  Basis Set: (AUG-CC-PVTZ AUX)
    Blend: AUG-CC-PVTZ-JKFIT
	 Reference Energy          =    -343.8492573519664575 [Eh]
	 Singles Energy            =      -0.0000000000000000 [Eh]
	 Same-Spin Energy          =      -0.3410912123253511 [Eh]
	 Opposite-Spin Energy      =      -1.1002881797035218 [Eh]
	 Correlation Energy        =      -1.4413793920288729 [Eh]
	 Total Energy              =    -345.2906367439953215 [Eh]

	 ================> DF-SCS-MP2 Energies <==================
	-----------------------------------------------------------
	 SCS Same-Spin Scale       =       0.3333333333333333 [-]
	 SCS Opposite-Spin Scale   =       1.2000000000000000 [-]
	 SCS Same-Spin Energy      =      -0.1136970707751170 [Eh]
	 SCS Opposite-Spin Energy  =      -1.3203458156442260 [Eh]
	 SCS Correlation Energy    =      -1.4340428864193431 [Eh]
	 SCS Total Energy          =    -345.2833002383857774 [Eh]
	-----------------------------------------------------------

  Dipole Moment: [D]
     X:    -0.4386      Y:    -1.1398      Z:     0.3315     Total:     1.2654

*** Psi4 exiting successfully. Buy a developer a beer!
