                               Psi4 1.4a3.dev225

  ==> Input File <==

--------------------------------------------------------------------------
#psi4
#
memory 32 gb

molecule  {
0 1
  O        2.6043210     0.0828630    -0.1445960
  O        0.8461570    -1.2916990     0.2386850
  C       -1.7394130     0.0979440     0.6095950
  C       -2.3802920    -0.6692310    -0.5542970
  C       -0.8230420     1.1744430     0.1086050
  C        0.4700621     1.0698773    -0.1692524
  C        1.2721580    -0.1688410     0.0026710
  H       -2.5220070     0.5621210     1.2198080
  H       -1.1892610    -0.6035630     1.2386490
  H       -3.0933810    -1.4091330    -0.1797240
  H       -1.6064800    -1.1915300    -1.1205690
  H       -2.9131760     0.0061510    -1.2301320
  H       -1.2820910     2.1452700    -0.0812320
  H        1.0432440     1.9287000    -0.5363220
  H        3.0455250    -0.7830240    -0.0219810
units angstrom
no_reorient  #important for SAPT in psi4, default
symmetry c1  #important for SAPT in psi4, default
}

set PROPERTIES_ORIGIN ["COM"]
properties('MP2/aug-cc-pvtz', properties = ['dipole'])
--------------------------------------------------------------------------

    Molecular point group: c1
  Charge       = 0
  Multiplicity = 1
  Basis Set: AUG-CC-PVTZ
    Blend: AUG-CC-PVTZ
  Basis Set: (AUG-CC-PVTZ AUX)
    Blend: AUG-CC-PVTZ-JKFIT

    Orbital Energies [Eh]
    ---------------------

    Doubly Occupied:

       1A    -20.613613     2A    -20.546162     3A    -11.391392
       4A    -11.266928     5A    -11.243878     6A    -11.231267
       7A    -11.218508     8A     -1.455885     9A     -1.351713
      10A     -1.106934    11A     -1.017157    12A     -0.906778
      13A     -0.840145    14A     -0.750857    15A     -0.707609
      16A     -0.672661    17A     -0.647959    18A     -0.626573
      19A     -0.600450    20A     -0.579768    21A     -0.567181
      22A     -0.525747    23A     -0.501768    24A     -0.495914
      25A     -0.479637    26A     -0.443666    27A     -0.384533

  @DF-RHF Final Energy:  -343.85543973885251

   => Energetics <=

    Nuclear Repulsion Energy =            293.8287364773525496
    One-Electron Energy =               -1051.0189857961590860
    Two-Electron Energy =                 413.3348095799540260
    Total Energy =                       -343.8554397388525103
  Basis Set: (AUG-CC-PVTZ AUX)
    Blend: AUG-CC-PVTZ-RI
    Molecular point group: c1

    Geometry (in Angstrom), charge = 0, multiplicity = 1:

       Center              X                  Y                   Z               Mass
    ------------   -----------------  -----------------  -----------------  -----------------
         O            2.522368962032     0.089107762658    -0.152149381677    15.994914619570
         O            0.764204962032    -1.285454237342     0.231131618323    15.994914619570
         C           -1.821365037968     0.104188762658     0.602041618323    12.000000000000
         C           -2.462244037968    -0.662986237342    -0.561850381677    12.000000000000
         C           -0.904994037968     1.180687762658     0.101051618323    12.000000000000
         C            0.388110062032     1.076122062658    -0.176805781677    12.000000000000
         C            1.190205962032    -0.162596237342    -0.004882381677    12.000000000000
         H           -2.603959037968     0.568365762658     1.212254618323     1.007825032230
         H           -1.271213037968    -0.597318237342     1.231095618323     1.007825032230
         H           -3.175333037968    -1.402888237342    -0.187277381677     1.007825032230
         H           -1.688432037968    -1.185285237342    -1.128122381677     1.007825032230
         H           -2.995128037968     0.012395762658    -1.237685381677     1.007825032230
         H           -1.364043037968     2.151514762658    -0.088785381677     1.007825032230
         H            0.961291962032     1.934944762658    -0.543875381677     1.007825032230
         H            2.963572962032    -0.776779237342    -0.029534381677     1.007825032230

  Basis Set: AUG-CC-PVTZ
    Blend: AUG-CC-PVTZ
  Basis Set: (AUG-CC-PVTZ AUX)
    Blend: AUG-CC-PVTZ-JKFIT
	 Reference Energy          =    -343.8554397388525103 [Eh]
	 Singles Energy            =      -0.0000000000000000 [Eh]
	 Same-Spin Energy          =      -0.3410796556612577 [Eh]
	 Opposite-Spin Energy      =      -1.1003867264914331 [Eh]
	 Correlation Energy        =      -1.4414663821526907 [Eh]
	 Total Energy              =    -345.2969061210051791 [Eh]

	 ================> DF-SCS-MP2 Energies <==================
	-----------------------------------------------------------
	 SCS Same-Spin Scale       =       0.3333333333333333 [-]
	 SCS Opposite-Spin Scale   =       1.2000000000000000 [-]
	 SCS Same-Spin Energy      =      -0.1136932185537526 [Eh]
	 SCS Opposite-Spin Energy  =      -1.3204640717897196 [Eh]
	 SCS Correlation Energy    =      -1.4341572903434721 [Eh]
	 SCS Total Energy          =    -345.2895970291959884 [Eh]
	-----------------------------------------------------------

  Dipole Moment: [D]
     X:    -0.3119      Y:     1.1349      Z:    -0.1305     Total:     1.1842

*** Psi4 exiting successfully. Buy a developer a beer!
