                               Psi4 1.3.2 release

  ==> Input File <==

--------------------------------------------------------------------------
#psi4
#
memory 32 gb

molecule  {
0 1
  O        2.5331200    -0.0725200     0.2027050
  O        0.8230440     1.2494390    -0.4327460
  C       -1.8165730    -0.1662430    -0.5903910
  C       -2.5778808     0.6457103     0.4611430
  C       -0.9058778    -1.1428634     0.0879878
  C        0.4138040    -1.0149060     0.3209930
  C        1.2159030     0.1700770    -0.0266570
  H       -2.5251580    -0.7208810    -1.2155130
  H       -1.2597500     0.5079260    -1.2382380
  H       -3.2919980     1.3271690    -0.0377650
  H       -1.8881090     1.2530680     1.0427000
  H       -3.1450010     0.0036210     1.1307380
  H       -1.3667210    -2.0751620     0.4099140
  H        0.9531490    -1.8065430     0.8308200
  H        2.9905100     0.7616870    -0.0298800
units angstrom
no_reorient  #important for SAPT in psi4, default
symmetry c1  #important for SAPT in psi4, default
}

set PROPERTIES_ORIGIN ["COM"]
properties('MP2/aug-cc-pvtz', properties = ['dipole'])
--------------------------------------------------------------------------

    Molecular point group: c1
  Charge       = 0
  Multiplicity = 1
  Basis Set: AUG-CC-PVTZ
    Blend: AUG-CC-PVTZ
  Basis Set: (AUG-CC-PVTZ AUX)
    Blend: AUG-CC-PVTZ-JKFIT

    Orbital Energies [Eh]
    ---------------------

    Doubly Occupied:

       1A    -20.611162     2A    -20.544391     3A    -11.388104
       4A    -11.270965     5A    -11.243093     6A    -11.231746
       7A    -11.221128     8A     -1.457947     9A     -1.352447
      10A     -1.105592    11A     -1.019668    12A     -0.908609
      13A     -0.839904    14A     -0.752747    15A     -0.707722
      16A     -0.673979    17A     -0.647442    18A     -0.627879
      19A     -0.600813    20A     -0.583621    21A     -0.566215
      22A     -0.528207    23A     -0.503127    24A     -0.496225
      25A     -0.481741    26A     -0.444278    27A     -0.380430

  @DF-RHF Final Energy:  -343.85626272765126

   => Energetics <=

    Nuclear Repulsion Energy =            292.8763808588427651
    One-Electron Energy =               -1049.0869232763693617
    Two-Electron Energy =                 412.3542796898752840
    Total Energy =                       -343.8562627276512558
  Basis Set: (AUG-CC-PVTZ AUX)
    Blend: AUG-CC-PVTZ-RI
    Molecular point group: c1

    Geometry (in Angstrom), charge = 0, multiplicity = 1:

       Center              X                  Y                   Z               Mass
    ------------   -----------------  -----------------  -----------------  -----------------
         O            2.532856270405    -0.072230560453     0.200134493234    15.994914619570
         O            0.822780270405     1.249728439547    -0.435316506766    15.994914619570
         C           -1.816836729595    -0.165953560453    -0.592961506766    12.000000000000
         C           -2.578144529595     0.645999739547     0.458572493234    12.000000000000
         C           -0.906141529595    -1.142573960453     0.085417293234    12.000000000000
         C            0.413540270405    -1.014616560453     0.318422493234    12.000000000000
         C            1.215639270405     0.170366439547    -0.029227506766    12.000000000000
         H           -2.525421729595    -0.720591560453    -1.218083506766     1.007825032230
         H           -1.260013729595     0.508215439547    -1.240808506766     1.007825032230
         H           -3.292261729595     1.327458439547    -0.040335506766     1.007825032230
         H           -1.888372729595     1.253357439547     1.040129493234     1.007825032230
         H           -3.145264729595     0.003910439547     1.128167493234     1.007825032230
         H           -1.366984729595    -2.074872560453     0.407343493234     1.007825032230
         H            0.952885270405    -1.806253560453     0.828249493234     1.007825032230
         H            2.990246270405     0.761976439547    -0.032450506766     1.007825032230

  Basis Set: AUG-CC-PVTZ
    Blend: AUG-CC-PVTZ
  Basis Set: (AUG-CC-PVTZ AUX)
    Blend: AUG-CC-PVTZ-JKFIT
	 Reference Energy          =    -343.8562627276512558 [Eh]
	 Singles Energy            =      -0.0000000000000000 [Eh]
	 Same-Spin Energy          =      -0.3409754949229832 [Eh]
	 Opposite-Spin Energy      =      -1.0999408945568554 [Eh]
	 Correlation Energy        =      -1.4409163894798387 [Eh]
	 Total Energy              =    -345.2971791171311224 [Eh]

	 ================> DF-SCS-MP2 Energies <==================
	-----------------------------------------------------------
	 SCS Same-Spin Scale       =       0.3333333333333333 [-]
	 SCS Opposite-Spin Scale   =       1.2000000000000000 [-]
	 SCS Same-Spin Energy      =      -0.1136584983076611 [Eh]
	 SCS Opposite-Spin Energy  =      -1.3199290734682265 [Eh]
	 SCS Correlation Energy    =      -1.4335875717758877 [Eh]
	 SCS Total Energy          =    -345.2898502994271439 [Eh]
	-----------------------------------------------------------

  Dipole Moment: [D]
     X:    -0.4320      Y:    -1.1328      Z:     0.3281     Total:     1.2560

*** Psi4 exiting successfully. Buy a developer a beer!
