                               Psi4 1.4a3.dev225

  ==> Input File <==

--------------------------------------------------------------------------
#psi4
#
memory 32 gb

molecule  {
0 1
  O        2.6043210     0.0828630    -0.1445960
  O        0.8461570    -1.2916990     0.2386850
  C       -1.7394130     0.0979440     0.6095950
  C       -2.3802920    -0.6692310    -0.5542970
  C       -0.8230420     1.1744430     0.1086050
  C        0.4408229     1.0722417    -0.1629696
  C        1.2721580    -0.1688410     0.0026710
  H       -2.5220070     0.5621210     1.2198080
  H       -1.1892610    -0.6035630     1.2386490
  H       -3.0933810    -1.4091330    -0.1797240
  H       -1.6064800    -1.1915300    -1.1205690
  H       -2.9131760     0.0061510    -1.2301320
  H       -1.2820910     2.1452700    -0.0812320
  H        1.0432440     1.9287000    -0.5363220
  H        3.0455250    -0.7830240    -0.0219810
units angstrom
no_reorient  #important for SAPT in psi4, default
symmetry c1  #important for SAPT in psi4, default
}

set PROPERTIES_ORIGIN ["COM"]
properties('MP2/aug-cc-pvtz', properties = ['dipole'])
--------------------------------------------------------------------------

    Molecular point group: c1
  Charge       = 0
  Multiplicity = 1
  Basis Set: AUG-CC-PVTZ
    Blend: AUG-CC-PVTZ
  Basis Set: (AUG-CC-PVTZ AUX)
    Blend: AUG-CC-PVTZ-JKFIT

    Orbital Energies [Eh]
    ---------------------

    Doubly Occupied:

       1A    -20.615608     2A    -20.547220     3A    -11.393129
       4A    -11.259831     5A    -11.243312     6A    -11.230065
       7A    -11.217608     8A     -1.456852     9A     -1.352784
      10A     -1.110776    11A     -1.016464    12A     -0.904667
      13A     -0.841294    14A     -0.750533    15A     -0.707625
      16A     -0.670515    17A     -0.650484    18A     -0.627151
      19A     -0.601173    20A     -0.580192    21A     -0.565062
      22A     -0.524970    23A     -0.501021    24A     -0.495635
      25A     -0.479773    26A     -0.441236    27A     -0.390655

  @DF-RHF Final Energy:  -343.85326188497476

   => Energetics <=

    Nuclear Repulsion Energy =            293.9828415564283546
    One-Electron Energy =               -1051.3209335819985881
    Two-Electron Energy =                 413.4848301405954203
    Total Energy =                       -343.8532618849747564
  Basis Set: (AUG-CC-PVTZ AUX)
    Blend: AUG-CC-PVTZ-RI
    Molecular point group: c1

    Geometry (in Angstrom), charge = 0, multiplicity = 1:

       Center              X                  Y                   Z               Mass
    ------------   -----------------  -----------------  -----------------  -----------------
         O            2.525875827400     0.088824183337    -0.152902922600    15.994914619570
         O            0.767711827400    -1.285737816663     0.230378077400    15.994914619570
         C           -1.817858172600     0.103905183337     0.601288077400    12.000000000000
         C           -2.458737172600    -0.663269816663    -0.562603922600    12.000000000000
         C           -0.901487172600     1.180404183337     0.100298077400    12.000000000000
         C            0.362377727400     1.078202883337    -0.171276522600    12.000000000000
         C            1.193712827400    -0.162879816663    -0.005635922600    12.000000000000
         H           -2.600452172600     0.568082183337     1.211501077400     1.007825032230
         H           -1.267706172600    -0.597601816663     1.230342077400     1.007825032230
         H           -3.171826172600    -1.403171816663    -0.188030922600     1.007825032230
         H           -1.684925172600    -1.185568816663    -1.128875922600     1.007825032230
         H           -2.991621172600     0.012112183337    -1.238438922600     1.007825032230
         H           -1.360536172600     2.151231183337    -0.089538922600     1.007825032230
         H            0.964798827400     1.934661183337    -0.544628922600     1.007825032230
         H            2.967079827400    -0.777062816663    -0.030287922600     1.007825032230

  Basis Set: AUG-CC-PVTZ
    Blend: AUG-CC-PVTZ
  Basis Set: (AUG-CC-PVTZ AUX)
    Blend: AUG-CC-PVTZ-JKFIT
	 Reference Energy          =    -343.8532618849747564 [Eh]
	 Singles Energy            =      -0.0000000000000000 [Eh]
	 Same-Spin Energy          =      -0.3407618963116928 [Eh]
	 Opposite-Spin Energy      =      -1.0998523417707413 [Eh]
	 Correlation Energy        =      -1.4406142380824343 [Eh]
	 Total Energy              =    -345.2938761230572027 [Eh]

	 ================> DF-SCS-MP2 Energies <==================
	-----------------------------------------------------------
	 SCS Same-Spin Scale       =       0.3333333333333333 [-]
	 SCS Opposite-Spin Scale   =       1.2000000000000000 [-]
	 SCS Same-Spin Energy      =      -0.1135872987705643 [Eh]
	 SCS Opposite-Spin Energy  =      -1.3198228101248894 [Eh]
	 SCS Correlation Energy    =      -1.4334101088954536 [Eh]
	 SCS Total Energy          =    -345.2866719938701863 [Eh]
	-----------------------------------------------------------

  Dipole Moment: [D]
     X:    -0.2521      Y:     1.1073      Z:    -0.1278     Total:     1.1428

*** Psi4 exiting successfully. Buy a developer a beer!
