                               Psi4 1.3.2 release

  ==> Input File <==

--------------------------------------------------------------------------
#psi4
#
memory 32 gb

molecule  {
0 1
  O        2.5331200    -0.0725200     0.2027050
  O        0.8230440     1.2494390    -0.4327460
  C       -1.8165730    -0.1662430    -0.5903910
  C       -2.5841030     0.6523970     0.4513900
  C       -0.9018550    -1.1471370     0.0763090
  C        0.4138040    -1.0149060     0.3209930
  C        1.2703730     0.2505484    -0.0502657
  H       -2.5251580    -0.7208810    -1.2155130
  H       -1.2597500     0.5079260    -1.2382380
  H       -3.2919980     1.3271690    -0.0377650
  H       -1.8881090     1.2530680     1.0427000
  H       -3.1450010     0.0036210     1.1307380
  H       -1.3667210    -2.0751620     0.4099140
  H        0.9531490    -1.8065430     0.8308200
  H        2.9905100     0.7616870    -0.0298800
units angstrom
no_reorient  #important for SAPT in psi4, default
symmetry c1  #important for SAPT in psi4, default
}

set PROPERTIES_ORIGIN ["COM"]
properties('MP2/aug-cc-pvtz', properties = ['dipole'])
--------------------------------------------------------------------------

    Molecular point group: c1
  Charge       = 0
  Multiplicity = 1
  Basis Set: AUG-CC-PVTZ
    Blend: AUG-CC-PVTZ
  Basis Set: (AUG-CC-PVTZ AUX)
    Blend: AUG-CC-PVTZ-JKFIT

    Orbital Energies [Eh]
    ---------------------

    Doubly Occupied:

       1A    -20.623155     2A    -20.554969     3A    -11.387120
       4A    -11.255644     5A    -11.239630     6A    -11.226096
       7A    -11.216803     8A     -1.489394     9A     -1.395847
      10A     -1.091889    11A     -1.004690    12A     -0.895159
      13A     -0.836461    14A     -0.753317    15A     -0.718476
      16A     -0.679527    17A     -0.653900    18A     -0.647399
      19A     -0.599261    20A     -0.581575    21A     -0.564532
      22A     -0.523720    23A     -0.507297    24A     -0.500994
      25A     -0.486437    26A     -0.437315    27A     -0.371509

  @DF-RHF Final Energy:  -343.84850627771419

   => Energetics <=

    Nuclear Repulsion Energy =            292.9933208891927165
    One-Electron Energy =               -1049.1994197715207520
    Two-Electron Energy =                 412.3575926046137852
    Total Energy =                       -343.8485062777141934
  Basis Set: (AUG-CC-PVTZ AUX)
    Blend: AUG-CC-PVTZ-RI
    Molecular point group: c1

    Geometry (in Angstrom), charge = 0, multiplicity = 1:

       Center              X                  Y                   Z               Mass
    ------------   -----------------  -----------------  -----------------  -----------------
         O            2.526587085308    -0.082171488474     0.205536520978    15.994914619570
         O            0.816511085308     1.239787511526    -0.429914479022    15.994914619570
         C           -1.823105914692    -0.175894488474    -0.587559479022    12.000000000000
         C           -2.590635914692     0.642745511526     0.454221520978    12.000000000000
         C           -0.908387914692    -1.156788488474     0.079140520978    12.000000000000
         C            0.407271085308    -1.024557488474     0.323824520978    12.000000000000
         C            1.263840085308     0.240896911526    -0.047434179022    12.000000000000
         H           -2.531690914692    -0.730532488474    -1.212681479022     1.007825032230
         H           -1.266282914692     0.498274511526    -1.235406479022     1.007825032230
         H           -3.298530914692     1.317517511526    -0.034933479022     1.007825032230
         H           -1.894641914692     1.243416511526     1.045531520978     1.007825032230
         H           -3.151533914692    -0.006030488474     1.133569520978     1.007825032230
         H           -1.373253914692    -2.084813488474     0.412745520978     1.007825032230
         H            0.946616085308    -1.816194488474     0.833651520978     1.007825032230
         H            2.983977085308     0.752035511526    -0.027048479022     1.007825032230

  Basis Set: AUG-CC-PVTZ
    Blend: AUG-CC-PVTZ
  Basis Set: (AUG-CC-PVTZ AUX)
    Blend: AUG-CC-PVTZ-JKFIT
	 Reference Energy          =    -343.8485062777141934 [Eh]
	 Singles Energy            =      -0.0000000000000000 [Eh]
	 Same-Spin Energy          =      -0.3394166536084238 [Eh]
	 Opposite-Spin Energy      =      -1.0973040729895156 [Eh]
	 Correlation Energy        =      -1.4367207265979394 [Eh]
	 Total Energy              =    -345.2852270043121052 [Eh]

	 ================> DF-SCS-MP2 Energies <==================
	-----------------------------------------------------------
	 SCS Same-Spin Scale       =       0.3333333333333333 [-]
	 SCS Opposite-Spin Scale   =       1.2000000000000000 [-]
	 SCS Same-Spin Energy      =      -0.1131388845361413 [Eh]
	 SCS Opposite-Spin Energy  =      -1.3167648875874187 [Eh]
	 SCS Correlation Energy    =      -1.4299037721235599 [Eh]
	 SCS Total Energy          =    -345.2784100498377597 [Eh]
	-----------------------------------------------------------

  Dipole Moment: [D]
     X:     0.1512      Y:    -0.6419      Z:     0.2207     Total:     0.6954

*** Psi4 exiting successfully. Buy a developer a beer!
