                               Psi4 1.3.2 release

  ==> Input File <==

--------------------------------------------------------------------------
#psi4
#
memory 32 gb

molecule  {
0 1
  O        2.5331200    -0.0725200     0.2027050
  O        0.8230440     1.2494390    -0.4327460
  C       -1.8165730    -0.1662430    -0.5903910
  C       -2.5841030     0.6523970     0.4513900
  C       -0.9018550    -1.1471370     0.0763090
  C        0.4138040    -1.0149060     0.3209930
  C        1.2159030     0.1700770    -0.0266570
  H       -2.5251580    -0.7208810    -1.2155130
  H       -1.2597500     0.5079260    -1.2382380
  H       -3.2919980     1.3271690    -0.0377650
  H       -1.8881090     1.2530680     1.0427000
  H       -3.1450010     0.0036210     1.1307380
  H       -1.3667210    -2.0751620     0.4099140
  H        0.9531490    -1.8065430     0.8308200
  H        3.0839131     0.9320395    -0.0773759
units angstrom
no_reorient  #important for SAPT in psi4, default
symmetry c1  #important for SAPT in psi4, default
}

set PROPERTIES_ORIGIN ["COM"]
properties('MP2/aug-cc-pvtz', properties = ['dipole'])
--------------------------------------------------------------------------

    Molecular point group: c1
  Charge       = 0
  Multiplicity = 1
  Basis Set: AUG-CC-PVTZ
    Blend: AUG-CC-PVTZ
  Basis Set: (AUG-CC-PVTZ AUX)
    Blend: AUG-CC-PVTZ-JKFIT

    Orbital Energies [Eh]
    ---------------------

    Doubly Occupied:

       1A    -20.620114     2A    -20.541225     3A    -11.384807
       4A    -11.269673     5A    -11.242674     6A    -11.230526
       7A    -11.220310     8A     -1.437926     9A     -1.335845
      10A     -1.103740    11A     -1.016558    12A     -0.898618
      13A     -0.830126    14A     -0.739858    15A     -0.693179
      16A     -0.664926    17A     -0.642398    18A     -0.621963
      19A     -0.590385    20A     -0.581781    21A     -0.555063
      22A     -0.526385    23A     -0.502383    24A     -0.493844
      25A     -0.476664    26A     -0.441301    27A     -0.379870

  @DF-RHF Final Energy:  -343.82158403838491

   => Energetics <=

    Nuclear Repulsion Energy =            291.7897846737850500
    One-Electron Energy =               -1047.1384532029562706
    Two-Electron Energy =                 411.5270844907862511
    Total Energy =                       -343.8215840383849127
  Basis Set: (AUG-CC-PVTZ AUX)
    Blend: AUG-CC-PVTZ-RI
    Molecular point group: c1

    Geometry (in Angstrom), charge = 0, multiplicity = 1:

       Center              X                  Y                   Z               Mass
    ------------   -----------------  -----------------  -----------------  -----------------
         O            2.532179213560    -0.074235936183     0.203183386284    15.994914619570
         O            0.822103213560     1.247723063817    -0.432267613716    15.994914619570
         C           -1.817513786440    -0.167958936183    -0.589912613716    12.000000000000
         C           -2.585043786440     0.650681063817     0.451868386284    12.000000000000
         C           -0.902795786440    -1.148852936183     0.076787386284    12.000000000000
         C            0.412863213560    -1.016621936183     0.321471386284    12.000000000000
         C            1.214962213560     0.168361063817    -0.026178613716    12.000000000000
         H           -2.526098786440    -0.722596936183    -1.215034613716     1.007825032230
         H           -1.260690786440     0.506210063817    -1.237759613716     1.007825032230
         H           -3.292938786440     1.325453063817    -0.037286613716     1.007825032230
         H           -1.889049786440     1.251352063817     1.043178386284     1.007825032230
         H           -3.145941786440     0.001905063817     1.131216386284     1.007825032230
         H           -1.367661786440    -2.076877936183     0.410392386284     1.007825032230
         H            0.952208213560    -1.808258936183     0.831298386284     1.007825032230
         H            3.082972313560     0.930323563817    -0.076897513716     1.007825032230

  Basis Set: AUG-CC-PVTZ
    Blend: AUG-CC-PVTZ
  Basis Set: (AUG-CC-PVTZ AUX)
    Blend: AUG-CC-PVTZ-JKFIT
	 Reference Energy          =    -343.8215840383849127 [Eh]
	 Singles Energy            =      -0.0000000000000000 [Eh]
	 Same-Spin Energy          =      -0.3434814280488413 [Eh]
	 Opposite-Spin Energy      =      -1.1065127073188783 [Eh]
	 Correlation Energy        =      -1.4499941353677195 [Eh]
	 Total Energy              =    -345.2715781737526299 [Eh]

	 ================> DF-SCS-MP2 Energies <==================
	-----------------------------------------------------------
	 SCS Same-Spin Scale       =       0.3333333333333333 [-]
	 SCS Opposite-Spin Scale   =       1.2000000000000000 [-]
	 SCS Same-Spin Energy      =      -0.1144938093496138 [Eh]
	 SCS Opposite-Spin Energy  =      -1.3278152487826540 [Eh]
	 SCS Correlation Energy    =      -1.4423090581322677 [Eh]
	 SCS Total Energy          =    -345.2638930965171653 [Eh]
	-----------------------------------------------------------

  Dipole Moment: [D]
     X:    -0.2543      Y:    -0.9447      Z:     0.2917     Total:     1.0209

*** Psi4 exiting successfully. Buy a developer a beer!
