                               Psi4 1.3.2 release

  ==> Input File <==

--------------------------------------------------------------------------
#psi4
#
memory 32 gb

molecule  {
0 1
  O        2.5331200    -0.0725200     0.2027050
  O        0.8230440     1.2494390    -0.4327460
  C       -1.8165730    -0.1662430    -0.5903910
  C       -2.6070826     0.6429908     0.4415085
  C       -0.9018550    -1.1471370     0.0763090
  C        0.4138040    -1.0149060     0.3209930
  C        1.2159030     0.1700770    -0.0266570
  H       -2.5396132    -0.7133851    -1.2054860
  H       -1.2597500     0.5079260    -1.2382380
  H       -3.2919980     1.3271690    -0.0377650
  H       -1.8881090     1.2530680     1.0427000
  H       -3.1450010     0.0036210     1.1307380
  H       -1.3667210    -2.0751620     0.4099140
  H        0.9531490    -1.8065430     0.8308200
  H        2.9905100     0.7616870    -0.0298800
units angstrom
no_reorient  #important for SAPT in psi4, default
symmetry c1  #important for SAPT in psi4, default
}

set PROPERTIES_ORIGIN ["COM"]
properties('MP2/aug-cc-pvtz', properties = ['dipole'])
--------------------------------------------------------------------------

    Molecular point group: c1
  Charge       = 0
  Multiplicity = 1
  Basis Set: AUG-CC-PVTZ
    Blend: AUG-CC-PVTZ
  Basis Set: (AUG-CC-PVTZ AUX)
    Blend: AUG-CC-PVTZ-JKFIT

    Orbital Energies [Eh]
    ---------------------

    Doubly Occupied:

       1A    -20.611358     2A    -20.544610     3A    -11.388315
       4A    -11.271223     5A    -11.243574     6A    -11.231598
       7A    -11.220977     8A     -1.458141     9A     -1.352622
      10A     -1.105484    11A     -1.020110    12A     -0.909081
      13A     -0.839666    14A     -0.752555    15A     -0.707936
      16A     -0.674159    17A     -0.647174    18A     -0.627924
      19A     -0.602822    20A     -0.582104    21A     -0.567802
      22A     -0.526713    23A     -0.507381    24A     -0.490967
      25A     -0.481670    26A     -0.444496    27A     -0.381180

  @DF-RHF Final Energy:  -343.85580641190711

   => Energetics <=

    Nuclear Repulsion Energy =            292.6794692537835658
    One-Electron Energy =               -1048.6872681675929471
    Two-Electron Energy =                 412.1519925019023276
    Total Energy =                       -343.8558064119071105
  Basis Set: (AUG-CC-PVTZ AUX)
    Blend: AUG-CC-PVTZ-RI
    Molecular point group: c1

    Geometry (in Angstrom), charge = 0, multiplicity = 1:

       Center              X                  Y                   Z               Mass
    ------------   -----------------  -----------------  -----------------  -----------------
         O            2.536021773872    -0.071467334165     0.203789118516    15.994914619570
         O            0.825945773872     1.250491665835    -0.431661881484    15.994914619570
         C           -1.813671226128    -0.165190334165    -0.589306881484    12.000000000000
         C           -2.604180826128     0.644043465835     0.442592618516    12.000000000000
         C           -0.898953226128    -1.146084334165     0.077393118516    12.000000000000
         C            0.416705773872    -1.013853334165     0.322077118516    12.000000000000
         C            1.218804773872     0.171129665835    -0.025572881484    12.000000000000
         H           -2.536711426128    -0.712332434165    -1.204401881484     1.007825032230
         H           -1.256848226128     0.508978665835    -1.237153881484     1.007825032230
         H           -3.289096226128     1.328221665835    -0.036680881484     1.007825032230
         H           -1.885207226128     1.254120665835     1.043784118516     1.007825032230
         H           -3.142099226128     0.004673665835     1.131822118516     1.007825032230
         H           -1.363819226128    -2.074109334165     0.410998118516     1.007825032230
         H            0.956050773872    -1.805490334165     0.831904118516     1.007825032230
         H            2.993411773872     0.762739665835    -0.028795881484     1.007825032230

  Basis Set: AUG-CC-PVTZ
    Blend: AUG-CC-PVTZ
  Basis Set: (AUG-CC-PVTZ AUX)
    Blend: AUG-CC-PVTZ-JKFIT
	 Reference Energy          =    -343.8558064119071105 [Eh]
	 Singles Energy            =      -0.0000000000000000 [Eh]
	 Same-Spin Energy          =      -0.3409502516720100 [Eh]
	 Opposite-Spin Energy      =      -1.0999289815832967 [Eh]
	 Correlation Energy        =      -1.4408792332553066 [Eh]
	 Total Energy              =    -345.2966856451624267 [Eh]

	 ================> DF-SCS-MP2 Energies <==================
	-----------------------------------------------------------
	 SCS Same-Spin Scale       =       0.3333333333333333 [-]
	 SCS Opposite-Spin Scale   =       1.2000000000000000 [-]
	 SCS Same-Spin Energy      =      -0.1136500838906700 [Eh]
	 SCS Opposite-Spin Energy  =      -1.3199147778999560 [Eh]
	 SCS Correlation Energy    =      -1.4335648617906260 [Eh]
	 SCS Total Energy          =    -345.2893712736977250 [Eh]
	-----------------------------------------------------------

  Dipole Moment: [D]
     X:    -0.4297      Y:    -1.1263      Z:     0.3353     Total:     1.2513

*** Psi4 exiting successfully. Buy a developer a beer!
