                               Psi4 1.3.2 release

  ==> Input File <==

--------------------------------------------------------------------------
#psi4
#
memory 32 gb

molecule  {
0 1
  O        2.5331200    -0.0725200     0.2027050
  O        0.8230440     1.2494390    -0.4327460
  C       -1.8165730    -0.1662430    -0.5903910
  C       -2.5588683     0.6252811     0.4899185
  C       -0.9183612    -1.1295979     0.1227105
  C        0.4138040    -1.0149060     0.3209930
  C        1.2159030     0.1700770    -0.0266570
  H       -2.5251580    -0.7208810    -1.2155130
  H       -1.2597500     0.5079260    -1.2382380
  H       -3.2919980     1.3271690    -0.0377650
  H       -1.8881090     1.2530680     1.0427000
  H       -3.1450010     0.0036210     1.1307380
  H       -1.3667210    -2.0751620     0.4099140
  H        0.9531490    -1.8065430     0.8308200
  H        2.9905100     0.7616870    -0.0298800
units angstrom
no_reorient  #important for SAPT in psi4, default
symmetry c1  #important for SAPT in psi4, default
}

set PROPERTIES_ORIGIN ["COM"]
properties('MP2/aug-cc-pvtz', properties = ['dipole'])
--------------------------------------------------------------------------

    Molecular point group: c1
  Charge       = 0
  Multiplicity = 1
  Basis Set: AUG-CC-PVTZ
    Blend: AUG-CC-PVTZ
  Basis Set: (AUG-CC-PVTZ AUX)
    Blend: AUG-CC-PVTZ-JKFIT

    Orbital Energies [Eh]
    ---------------------

    Doubly Occupied:

       1A    -20.610866     2A    -20.544041     3A    -11.387834
       4A    -11.271521     5A    -11.243038     6A    -11.232471
       7A    -11.221453     8A     -1.457651     9A     -1.352173
      10A     -1.105847    11A     -1.019481    12A     -0.907758
      13A     -0.839795    14A     -0.753665    15A     -0.707386
      16A     -0.674104    17A     -0.648446    18A     -0.627771
      19A     -0.600345    20A     -0.585100    21A     -0.565641
      22A     -0.530395    23A     -0.505239    24A     -0.492161
      25A     -0.480824    26A     -0.444283    27A     -0.378138

  @DF-RHF Final Energy:  -343.85170188710856

   => Energetics <=

    Nuclear Repulsion Energy =            293.0480781432133313
    One-Electron Energy =               -1049.4247021832277369
    Two-Electron Energy =                 412.5249221529057877
    Total Energy =                       -343.8517018871085611
  Basis Set: (AUG-CC-PVTZ AUX)
    Blend: AUG-CC-PVTZ-RI
    Molecular point group: c1

    Geometry (in Angstrom), charge = 0, multiplicity = 1:

       Center              X                  Y                   Z               Mass
    ------------   -----------------  -----------------  -----------------  -----------------
         O            2.532073188971    -0.071371366924     0.192518702155    15.994914619570
         O            0.821997188971     1.250587633076    -0.442932297845    15.994914619570
         C           -1.817619811029    -0.165094366924    -0.600577297845    12.000000000000
         C           -2.559915111029     0.626429733076     0.479732202155    12.000000000000
         C           -0.919408011029    -1.128449266924     0.112524202155    12.000000000000
         C            0.412757188971    -1.013757366924     0.310806702155    12.000000000000
         C            1.214856188971     0.171225633076    -0.036843297845    12.000000000000
         H           -2.526204811029    -0.719732366924    -1.225699297845     1.007825032230
         H           -1.260796811029     0.509074633076    -1.248424297845     1.007825032230
         H           -3.293044811029     1.328317633076    -0.047951297845     1.007825032230
         H           -1.889155811029     1.254216633076     1.032513702155     1.007825032230
         H           -3.146047811029     0.004769633076     1.120551702155     1.007825032230
         H           -1.367767811029    -2.074013366924     0.399727702155     1.007825032230
         H            0.952102188971    -1.805394366924     0.820633702155     1.007825032230
         H            2.989463188971     0.762835633076    -0.040066297845     1.007825032230

  Basis Set: AUG-CC-PVTZ
    Blend: AUG-CC-PVTZ
  Basis Set: (AUG-CC-PVTZ AUX)
    Blend: AUG-CC-PVTZ-JKFIT
	 Reference Energy          =    -343.8517018871085611 [Eh]
	 Singles Energy            =      -0.0000000000000000 [Eh]
	 Same-Spin Energy          =      -0.3412299142258745 [Eh]
	 Opposite-Spin Energy      =      -1.1004078988286530 [Eh]
	 Correlation Energy        =      -1.4416378130545275 [Eh]
	 Total Energy              =    -345.2933397001630738 [Eh]

	 ================> DF-SCS-MP2 Energies <==================
	-----------------------------------------------------------
	 SCS Same-Spin Scale       =       0.3333333333333333 [-]
	 SCS Opposite-Spin Scale   =       1.2000000000000000 [-]
	 SCS Same-Spin Energy      =      -0.1137433047419582 [Eh]
	 SCS Opposite-Spin Energy  =      -1.3204894785943835 [Eh]
	 SCS Correlation Energy    =      -1.4342327833363417 [Eh]
	 SCS Total Energy          =    -345.2859346704449308 [Eh]
	-----------------------------------------------------------

  Dipole Moment: [D]
     X:    -0.4437      Y:    -1.1654      Z:     0.3094     Total:     1.2848

*** Psi4 exiting successfully. Buy a developer a beer!
