                               Psi4 1.3.2 release

  ==> Input File <==

--------------------------------------------------------------------------
#psi4
#
memory 32 gb

molecule  {
0 1
  O        2.5428302    -0.0281845     0.1889290
  O        0.8632775     1.2632089    -0.4328426
  C       -1.8165730    -0.1662430    -0.5903910
  C       -2.5841030     0.6523970     0.4513900
  C       -0.9018550    -1.1471370     0.0763090
  C        0.4138040    -1.0149060     0.3209930
  C        1.2159030     0.1700770    -0.0266570
  H       -2.5251580    -0.7208810    -1.2155130
  H       -1.2597500     0.5079260    -1.2382380
  H       -3.2919980     1.3271690    -0.0377650
  H       -1.8881090     1.2530680     1.0427000
  H       -3.1450010     0.0036210     1.1307380
  H       -1.3667210    -2.0751620     0.4099140
  H        0.9531490    -1.8065430     0.8308200
  H        2.9905100     0.7616870    -0.0298800
units angstrom
no_reorient  #important for SAPT in psi4, default
symmetry c1  #important for SAPT in psi4, default
}

set PROPERTIES_ORIGIN ["COM"]
properties('MP2/aug-cc-pvtz', properties = ['dipole'])
--------------------------------------------------------------------------

    Molecular point group: c1
  Charge       = 0
  Multiplicity = 1
  Basis Set: AUG-CC-PVTZ
    Blend: AUG-CC-PVTZ
  Basis Set: (AUG-CC-PVTZ AUX)
    Blend: AUG-CC-PVTZ-JKFIT

    Orbital Energies [Eh]
    ---------------------

    Doubly Occupied:

       1A    -20.601016     2A    -20.541446     3A    -11.387971
       4A    -11.274196     5A    -11.247287     6A    -11.233687
       7A    -11.222629     8A     -1.462554     9A     -1.349191
      10A     -1.108539    11A     -1.022489    12A     -0.913427
      13A     -0.844448    14A     -0.759469    15A     -0.706786
      16A     -0.674814    17A     -0.649437    18A     -0.626569
      19A     -0.602691    20A     -0.584844    21A     -0.567201
      22A     -0.529308    23A     -0.504406    24A     -0.496348
      25A     -0.479038    26A     -0.444094    27A     -0.383768

  @DF-RHF Final Energy:  -343.85726183719373

   => Energetics <=

    Nuclear Repulsion Energy =            292.6704305081879625
    One-Electron Energy =               -1048.6200797875903845
    Two-Electron Energy =                 412.0923874422086328
    Total Energy =                       -343.8572618371937324
  Basis Set: (AUG-CC-PVTZ AUX)
    Blend: AUG-CC-PVTZ-RI
    Molecular point group: c1

    Geometry (in Angstrom), charge = 0, multiplicity = 1:

       Center              X                  Y                   Z               Mass
    ------------   -----------------  -----------------  -----------------  -----------------
         O            2.534845994039    -0.037473519634     0.191146709322    15.994914619570
         O            0.855293294039     1.253919880366    -0.430624890678    15.994914619570
         C           -1.824557205961    -0.175532019634    -0.588173290678    12.000000000000
         C           -2.592087205961     0.643107980366     0.453607709322    12.000000000000
         C           -0.909839205961    -1.156426019634     0.078526709322    12.000000000000
         C            0.405819794039    -1.024195019634     0.323210709322    12.000000000000
         C            1.207918794039     0.160787980366    -0.024439290678    12.000000000000
         H           -2.533142205961    -0.730170019634    -1.213295290678     1.007825032230
         H           -1.267734205961     0.498636980366    -1.236020290678     1.007825032230
         H           -3.299982205961     1.317879980366    -0.035547290678     1.007825032230
         H           -1.896093205961     1.243778980366     1.044917709322     1.007825032230
         H           -3.152985205961    -0.005668019634     1.132955709322     1.007825032230
         H           -1.374705205961    -2.084451019634     0.412131709322     1.007825032230
         H            0.945164794039    -1.815832019634     0.833037709322     1.007825032230
         H            2.982525794039     0.752397980366    -0.027662290678     1.007825032230

  Basis Set: AUG-CC-PVTZ
    Blend: AUG-CC-PVTZ
  Basis Set: (AUG-CC-PVTZ AUX)
    Blend: AUG-CC-PVTZ-JKFIT
	 Reference Energy          =    -343.8572618371937324 [Eh]
	 Singles Energy            =      -0.0000000000000000 [Eh]
	 Same-Spin Energy          =      -0.3399419835894496 [Eh]
	 Opposite-Spin Energy      =      -1.0977999627092709 [Eh]
	 Correlation Energy        =      -1.4377419462987207 [Eh]
	 Total Energy              =    -345.2950037834924615 [Eh]

	 ================> DF-SCS-MP2 Energies <==================
	-----------------------------------------------------------
	 SCS Same-Spin Scale       =       0.3333333333333333 [-]
	 SCS Opposite-Spin Scale   =       1.2000000000000000 [-]
	 SCS Same-Spin Energy      =      -0.1133139945298165 [Eh]
	 SCS Opposite-Spin Energy  =      -1.3173599552511250 [Eh]
	 SCS Correlation Energy    =      -1.4306739497809415 [Eh]
	 SCS Total Energy          =    -345.2879357869746855 [Eh]
	-----------------------------------------------------------

  Dipole Moment: [D]
     X:    -0.6444      Y:    -1.2528      Z:     0.3564     Total:     1.4532

*** Psi4 exiting successfully. Buy a developer a beer!
