                               Psi4 1.3.2 release

  ==> Input File <==

--------------------------------------------------------------------------
#psi4
#
memory 32 gb

molecule  {
0 1
  O        2.5331200    -0.0725200     0.2027050
  O        0.8230440     1.2494390    -0.4327460
  C       -1.8165730    -0.1662430    -0.5903910
  C       -2.5841030     0.6523970     0.4513900
  C       -0.8774490    -1.1071781     0.0995643
  C        0.4138040    -1.0149060     0.3209930
  C        1.2159030     0.1700770    -0.0266570
  H       -2.5410753    -0.6876565    -1.2257790
  H       -1.2597500     0.5079260    -1.2382380
  H       -3.2919980     1.3271690    -0.0377650
  H       -1.8881090     1.2530680     1.0427000
  H       -3.1450010     0.0036210     1.1307380
  H       -1.3667210    -2.0751620     0.4099140
  H        0.9531490    -1.8065430     0.8308200
  H        2.9905100     0.7616870    -0.0298800
units angstrom
no_reorient  #important for SAPT in psi4, default
symmetry c1  #important for SAPT in psi4, default
}

set PROPERTIES_ORIGIN ["COM"]
properties('MP2/aug-cc-pvtz', properties = ['dipole'])
--------------------------------------------------------------------------

    Molecular point group: c1
  Charge       = 0
  Multiplicity = 1
  Basis Set: AUG-CC-PVTZ
    Blend: AUG-CC-PVTZ
  Basis Set: (AUG-CC-PVTZ AUX)
    Blend: AUG-CC-PVTZ-JKFIT

    Orbital Energies [Eh]
    ---------------------

    Doubly Occupied:

       1A    -20.611633     2A    -20.545081     3A    -11.388112
       4A    -11.268855     5A    -11.240335     6A    -11.231394
       7A    -11.220276     8A     -1.458531     9A     -1.353094
      10A     -1.110029    11A     -1.022935    12A     -0.906410
      13A     -0.841352    14A     -0.747995    15A     -0.709049
      16A     -0.676895    17A     -0.645796    18A     -0.628553
      19A     -0.602695    20A     -0.586075    21A     -0.560719
      22A     -0.526063    23A     -0.502886    24A     -0.495621
      25A     -0.482289    26A     -0.441353    27A     -0.388434

  @DF-RHF Final Energy:  -343.85424777218560

   => Energetics <=

    Nuclear Repulsion Energy =            293.4336298030636385
    One-Electron Energy =               -1050.1908327872158679
    Two-Electron Energy =                 412.9029552119665709
    Total Energy =                       -343.8542477721856017
  Basis Set: (AUG-CC-PVTZ AUX)
    Blend: AUG-CC-PVTZ-RI
    Molecular point group: c1

    Geometry (in Angstrom), charge = 0, multiplicity = 1:

       Center              X                  Y                   Z               Mass
    ------------   -----------------  -----------------  -----------------  -----------------
         O            2.530353209282    -0.077647205361     0.200019197001    15.994914619570
         O            0.820277209282     1.244311794639    -0.435431802999    15.994914619570
         C           -1.819339790718    -0.171370205361    -0.593076802999    12.000000000000
         C           -2.586869790718     0.647269794639     0.448704197001    12.000000000000
         C           -0.880215790718    -1.112305305361     0.096878497001    12.000000000000
         C            0.411037209282    -1.020033205361     0.318307197001    12.000000000000
         C            1.213136209282     0.164949794639    -0.029342802999    12.000000000000
         H           -2.543842090718    -0.692783705361    -1.228464802999     1.007825032230
         H           -1.262516790718     0.502798794639    -1.240923802999     1.007825032230
         H           -3.294764790718     1.322041794639    -0.040450802999     1.007825032230
         H           -1.890875790718     1.247940794639     1.040014197001     1.007825032230
         H           -3.147767790718    -0.001506205361     1.128052197001     1.007825032230
         H           -1.369487790718    -2.080289205361     0.407228197001     1.007825032230
         H            0.950382209282    -1.811670205361     0.828134197001     1.007825032230
         H            2.987743209282     0.756559794639    -0.032565802999     1.007825032230

  Basis Set: AUG-CC-PVTZ
    Blend: AUG-CC-PVTZ
  Basis Set: (AUG-CC-PVTZ AUX)
    Blend: AUG-CC-PVTZ-JKFIT
	 Reference Energy          =    -343.8542477721856017 [Eh]
	 Singles Energy            =      -0.0000000000000000 [Eh]
	 Same-Spin Energy          =      -0.3408338444177543 [Eh]
	 Opposite-Spin Energy      =      -1.0995494887638202 [Eh]
	 Correlation Energy        =      -1.4403833331815745 [Eh]
	 Total Energy              =    -345.2946311053671593 [Eh]

	 ================> DF-SCS-MP2 Energies <==================
	-----------------------------------------------------------
	 SCS Same-Spin Scale       =       0.3333333333333333 [-]
	 SCS Opposite-Spin Scale   =       1.2000000000000000 [-]
	 SCS Same-Spin Energy      =      -0.1136112814725848 [Eh]
	 SCS Opposite-Spin Energy  =      -1.3194593865165842 [Eh]
	 SCS Correlation Energy    =      -1.4330706679891689 [Eh]
	 SCS Total Energy          =    -345.2873184401747721 [Eh]
	-----------------------------------------------------------

  Dipole Moment: [D]
     X:    -0.3933      Y:    -1.1069      Z:     0.2990     Total:     1.2122

*** Psi4 exiting successfully. Buy a developer a beer!
