                               Psi4 1.3.2 release

  ==> Input File <==

--------------------------------------------------------------------------
#psi4
#
memory 32 gb

molecule  {
0 1
  O        2.5304412    -0.0835598     0.2061060
  O        0.8130585     1.2457904    -0.4326445
  C       -1.8165730    -0.1662430    -0.5903910
  C       -2.5841030     0.6523970     0.4513900
  C       -0.9018550    -1.1471370     0.0763090
  C        0.4138040    -1.0149060     0.3209930
  C        1.2159030     0.1700770    -0.0266570
  H       -2.5251580    -0.7208810    -1.2155130
  H       -1.2597500     0.5079260    -1.2382380
  H       -3.2919980     1.3271690    -0.0377650
  H       -1.8881090     1.2530680     1.0427000
  H       -3.1450010     0.0036210     1.1307380
  H       -1.3667210    -2.0751620     0.4099140
  H        0.9531490    -1.8065430     0.8308200
  H        2.9905100     0.7616870    -0.0298800
units angstrom
no_reorient  #important for SAPT in psi4, default
symmetry c1  #important for SAPT in psi4, default
}

set PROPERTIES_ORIGIN ["COM"]
properties('MP2/aug-cc-pvtz', properties = ['dipole'])
--------------------------------------------------------------------------

    Molecular point group: c1
  Charge       = 0
  Multiplicity = 1
  Basis Set: AUG-CC-PVTZ
    Blend: AUG-CC-PVTZ
  Basis Set: (AUG-CC-PVTZ AUX)
    Blend: AUG-CC-PVTZ-JKFIT

    Orbital Energies [Eh]
    ---------------------

    Doubly Occupied:

       1A    -20.613726     2A    -20.545288     3A    -11.388331
       4A    -11.270084     5A    -11.242219     6A    -11.231029
       7A    -11.220807     8A     -1.457085     9A     -1.353429
      10A     -1.104787    11A     -1.019084    12A     -0.907887
      13A     -0.838946    14A     -0.750900    15A     -0.707966
      16A     -0.673659    17A     -0.646749    18A     -0.628296
      19A     -0.600693    20A     -0.583096    21A     -0.565963
      22A     -0.527270    23A     -0.503888    24A     -0.495412
      25A     -0.482288    26A     -0.444099    27A     -0.380383

  @DF-RHF Final Energy:  -343.85546925340884

   => Energetics <=

    Nuclear Repulsion Energy =            292.8650694892792785
    One-Electron Energy =               -1049.0743475716467401
    Two-Electron Energy =                 412.3538088289586767
    Total Energy =                       -343.8554692534088417
  Basis Set: (AUG-CC-PVTZ AUX)
    Blend: AUG-CC-PVTZ-RI
    Molecular point group: c1

    Geometry (in Angstrom), charge = 0, multiplicity = 1:

       Center              X                  Y                   Z               Mass
    ------------   -----------------  -----------------  -----------------  -----------------
         O            2.532465842596    -0.081211614804     0.205546033233    15.994914619570
         O            0.815083142596     1.248138585196    -0.433204466767    15.994914619570
         C           -1.814548357404    -0.163894814804    -0.590950966767    12.000000000000
         C           -2.582078357404     0.654745185196     0.450830033233    12.000000000000
         C           -0.899830357404    -1.144788814804     0.075749033233    12.000000000000
         C            0.415828642596    -1.012557814804     0.320433033233    12.000000000000
         C            1.217927642596     0.172425185196    -0.027216966767    12.000000000000
         H           -2.523133357404    -0.718532814804    -1.216072966767     1.007825032230
         H           -1.257725357404     0.510274185196    -1.238797966767     1.007825032230
         H           -3.289973357404     1.329517185196    -0.038324966767     1.007825032230
         H           -1.886084357404     1.255416185196     1.042140033233     1.007825032230
         H           -3.142976357404     0.005969185196     1.130178033233     1.007825032230
         H           -1.364696357404    -2.072813814804     0.409354033233     1.007825032230
         H            0.955173642596    -1.804194814804     0.830260033233     1.007825032230
         H            2.992534642596     0.764035185196    -0.030439966767     1.007825032230

  Basis Set: AUG-CC-PVTZ
    Blend: AUG-CC-PVTZ
  Basis Set: (AUG-CC-PVTZ AUX)
    Blend: AUG-CC-PVTZ-JKFIT
	 Reference Energy          =    -343.8554692534088417 [Eh]
	 Singles Energy            =      -0.0000000000000000 [Eh]
	 Same-Spin Energy          =      -0.3411977492763110 [Eh]
	 Opposite-Spin Energy      =      -1.1004475467398662 [Eh]
	 Correlation Energy        =      -1.4416452960161772 [Eh]
	 Total Energy              =    -345.2971145494250322 [Eh]

	 ================> DF-SCS-MP2 Energies <==================
	-----------------------------------------------------------
	 SCS Same-Spin Scale       =       0.3333333333333333 [-]
	 SCS Opposite-Spin Scale   =       1.2000000000000000 [-]
	 SCS Same-Spin Energy      =      -0.1137325830921037 [Eh]
	 SCS Opposite-Spin Energy  =      -1.3205370560878393 [Eh]
	 SCS Correlation Energy    =      -1.4342696391799430 [Eh]
	 SCS Total Energy          =    -345.2897388925887867 [Eh]
	-----------------------------------------------------------

  Dipole Moment: [D]
     X:    -0.3716      Y:    -1.0899      Z:     0.3288     Total:     1.1975

*** Psi4 exiting successfully. Buy a developer a beer!
