                               Psi4 1.4a3.dev225

  ==> Input File <==

--------------------------------------------------------------------------
#psi4
#
memory 32 gb

molecule  {
0 1
  O        2.6043210     0.0828630    -0.1445960
  O        0.8461570    -1.2916990     0.2386850
  C       -1.7394130     0.0979440     0.6095950
  C       -2.3802920    -0.6692310    -0.5542970
  C       -0.8230420     1.1744430     0.1086050
  C        0.4895550     1.0683010    -0.1734410
  C        1.2721580    -0.1688410     0.0026710
  H       -2.5220070     0.5621210     1.2198080
  H       -1.1892610    -0.6035630     1.2386490
  H       -3.0933810    -1.4091330    -0.1797240
  H       -1.6064800    -1.1915300    -1.1205690
  H       -2.9131760     0.0061510    -1.2301320
  H       -1.2820910     2.1452700    -0.0812320
  H        1.0432440     1.9287000    -0.5363220
  H        3.0365164    -0.7653441    -0.0244846
units angstrom
no_reorient  #important for SAPT in psi4, default
symmetry c1  #important for SAPT in psi4, default
}

set PROPERTIES_ORIGIN ["COM"]
properties('MP2/aug-cc-pvtz', properties = ['dipole'])
--------------------------------------------------------------------------

    Molecular point group: c1
  Charge       = 0
  Multiplicity = 1
  Basis Set: AUG-CC-PVTZ
    Blend: AUG-CC-PVTZ
  Basis Set: (AUG-CC-PVTZ AUX)
    Blend: AUG-CC-PVTZ-JKFIT

    Orbital Energies [Eh]
    ---------------------

    Doubly Occupied:

       1A    -20.610864     2A    -20.545746     3A    -11.390497
       4A    -11.271768     5A    -11.244263     6A    -11.232243
       7A    -11.219251     8A     -1.458244     9A     -1.352835
      10A     -1.104944    11A     -1.018174    12A     -0.909579
      13A     -0.840645    14A     -0.752670    15A     -0.709277
      16A     -0.674799    17A     -0.646731    18A     -0.626832
      19A     -0.600991    20A     -0.579847    21A     -0.568916
      22A     -0.526460    23A     -0.502501    24A     -0.496332
      25A     -0.479950    26A     -0.445262    27A     -0.380771

  @DF-RHF Final Energy:  -343.85614059408420

   => Energetics <=

    Nuclear Repulsion Energy =            293.8556214198296175
    One-Electron Energy =               -1051.0427379177094735
    Two-Electron Energy =                 413.3309759037956610
    Total Energy =                       -343.8561405940841951
  Basis Set: (AUG-CC-PVTZ AUX)
    Blend: AUG-CC-PVTZ-RI
    Molecular point group: c1

    Geometry (in Angstrom), charge = 0, multiplicity = 1:

       Center              X                  Y                   Z               Mass
    ------------   -----------------  -----------------  -----------------  -----------------
         O            2.520121783143     0.089118730450    -0.151621794381    15.994914619570
         O            0.761957783143    -1.285443269550     0.231659205619    15.994914619570
         C           -1.823612216857     0.104199730450     0.602569205619    12.000000000000
         C           -2.464491216857    -0.662975269550    -0.561322794381    12.000000000000
         C           -0.907241216857     1.180698730450     0.101579205619    12.000000000000
         C            0.405355783143     1.074556730450    -0.180466794381    12.000000000000
         C            1.187958783143    -0.162585269550    -0.004354794381    12.000000000000
         H           -2.606206216857     0.568376730450     1.212782205619     1.007825032230
         H           -1.273460216857    -0.597307269550     1.231623205619     1.007825032230
         H           -3.177580216857    -1.402877269550    -0.186749794381     1.007825032230
         H           -1.690679216857    -1.185274269550    -1.127594794381     1.007825032230
         H           -2.997375216857     0.012406730450    -1.237157794381     1.007825032230
         H           -1.366290216857     2.151525730450    -0.088257794381     1.007825032230
         H            0.959044783143     1.934955730450    -0.543347794381     1.007825032230
         H            2.952317183143    -0.759088369550    -0.031510394381     1.007825032230

  Basis Set: AUG-CC-PVTZ
    Blend: AUG-CC-PVTZ
  Basis Set: (AUG-CC-PVTZ AUX)
    Blend: AUG-CC-PVTZ-JKFIT
	 Reference Energy          =    -343.8561405940841951 [Eh]
	 Singles Energy            =      -0.0000000000000000 [Eh]
	 Same-Spin Energy          =      -0.3410710692489114 [Eh]
	 Opposite-Spin Energy      =      -1.1002008724373664 [Eh]
	 Correlation Energy        =      -1.4412719416862778 [Eh]
	 Total Energy              =    -345.2974125357704906 [Eh]

	 ================> DF-SCS-MP2 Energies <==================
	-----------------------------------------------------------
	 SCS Same-Spin Scale       =       0.3333333333333333 [-]
	 SCS Opposite-Spin Scale   =       1.2000000000000000 [-]
	 SCS Same-Spin Energy      =      -0.1136903564163038 [Eh]
	 SCS Opposite-Spin Energy  =      -1.3202410469248396 [Eh]
	 SCS Correlation Energy    =      -1.4339314033411434 [Eh]
	 SCS Total Energy          =    -345.2900719974253434 [Eh]
	-----------------------------------------------------------

  Dipole Moment: [D]
     X:    -0.3724      Y:     1.1716      Z:    -0.1340     Total:     1.2366

*** Psi4 exiting successfully. Buy a developer a beer!
