                               Psi4 1.3.2 release

  ==> Input File <==

--------------------------------------------------------------------------
#psi4
#
memory 32 gb

molecule  {
0 1
  O        2.5331200    -0.0725200     0.2027050
  O        0.8230440     1.2494390    -0.4327460
  C       -1.8165730    -0.1662430    -0.5903910
  C       -2.5841030     0.6523970     0.4513900
  C       -0.9018550    -1.1471370     0.0763090
  C        0.4138040    -1.0149060     0.3209930
  C        1.2159030     0.1700770    -0.0266570
  H       -2.5251580    -0.7208810    -1.2155130
  H       -1.2597500     0.5079260    -1.2382380
  H       -3.2919980     1.3271690    -0.0377650
  H       -1.8881090     1.2530680     1.0427000
  H       -3.1450010     0.0036210     1.1307380
  H       -1.3667210    -2.0751620     0.4099140
  H        0.9034457    -1.7335898     0.7838369
  H        2.9905100     0.7616870    -0.0298800
units angstrom
no_reorient  #important for SAPT in psi4, default
symmetry c1  #important for SAPT in psi4, default
}

set PROPERTIES_ORIGIN ["COM"]
properties('MP2/aug-cc-pvtz', properties = ['dipole'])
--------------------------------------------------------------------------

    Molecular point group: c1
  Charge       = 0
  Multiplicity = 1
  Basis Set: AUG-CC-PVTZ
    Blend: AUG-CC-PVTZ
  Basis Set: (AUG-CC-PVTZ AUX)
    Blend: AUG-CC-PVTZ-JKFIT

    Orbital Energies [Eh]
    ---------------------

    Doubly Occupied:

       1A    -20.611395     2A    -20.543847     3A    -11.387211
       4A    -11.270671     5A    -11.231834     6A    -11.231138
       7A    -11.221034     8A     -1.457954     9A     -1.352168
      10A     -1.107648    11A     -1.023375    12A     -0.909788
      13A     -0.841081    14A     -0.754342    15A     -0.714609
      16A     -0.684702    17A     -0.648013    18A     -0.627784
      19A     -0.602037    20A     -0.588010    21A     -0.566297
      22A     -0.528308    23A     -0.504481    24A     -0.496050
      25A     -0.481621    26A     -0.444904    27A     -0.380916

  @DF-RHF Final Energy:  -343.85064731486642

   => Energetics <=

    Nuclear Repulsion Energy =            293.3433503972134986
    One-Electron Energy =               -1049.9655580287260364
    Two-Electron Energy =                 412.7715603166461165
    Total Energy =                       -343.8506473148664213
  Basis Set: (AUG-CC-PVTZ AUX)
    Blend: AUG-CC-PVTZ-RI
    Molecular point group: c1

    Geometry (in Angstrom), charge = 0, multiplicity = 1:

       Center              X                  Y                   Z               Mass
    ------------   -----------------  -----------------  -----------------  -----------------
         O            2.533620719908    -0.073254836042     0.203178220866    15.994914619570
         O            0.823544719908     1.248704163958    -0.432272779134    15.994914619570
         C           -1.816072280092    -0.166977836042    -0.589917779134    12.000000000000
         C           -2.583602280092     0.651662163958     0.451863220866    12.000000000000
         C           -0.901354280092    -1.147871836042     0.076782220866    12.000000000000
         C            0.414304719908    -1.015640836042     0.321466220866    12.000000000000
         C            1.216403719908     0.169342163958    -0.026183779134    12.000000000000
         H           -2.524657280092    -0.721615836042    -1.215039779134     1.007825032230
         H           -1.259249280092     0.507191163958    -1.237764779134     1.007825032230
         H           -3.291497280092     1.326434163958    -0.037291779134     1.007825032230
         H           -1.887608280092     1.252333163958     1.043173220866     1.007825032230
         H           -3.144500280092     0.002886163958     1.131211220866     1.007825032230
         H           -1.366220280092    -2.075896836042     0.410387220866     1.007825032230
         H            0.903946419908    -1.734324636042     0.784310120866     1.007825032230
         H            2.991010719908     0.760952163958    -0.029406779134     1.007825032230

  Basis Set: AUG-CC-PVTZ
    Blend: AUG-CC-PVTZ
  Basis Set: (AUG-CC-PVTZ AUX)
    Blend: AUG-CC-PVTZ-JKFIT
	 Reference Energy          =    -343.8506473148664213 [Eh]
	 Singles Energy            =      -0.0000000000000000 [Eh]
	 Same-Spin Energy          =      -0.3407682151873725 [Eh]
	 Opposite-Spin Energy      =      -1.0994336894451080 [Eh]
	 Correlation Energy        =      -1.4402019046324805 [Eh]
	 Total Energy              =    -345.2908492194989094 [Eh]

	 ================> DF-SCS-MP2 Energies <==================
	-----------------------------------------------------------
	 SCS Same-Spin Scale       =       0.3333333333333333 [-]
	 SCS Opposite-Spin Scale   =       1.2000000000000000 [-]
	 SCS Same-Spin Energy      =      -0.1135894050624575 [Eh]
	 SCS Opposite-Spin Energy  =      -1.3193204273341295 [Eh]
	 SCS Correlation Energy    =      -1.4329098323965870 [Eh]
	 SCS Total Energy          =    -345.2835571472630249 [Eh]
	-----------------------------------------------------------

  Dipole Moment: [D]
     X:    -0.4287      Y:    -1.1351      Z:     0.3371     Total:     1.2593

*** Psi4 exiting successfully. Buy a developer a beer!
