                               Psi4 1.3.2 release

  ==> Input File <==

--------------------------------------------------------------------------
#psi4
#
memory 32 gb

molecule  {
0 1
  O        2.5155498    -0.1384522     0.2228399
  O        0.7636064     1.2263242    -0.4316737
  C       -1.8165730    -0.1662430    -0.5903910
  C       -2.5841030     0.6523970     0.4513900
  C       -0.9018550    -1.1471370     0.0763090
  C        0.4138040    -1.0149060     0.3209930
  C        1.2159030     0.1700770    -0.0266570
  H       -2.5251580    -0.7208810    -1.2155130
  H       -1.2597500     0.5079260    -1.2382380
  H       -3.2919980     1.3271690    -0.0377650
  H       -1.8881090     1.2530680     1.0427000
  H       -3.1450010     0.0036210     1.1307380
  H       -1.3667210    -2.0751620     0.4099140
  H        0.9531490    -1.8065430     0.8308200
  H        2.9905100     0.7616870    -0.0298800
units angstrom
no_reorient  #important for SAPT in psi4, default
symmetry c1  #important for SAPT in psi4, default
}

set PROPERTIES_ORIGIN ["COM"]
properties('MP2/aug-cc-pvtz', properties = ['dipole'])
--------------------------------------------------------------------------

    Molecular point group: c1
  Charge       = 0
  Multiplicity = 1
  Basis Set: AUG-CC-PVTZ
    Blend: AUG-CC-PVTZ
  Basis Set: (AUG-CC-PVTZ AUX)
    Blend: AUG-CC-PVTZ-JKFIT

    Orbital Energies [Eh]
    ---------------------

    Doubly Occupied:

       1A    -20.625266     2A    -20.548928     3A    -11.389219
       4A    -11.265947     5A    -11.237146     6A    -11.228388
       7A    -11.219020     8A     -1.452941     9A     -1.357871
      10A     -1.101052    11A     -1.015752    12A     -0.903001
      13A     -0.834023    14A     -0.745224    15A     -0.707308
      16A     -0.671925    17A     -0.645520    18A     -0.630247
      19A     -0.597066    20A     -0.581322    21A     -0.563953
      22A     -0.525313    23A     -0.503301    24A     -0.495352
      25A     -0.484082    26A     -0.442608    27A     -0.376924

  @DF-RHF Final Energy:  -343.84406333124014

   => Energetics <=

    Nuclear Repulsion Energy =            293.1802383432457191
    One-Electron Energy =               -1049.7512051978992531
    Two-Electron Energy =                 412.7269035234133980
    Total Energy =                       -343.8440633312401360
  Basis Set: (AUG-CC-PVTZ AUX)
    Blend: AUG-CC-PVTZ-RI
    Molecular point group: c1

    Geometry (in Angstrom), charge = 0, multiplicity = 1:

       Center              X                  Y                   Z               Mass
    ------------   -----------------  -----------------  -----------------  -----------------
         O            2.527860737431    -0.124216652706     0.219449565532    15.994914619570
         O            0.775917337431     1.240559747294    -0.435064034468    15.994914619570
         C           -1.804262062569    -0.152007452706    -0.593781334468    12.000000000000
         C           -2.571792062569     0.666632547294     0.447999665532    12.000000000000
         C           -0.889544062569    -1.132901452706     0.072918665532    12.000000000000
         C            0.426114937431    -1.000670452706     0.317602665532    12.000000000000
         C            1.228213937431     0.184312547294    -0.030047334468    12.000000000000
         H           -2.512847062569    -0.706645452706    -1.218903334468     1.007825032230
         H           -1.247439062569     0.522161547294    -1.241628334468     1.007825032230
         H           -3.279687062569     1.341404547294    -0.041155334468     1.007825032230
         H           -1.875798062569     1.267303547294     1.039309665532     1.007825032230
         H           -3.132690062569     0.017856547294     1.127347665532     1.007825032230
         H           -1.354410062569    -2.060926452706     0.406523665532     1.007825032230
         H            0.965459937431    -1.792307452706     0.827429665532     1.007825032230
         H            3.002820937431     0.775922547294    -0.033270334468     1.007825032230

  Basis Set: AUG-CC-PVTZ
    Blend: AUG-CC-PVTZ
  Basis Set: (AUG-CC-PVTZ AUX)
    Blend: AUG-CC-PVTZ-JKFIT
	 Reference Energy          =    -343.8440633312401360 [Eh]
	 Singles Energy            =      -0.0000000000000000 [Eh]
	 Same-Spin Energy          =      -0.3426566283594593 [Eh]
	 Opposite-Spin Energy      =      -1.1035938861938521 [Eh]
	 Correlation Energy        =      -1.4462505145533113 [Eh]
	 Total Energy              =    -345.2903138457934347 [Eh]

	 ================> DF-SCS-MP2 Energies <==================
	-----------------------------------------------------------
	 SCS Same-Spin Scale       =       0.3333333333333333 [-]
	 SCS Opposite-Spin Scale   =       1.2000000000000000 [-]
	 SCS Same-Spin Energy      =      -0.1142188761198197 [Eh]
	 SCS Opposite-Spin Energy  =      -1.3243126634326225 [Eh]
	 SCS Correlation Energy    =      -1.4385315395524423 [Eh]
	 SCS Total Energy          =    -345.2825948707925932 [Eh]
	-----------------------------------------------------------

  Dipole Moment: [D]
     X:    -0.1119      Y:    -0.9312      Z:     0.3016     Total:     0.9852

*** Psi4 exiting successfully. Buy a developer a beer!
