                               Psi4 1.3.2 release

  ==> Input File <==

--------------------------------------------------------------------------
#psi4
#
memory 32 gb

molecule  {
0 1
  O        2.5331200    -0.0725200     0.2027050
  O        0.8230440     1.2494390    -0.4327460
  C       -1.8165730    -0.1662430    -0.5903910
  C       -2.5841030     0.6523970     0.4513900
  C       -0.8895108    -1.1273039     0.0880400
  C        0.4138040    -1.0149060     0.3209930
  C        1.2159030     0.1700770    -0.0266570
  H       -2.5332258    -0.7043507    -1.2207420
  H       -1.2597500     0.5079260    -1.2382380
  H       -3.2919980     1.3271690    -0.0377650
  H       -1.8881090     1.2530680     1.0427000
  H       -3.1450010     0.0036210     1.1307380
  H       -1.3667210    -2.0751620     0.4099140
  H        0.9531490    -1.8065430     0.8308200
  H        2.9905100     0.7616870    -0.0298800
units angstrom
no_reorient  #important for SAPT in psi4, default
symmetry c1  #important for SAPT in psi4, default
}

set PROPERTIES_ORIGIN ["COM"]
properties('MP2/aug-cc-pvtz', properties = ['dipole'])
--------------------------------------------------------------------------

    Molecular point group: c1
  Charge       = 0
  Multiplicity = 1
  Basis Set: AUG-CC-PVTZ
    Blend: AUG-CC-PVTZ
  Basis Set: (AUG-CC-PVTZ AUX)
    Blend: AUG-CC-PVTZ-JKFIT

    Orbital Energies [Eh]
    ---------------------

    Doubly Occupied:

       1A    -20.611453     2A    -20.544798     3A    -11.388158
       4A    -11.269800     5A    -11.241729     6A    -11.231430
       7A    -11.220714     8A     -1.458292     9A     -1.352818
      10A     -1.107692    11A     -1.021356    12A     -0.907627
      13A     -0.840670    14A     -0.750144    15A     -0.708433
      16A     -0.675386    17A     -0.646543    18A     -0.628244
      19A     -0.601731    20A     -0.584855    21A     -0.563520
      22A     -0.526805    23A     -0.503025    24A     -0.496200
      25A     -0.482016    26A     -0.442919    27A     -0.384776

  @DF-RHF Final Energy:  -343.85626958336741

   => Energetics <=

    Nuclear Repulsion Energy =            293.1247080958993934
    One-Electron Energy =               -1049.5796894738227820
    Two-Electron Energy =                 412.5987117945559248
    Total Energy =                       -343.8562695833674070
  Basis Set: (AUG-CC-PVTZ AUX)
    Blend: AUG-CC-PVTZ-RI
    Molecular point group: c1

    Geometry (in Angstrom), charge = 0, multiplicity = 1:

       Center              X                  Y                   Z               Mass
    ------------   -----------------  -----------------  -----------------  -----------------
         O            2.531720799035    -0.075065214759     0.201350650780    15.994914619570
         O            0.821644799035     1.246893785241    -0.434100349220    15.994914619570
         C           -1.817972200965    -0.168788214759    -0.591745349220    12.000000000000
         C           -2.585502200965     0.649851785241     0.450035650780    12.000000000000
         C           -0.890910000965    -1.129849114759     0.086685650780    12.000000000000
         C            0.412404799035    -1.017451214759     0.319638650780    12.000000000000
         C            1.214503799035     0.167531785241    -0.028011349220    12.000000000000
         H           -2.534625000965    -0.706895914759    -1.222096349220     1.007825032230
         H           -1.261149200965     0.505380785241    -1.239592349220     1.007825032230
         H           -3.293397200965     1.324623785241    -0.039119349220     1.007825032230
         H           -1.889508200965     1.250522785241     1.041345650780     1.007825032230
         H           -3.146400200965     0.001075785241     1.129383650780     1.007825032230
         H           -1.368120200965    -2.077707214759     0.408559650780     1.007825032230
         H            0.951749799035    -1.809088214759     0.829465650780     1.007825032230
         H            2.989110799035     0.759141785241    -0.031234349220     1.007825032230

  Basis Set: AUG-CC-PVTZ
    Blend: AUG-CC-PVTZ
  Basis Set: (AUG-CC-PVTZ AUX)
    Blend: AUG-CC-PVTZ-JKFIT
	 Reference Energy          =    -343.8562695833674070 [Eh]
	 Singles Energy            =      -0.0000000000000000 [Eh]
	 Same-Spin Energy          =      -0.3408559718589650 [Eh]
	 Opposite-Spin Energy      =      -1.0996546727554397 [Eh]
	 Correlation Energy        =      -1.4405106446144047 [Eh]
	 Total Energy              =    -345.2967802279817988 [Eh]

	 ================> DF-SCS-MP2 Energies <==================
	-----------------------------------------------------------
	 SCS Same-Spin Scale       =       0.3333333333333333 [-]
	 SCS Opposite-Spin Scale   =       1.2000000000000000 [-]
	 SCS Same-Spin Energy      =      -0.1136186572863217 [Eh]
	 SCS Opposite-Spin Energy  =      -1.3195856073065275 [Eh]
	 SCS Correlation Energy    =      -1.4332042645928491 [Eh]
	 SCS Total Energy          =    -345.2894738479602665 [Eh]
	-----------------------------------------------------------

  Dipole Moment: [D]
     X:    -0.4105      Y:    -1.1157      Z:     0.3168     Total:     1.2303

*** Psi4 exiting successfully. Buy a developer a beer!
