                               Psi4 1.3.2 release

  ==> Input File <==

--------------------------------------------------------------------------
#psi4
#
memory 32 gb

molecule  {
0 1
  O        2.5331200    -0.0725200     0.2027050
  O        0.8230440     1.2494390    -0.4327460
  C       -1.8165730    -0.1662430    -0.5903910
  C       -2.5841030     0.6523970     0.4513900
  C       -0.9017435    -1.1043219     0.0570735
  C        0.4138040    -1.0149060     0.3209930
  C        1.1736405     0.1918314    -0.0462145
  H       -2.5251580    -0.7208810    -1.2155130
  H       -1.2597500     0.5079260    -1.2382380
  H       -3.2919980     1.3271690    -0.0377650
  H       -1.8881090     1.2530680     1.0427000
  H       -3.1450010     0.0036210     1.1307380
  H       -1.3667210    -2.0751620     0.4099140
  H        0.9531490    -1.8065430     0.8308200
  H        2.9905100     0.7616870    -0.0298800
units angstrom
no_reorient  #important for SAPT in psi4, default
symmetry c1  #important for SAPT in psi4, default
}

set PROPERTIES_ORIGIN ["COM"]
properties('MP2/aug-cc-pvtz', properties = ['dipole'])
--------------------------------------------------------------------------

    Molecular point group: c1
  Charge       = 0
  Multiplicity = 1
  Basis Set: AUG-CC-PVTZ
    Blend: AUG-CC-PVTZ
  Basis Set: (AUG-CC-PVTZ AUX)
    Blend: AUG-CC-PVTZ-JKFIT

    Orbital Energies [Eh]
    ---------------------

    Doubly Occupied:

       1A    -20.595777     2A    -20.552908     3A    -11.384453
       4A    -11.273091     5A    -11.244049     6A    -11.232827
       7A    -11.224609     8A     -1.456179     9A     -1.357113
      10A     -1.112576    11A     -1.023096    12A     -0.905800
      13A     -0.837329    14A     -0.740706    15A     -0.709521
      16A     -0.675478    17A     -0.643745    18A     -0.624094
      19A     -0.604706    20A     -0.590956    21A     -0.560478
      22A     -0.533796    23A     -0.510236    24A     -0.499742
      25A     -0.488083    26A     -0.443487    27A     -0.382129

  @DF-RHF Final Energy:  -343.85119478862066

   => Energetics <=

    Nuclear Repulsion Energy =            293.6415660529391971
    One-Electron Energy =               -1050.5715915534410669
    Two-Electron Energy =                 413.0788307118812099
    Total Energy =                       -343.8511947886206599
  Basis Set: (AUG-CC-PVTZ AUX)
    Blend: AUG-CC-PVTZ-RI
    Molecular point group: c1

    Geometry (in Angstrom), charge = 0, multiplicity = 1:

       Center              X                  Y                   Z               Mass
    ------------   -----------------  -----------------  -----------------  -----------------
         O            2.538175529545    -0.080264260425     0.207357682152    15.994914619570
         O            0.828099529545     1.241694739575    -0.428093317848    15.994914619570
         C           -1.811517470455    -0.173987260425    -0.585738317848    12.000000000000
         C           -2.579047470455     0.644652739575     0.456042682152    12.000000000000
         C           -0.896687970455    -1.112066160425     0.061726182152    12.000000000000
         C            0.418859529545    -1.022650260425     0.325645682152    12.000000000000
         C            1.178696029545     0.184087139575    -0.041561817848    12.000000000000
         H           -2.520102470455    -0.728625260425    -1.210860317848     1.007825032230
         H           -1.254694470455     0.500181739575    -1.233585317848     1.007825032230
         H           -3.286942470455     1.319424739575    -0.033112317848     1.007825032230
         H           -1.883053470455     1.245323739575     1.047352682152     1.007825032230
         H           -3.139945470455    -0.004123260425     1.135390682152     1.007825032230
         H           -1.361665470455    -2.082906260425     0.414566682152     1.007825032230
         H            0.958204529545    -1.814287260425     0.835472682152     1.007825032230
         H            2.995565529545     0.753942739575    -0.025227317848     1.007825032230

  Basis Set: AUG-CC-PVTZ
    Blend: AUG-CC-PVTZ
  Basis Set: (AUG-CC-PVTZ AUX)
    Blend: AUG-CC-PVTZ-JKFIT
	 Reference Energy          =    -343.8511947886206599 [Eh]
	 Singles Energy            =      -0.0000000000000000 [Eh]
	 Same-Spin Energy          =      -0.3410754926836502 [Eh]
	 Opposite-Spin Energy      =      -1.0998949015449675 [Eh]
	 Correlation Energy        =      -1.4409703942286178 [Eh]
	 Total Energy              =    -345.2921651828492600 [Eh]

	 ================> DF-SCS-MP2 Energies <==================
	-----------------------------------------------------------
	 SCS Same-Spin Scale       =       0.3333333333333333 [-]
	 SCS Opposite-Spin Scale   =       1.2000000000000000 [-]
	 SCS Same-Spin Energy      =      -0.1136918308945501 [Eh]
	 SCS Opposite-Spin Energy  =      -1.3198738818539610 [Eh]
	 SCS Correlation Energy    =      -1.4335657127485111 [Eh]
	 SCS Total Energy          =    -345.2847605013691918 [Eh]
	-----------------------------------------------------------

  Dipole Moment: [D]
     X:    -0.8973      Y:    -0.9245      Z:     0.2130     Total:     1.3059

*** Psi4 exiting successfully. Buy a developer a beer!
