                               Psi4 1.3.2 release

  ==> Input File <==

--------------------------------------------------------------------------
#psi4
#
memory 32 gb

molecule  {
0 1
  O        2.5331200    -0.0725200     0.2027050
  O        0.8230440     1.2494390    -0.4327460
  C       -1.8165730    -0.1662430    -0.5903910
  C       -2.5841030     0.6523970     0.4513900
  C       -0.9144778    -1.1666713     0.0643749
  C        0.4138040    -1.0149060     0.3209930
  C        1.2159030     0.1700770    -0.0266570
  H       -2.5168743    -0.7372423    -1.2100936
  H       -1.2597500     0.5079260    -1.2382380
  H       -3.2919980     1.3271690    -0.0377650
  H       -1.8881090     1.2530680     1.0427000
  H       -3.1450010     0.0036210     1.1307380
  H       -1.3667210    -2.0751620     0.4099140
  H        0.9531490    -1.8065430     0.8308200
  H        2.9905100     0.7616870    -0.0298800
units angstrom
no_reorient  #important for SAPT in psi4, default
symmetry c1  #important for SAPT in psi4, default
}

set PROPERTIES_ORIGIN ["COM"]
properties('MP2/aug-cc-pvtz', properties = ['dipole'])
--------------------------------------------------------------------------

    Molecular point group: c1
  Charge       = 0
  Multiplicity = 1
  Basis Set: AUG-CC-PVTZ
    Blend: AUG-CC-PVTZ
  Basis Set: (AUG-CC-PVTZ AUX)
    Blend: AUG-CC-PVTZ-JKFIT

    Orbital Energies [Eh]
    ---------------------

    Doubly Occupied:

       1A    -20.611116     2A    -20.544298     3A    -11.388282
       4A    -11.272169     5A    -11.244835     6A    -11.231781
       7A    -11.221640     8A     -1.457861     9A     -1.352328
      10A     -1.103573    11A     -1.018150    12A     -0.910351
      13A     -0.839364    14A     -0.754795    15A     -0.707304
      16A     -0.672585    17A     -0.647648    18A     -0.627622
      19A     -0.601168    20A     -0.581903    21A     -0.568898
      22A     -0.528662    23A     -0.505403    24A     -0.494016
      25A     -0.481436    26A     -0.445328    27A     -0.377325

  @DF-RHF Final Energy:  -343.85542898064489

   => Energetics <=

    Nuclear Repulsion Energy =            292.5090328611961468
    One-Electron Energy =               -1048.3492488084905290
    Two-Electron Energy =                 411.9847869666494944
    Total Energy =                       -343.8554289806448878
  Basis Set: (AUG-CC-PVTZ AUX)
    Blend: AUG-CC-PVTZ-RI
    Molecular point group: c1

    Geometry (in Angstrom), charge = 0, multiplicity = 1:

       Center              X                  Y                   Z               Mass
    ------------   -----------------  -----------------  -----------------  -----------------
         O            2.534550560895    -0.070012286206     0.204081713656    15.994914619570
         O            0.824474560895     1.251946713794    -0.431369286344    15.994914619570
         C           -1.815142439105    -0.163735286206    -0.589014286344    12.000000000000
         C           -2.582672439105     0.654904713794     0.452766713656    12.000000000000
         C           -0.913047239105    -1.164163586206     0.065751613656    12.000000000000
         C            0.415234560895    -1.012398286206     0.322369713656    12.000000000000
         C            1.217333560895     0.172584713794    -0.025280286344    12.000000000000
         H           -2.515443739105    -0.734734586206    -1.208716886344     1.007825032230
         H           -1.258319439105     0.510433713794    -1.236861286344     1.007825032230
         H           -3.290567439105     1.329676713794    -0.036388286344     1.007825032230
         H           -1.886678439105     1.255575713794     1.044076713656     1.007825032230
         H           -3.143570439105     0.006128713794     1.132114713656     1.007825032230
         H           -1.365290439105    -2.072654286206     0.411290713656     1.007825032230
         H            0.954579560895    -1.804035286206     0.832196713656     1.007825032230
         H            2.991940560895     0.764194713794    -0.028503286344     1.007825032230

  Basis Set: AUG-CC-PVTZ
    Blend: AUG-CC-PVTZ
  Basis Set: (AUG-CC-PVTZ AUX)
    Blend: AUG-CC-PVTZ-JKFIT
	 Reference Energy          =    -343.8554289806448878 [Eh]
	 Singles Energy            =      -0.0000000000000000 [Eh]
	 Same-Spin Energy          =      -0.3410568798709984 [Eh]
	 Opposite-Spin Energy      =      -1.1002216656173300 [Eh]
	 Correlation Energy        =      -1.4412785454883283 [Eh]
	 Total Energy              =    -345.2967075261332184 [Eh]

	 ================> DF-SCS-MP2 Energies <==================
	-----------------------------------------------------------
	 SCS Same-Spin Scale       =       0.3333333333333333 [-]
	 SCS Opposite-Spin Scale   =       1.2000000000000000 [-]
	 SCS Same-Spin Energy      =      -0.1136856266236661 [Eh]
	 SCS Opposite-Spin Energy  =      -1.3202659987407961 [Eh]
	 SCS Correlation Energy    =      -1.4339516253644622 [Eh]
	 SCS Total Energy          =    -345.2893806060093311 [Eh]
	-----------------------------------------------------------

  Dipole Moment: [D]
     X:    -0.4372      Y:    -1.1263      Z:     0.3516     Total:     1.2583

*** Psi4 exiting successfully. Buy a developer a beer!
