                               Psi4 1.3.2 release

  ==> Input File <==

--------------------------------------------------------------------------
#psi4
#
memory 32 gb

molecule  {
0 1
  O        2.5331200    -0.0725200     0.2027050
  O        0.8230440     1.2494390    -0.4327460
  C       -1.8165730    -0.1662430    -0.5903910
  C       -2.6201924     0.6911908     0.3912324
  C       -0.8791912    -1.1711986     0.0052016
  C        0.4138040    -1.0149060     0.3209930
  C        1.2159030     0.1700770    -0.0266570
  H       -2.5251580    -0.7208810    -1.2155130
  H       -1.2597500     0.5079260    -1.2382380
  H       -3.2919980     1.3271690    -0.0377650
  H       -1.8881090     1.2530680     1.0427000
  H       -3.1450010     0.0036210     1.1307380
  H       -1.3667210    -2.0751620     0.4099140
  H        0.9531490    -1.8065430     0.8308200
  H        2.9905100     0.7616870    -0.0298800
units angstrom
no_reorient  #important for SAPT in psi4, default
symmetry c1  #important for SAPT in psi4, default
}

set PROPERTIES_ORIGIN ["COM"]
properties('MP2/aug-cc-pvtz', properties = ['dipole'])
--------------------------------------------------------------------------

    Molecular point group: c1
  Charge       = 0
  Multiplicity = 1
  Basis Set: AUG-CC-PVTZ
    Blend: AUG-CC-PVTZ
  Basis Set: (AUG-CC-PVTZ AUX)
    Blend: AUG-CC-PVTZ-JKFIT

    Orbital Energies [Eh]
    ---------------------

    Doubly Occupied:

       1A    -20.612205     2A    -20.545728     3A    -11.389117
       4A    -11.271907     5A    -11.245391     6A    -11.231085
       7A    -11.222891     8A     -1.459042     9A     -1.353515
      10A     -1.105377    11A     -1.020701    12A     -0.911586
      13A     -0.841353    14A     -0.750349    15A     -0.708831
      16A     -0.673747    17A     -0.646054    18A     -0.628498
      19A     -0.606699    20A     -0.586899    21A     -0.563471
      22A     -0.530125    23A     -0.505074    24A     -0.487614
      25A     -0.477934    26A     -0.443350    27A     -0.383738

  @DF-RHF Final Energy:  -343.84649703986929

   => Energetics <=

    Nuclear Repulsion Energy =            292.4263538659524784
    One-Electron Energy =               -1048.1411397888994088
    Two-Electron Energy =                 411.8682888830776392
    Total Energy =                       -343.8464970398692913
  Basis Set: (AUG-CC-PVTZ AUX)
    Blend: AUG-CC-PVTZ-RI
    Molecular point group: c1

    Geometry (in Angstrom), charge = 0, multiplicity = 1:

       Center              X                  Y                   Z               Mass
    ------------   -----------------  -----------------  -----------------  -----------------
         O            2.534730287867    -0.074286918315     0.218448507289    15.994914619570
         O            0.824654287867     1.247672081685    -0.417002492711    15.994914619570
         C           -1.814962712133    -0.168009918315    -0.574647492711    12.000000000000
         C           -2.618582112133     0.689423881685     0.406975907289    12.000000000000
         C           -0.877580912133    -1.172965518315     0.020945107289    12.000000000000
         C            0.415414287867    -1.016672918315     0.336736507289    12.000000000000
         C            1.217513287867     0.168310081685    -0.010913492711    12.000000000000
         H           -2.523547712133    -0.722647918315    -1.199769492711     1.007825032230
         H           -1.258139712133     0.506159081685    -1.222494492711     1.007825032230
         H           -3.290387712133     1.325402081685    -0.022021492711     1.007825032230
         H           -1.886498712133     1.251301081685     1.058443507289     1.007825032230
         H           -3.143390712133     0.001854081685     1.146481507289     1.007825032230
         H           -1.365110712133    -2.076928918315     0.425657507289     1.007825032230
         H            0.954759287867    -1.808309918315     0.846563507289     1.007825032230
         H            2.992120287867     0.759920081685    -0.014136492711     1.007825032230

  Basis Set: AUG-CC-PVTZ
    Blend: AUG-CC-PVTZ
  Basis Set: (AUG-CC-PVTZ AUX)
    Blend: AUG-CC-PVTZ-JKFIT
	 Reference Energy          =    -343.8464970398692913 [Eh]
	 Singles Energy            =      -0.0000000000000000 [Eh]
	 Same-Spin Energy          =      -0.3410485659292550 [Eh]
	 Opposite-Spin Energy      =      -1.1004715795902662 [Eh]
	 Correlation Energy        =      -1.4415201455195212 [Eh]
	 Total Energy              =    -345.2880171853888100 [Eh]

	 ================> DF-SCS-MP2 Energies <==================
	-----------------------------------------------------------
	 SCS Same-Spin Scale       =       0.3333333333333333 [-]
	 SCS Opposite-Spin Scale   =       1.2000000000000000 [-]
	 SCS Same-Spin Energy      =      -0.1136828553097517 [Eh]
	 SCS Opposite-Spin Energy  =      -1.3205658955083195 [Eh]
	 SCS Correlation Energy    =      -1.4342487508180712 [Eh]
	 SCS Total Energy          =    -345.2807457906873765 [Eh]
	-----------------------------------------------------------

  Dipole Moment: [D]
     X:    -0.3534      Y:    -1.0612      Z:     0.3700     Total:     1.1781

*** Psi4 exiting successfully. Buy a developer a beer!
