                               Psi4 1.3.2 release

  ==> Input File <==

--------------------------------------------------------------------------
#psi4
#
memory 32 gb

molecule  {
0 1
  O        2.5331200    -0.0725200     0.2027050
  O        0.8230440     1.2494390    -0.4327460
  C       -1.8165730    -0.1662430    -0.5903910
  C       -2.5841030     0.6523970     0.4513900
  C       -0.9006305    -1.1892560     0.0969885
  C        0.4138040    -1.0149060     0.3209930
  C        1.2159030     0.1700770    -0.0266570
  H       -2.5251580    -0.7208810    -1.2155130
  H       -1.2597500     0.5079260    -1.2382380
  H       -3.2919980     1.3271690    -0.0377650
  H       -1.8881090     1.2530680     1.0427000
  H       -3.1450010     0.0036210     1.1307380
  H       -1.3667210    -2.0751620     0.4099140
  H        0.9209043    -1.8263133     0.8328261
  H        2.9905100     0.7616870    -0.0298800
units angstrom
no_reorient  #important for SAPT in psi4, default
symmetry c1  #important for SAPT in psi4, default
}

set PROPERTIES_ORIGIN ["COM"]
properties('MP2/aug-cc-pvtz', properties = ['dipole'])
--------------------------------------------------------------------------

    Molecular point group: c1
  Charge       = 0
  Multiplicity = 1
  Basis Set: AUG-CC-PVTZ
    Blend: AUG-CC-PVTZ
  Basis Set: (AUG-CC-PVTZ AUX)
    Blend: AUG-CC-PVTZ-JKFIT

    Orbital Energies [Eh]
    ---------------------

    Doubly Occupied:

       1A    -20.612303     2A    -20.546081     3A    -11.390925
       4A    -11.268504     5A    -11.243622     6A    -11.232299
       7A    -11.219629     8A     -1.459104     9A     -1.353677
      10A     -1.101646    11A     -1.017534    12A     -0.909268
      13A     -0.838429    14A     -0.758017    15A     -0.708175
      16A     -0.674306    17A     -0.647766    18A     -0.628562
      19A     -0.600056    20A     -0.581777    21A     -0.573163
      22A     -0.523680    23A     -0.501780    24A     -0.490621
      25A     -0.481136    26A     -0.446763    27A     -0.382177

  @DF-RHF Final Energy:  -343.85425088912109

   => Energetics <=

    Nuclear Repulsion Energy =            292.2594157073893371
    One-Electron Energy =               -1047.8453334878602163
    Two-Electron Energy =                 411.7316668913498461
    Total Energy =                       -343.8542508891210900
  Basis Set: (AUG-CC-PVTZ AUX)
    Blend: AUG-CC-PVTZ-RI
    Molecular point group: c1

    Geometry (in Angstrom), charge = 0, multiplicity = 1:

       Center              X                  Y                   Z               Mass
    ------------   -----------------  -----------------  -----------------  -----------------
         O            2.533297996969    -0.067269203635     0.200204514544    15.994914619570
         O            0.823221996969     1.254689796365    -0.435246485456    15.994914619570
         C           -1.816395003031    -0.160992203635    -0.592891485456    12.000000000000
         C           -2.583925003031     0.657647796365     0.448889514544    12.000000000000
         C           -0.900452503031    -1.184005203635     0.094488014544    12.000000000000
         C            0.413981996969    -1.009655203635     0.318492514544    12.000000000000
         C            1.216080996969     0.175327796365    -0.029157485456    12.000000000000
         H           -2.524980003031    -0.715630203635    -1.218013485456     1.007825032230
         H           -1.259572003031     0.513176796365    -1.240738485456     1.007825032230
         H           -3.291820003031     1.332419796365    -0.040265485456     1.007825032230
         H           -1.887931003031     1.258318796365     1.040199514544     1.007825032230
         H           -3.144823003031     0.008871796365     1.128237514544     1.007825032230
         H           -1.366543003031    -2.069911203635     0.407413514544     1.007825032230
         H            0.921082296969    -1.821062503635     0.830325614544     1.007825032230
         H            2.990687996969     0.766937796365    -0.032380485456     1.007825032230

  Basis Set: AUG-CC-PVTZ
    Blend: AUG-CC-PVTZ
  Basis Set: (AUG-CC-PVTZ AUX)
    Blend: AUG-CC-PVTZ-JKFIT
	 Reference Energy          =    -343.8542508891210900 [Eh]
	 Singles Energy            =      -0.0000000000000000 [Eh]
	 Same-Spin Energy          =      -0.3406144090668863 [Eh]
	 Opposite-Spin Energy      =      -1.0998407625364728 [Eh]
	 Correlation Energy        =      -1.4404551716033591 [Eh]
	 Total Energy              =    -345.2947060607244225 [Eh]

	 ================> DF-SCS-MP2 Energies <==================
	-----------------------------------------------------------
	 SCS Same-Spin Scale       =       0.3333333333333333 [-]
	 SCS Opposite-Spin Scale   =       1.2000000000000000 [-]
	 SCS Same-Spin Energy      =      -0.1135381363556288 [Eh]
	 SCS Opposite-Spin Energy  =      -1.3198089150437673 [Eh]
	 SCS Correlation Energy    =      -1.4333470513993960 [Eh]
	 SCS Total Energy          =    -345.2875979405204703 [Eh]
	-----------------------------------------------------------

  Dipole Moment: [D]
     X:    -0.3683      Y:    -1.1528      Z:     0.3487     Total:     1.2594

*** Psi4 exiting successfully. Buy a developer a beer!
