                               Psi4 1.3.2 release

  ==> Input File <==

--------------------------------------------------------------------------
#psi4
#
memory 32 gb

molecule  {
0 1
  O        2.5331200    -0.0725200     0.2027050
  O        0.8230440     1.2494390    -0.4327460
  C       -1.7964506    -0.1498150    -0.5933166
  C       -2.5841030     0.6523970     0.4513900
  C       -0.9018550    -1.1471370     0.0763090
  C        0.4133096    -0.9936560     0.3110420
  C        1.2159030     0.1700770    -0.0266570
  H       -2.5251580    -0.7208810    -1.2155130
  H       -1.2597500     0.5079260    -1.2382380
  H       -3.2919980     1.3271690    -0.0377650
  H       -1.8881090     1.2530680     1.0427000
  H       -3.1450010     0.0036210     1.1307380
  H       -1.3667210    -2.0751620     0.4099140
  H        0.9531490    -1.8065430     0.8308200
  H        2.9905100     0.7616870    -0.0298800
units angstrom
no_reorient  #important for SAPT in psi4, default
symmetry c1  #important for SAPT in psi4, default
}

set PROPERTIES_ORIGIN ["COM"]
properties('MP2/aug-cc-pvtz', properties = ['dipole'])
--------------------------------------------------------------------------

    Molecular point group: c1
  Charge       = 0
  Multiplicity = 1
  Basis Set: AUG-CC-PVTZ
    Blend: AUG-CC-PVTZ
  Basis Set: (AUG-CC-PVTZ AUX)
    Blend: AUG-CC-PVTZ-JKFIT

    Orbital Energies [Eh]
    ---------------------

    Doubly Occupied:

       1A    -20.611202     2A    -20.543678     3A    -11.387080
       4A    -11.272238     5A    -11.242730     6A    -11.231465
       7A    -11.221449     8A     -1.458204     9A     -1.352443
      10A     -1.106815    11A     -1.019883    12A     -0.911239
      13A     -0.840021    14A     -0.754467    15A     -0.707243
      16A     -0.671324    17A     -0.647694    18A     -0.628446
      19A     -0.602020    20A     -0.580235    21A     -0.568739
      22A     -0.526781    23A     -0.506439    24A     -0.491271
      25A     -0.482053    26A     -0.445852    27A     -0.380655

  @DF-RHF Final Energy:  -343.85484120053371

   => Energetics <=

    Nuclear Repulsion Energy =            293.2779396006062598
    One-Electron Energy =               -1049.8822291095250421
    Two-Electron Energy =                 412.7494483083850696
    Total Energy =                       -343.8548412005337127
  Basis Set: (AUG-CC-PVTZ AUX)
    Blend: AUG-CC-PVTZ-RI
    Molecular point group: c1

    Geometry (in Angstrom), charge = 0, multiplicity = 1:

       Center              X                  Y                   Z               Mass
    ------------   -----------------  -----------------  -----------------  -----------------
         O            2.530765934358    -0.077038971427     0.204249343839    15.994914619570
         O            0.820689934358     1.244920028573    -0.431201656161    15.994914619570
         C           -1.798804665642    -0.154333971427    -0.591772256161    12.000000000000
         C           -2.586457065642     0.647878028573     0.452934343839    12.000000000000
         C           -0.904209065642    -1.151655971427     0.077853343839    12.000000000000
         C            0.410955534358    -0.998174971427     0.312586343839    12.000000000000
         C            1.213548934358     0.165558028573    -0.025112656161    12.000000000000
         H           -2.527512065642    -0.725399971427    -1.213968656161     1.007825032230
         H           -1.262104065642     0.503407028573    -1.236693656161     1.007825032230
         H           -3.294352065642     1.322650028573    -0.036220656161     1.007825032230
         H           -1.890463065642     1.248549028573     1.044244343839     1.007825032230
         H           -3.147355065642    -0.000897971427     1.132282343839     1.007825032230
         H           -1.369075065642    -2.079680971427     0.411458343839     1.007825032230
         H            0.950794934358    -1.811061971427     0.832364343839     1.007825032230
         H            2.988155934358     0.757168028573    -0.028335656161     1.007825032230

  Basis Set: AUG-CC-PVTZ
    Blend: AUG-CC-PVTZ
  Basis Set: (AUG-CC-PVTZ AUX)
    Blend: AUG-CC-PVTZ-JKFIT
	 Reference Energy          =    -343.8548412005337127 [Eh]
	 Singles Energy            =      -0.0000000000000000 [Eh]
	 Same-Spin Energy          =      -0.3411264622983812 [Eh]
	 Opposite-Spin Energy      =      -1.1000933383023439 [Eh]
	 Correlation Energy        =      -1.4412198006007251 [Eh]
	 Total Energy              =    -345.2960610011344329 [Eh]

	 ================> DF-SCS-MP2 Energies <==================
	-----------------------------------------------------------
	 SCS Same-Spin Scale       =       0.3333333333333333 [-]
	 SCS Opposite-Spin Scale   =       1.2000000000000000 [-]
	 SCS Same-Spin Energy      =      -0.1137088207661271 [Eh]
	 SCS Opposite-Spin Energy  =      -1.3201120059628126 [Eh]
	 SCS Correlation Energy    =      -1.4338208267289396 [Eh]
	 SCS Total Energy          =    -345.2886620272626601 [Eh]
	-----------------------------------------------------------

  Dipole Moment: [D]
     X:    -0.4474      Y:    -1.1372      Z:     0.3407     Total:     1.2686

*** Psi4 exiting successfully. Buy a developer a beer!
